
    -----------------------------------------------------------------------
          Psi4: An Open-Source Ab Initio Electronic Structure Package
                               Psi4 1.4a2.dev224 

                         Git: Rev {master} e453b16 


    R. M. Parrish, L. A. Burns, D. G. A. Smith, A. C. Simmonett,
    A. E. DePrince III, E. G. Hohenstein, U. Bozkaya, A. Yu. Sokolov,
    R. Di Remigio, R. M. Richard, J. F. Gonthier, A. M. James,
    H. R. McAlexander, A. Kumar, M. Saitow, X. Wang, B. P. Pritchard,
    P. Verma, H. F. Schaefer III, K. Patkowski, R. A. King, E. F. Valeev,
    F. A. Evangelista, J. M. Turney, T. D. Crawford, and C. D. Sherrill,
    J. Chem. Theory Comput. 13(7) pp 3185--3197 (2017).
    (doi: 10.1021/acs.jctc.7b00174)


                         Additional Contributions by
    P. Kraus, H. Kruse, M. H. Lechner, M. C. Schieber, R. A. Shaw,
    A. Alenaizan, R. Galvelis, Z. L. Glick, S. Lehtola, and J. P. Misiewicz

    -----------------------------------------------------------------------


    Psi4 started on: Saturday, 11 April 2020 04:18PM

    Process ID: 59996
    Host:       node83.bme.utexas.edu
    PSIDATADIR: /home/liuchw/anaconda3/envs/psi4env/share/psi4
    Memory:     500.0 MiB
    Threads:    6
    
  ==> Input File <==

--------------------------------------------------------------------------
#Generated by lconvert.py for cbs job

memory 40 GB

molecule  {
0 1
  O       -0.6874650    -0.1117440    -0.0196250
  H       -1.0461220     0.7759380     0.0127070
  H        0.2740430     0.0258510    -0.0034970
--
0 1
  N        2.1840000     0.1012110     0.0056150
  H        2.4793650    -0.4514270    -0.7891760
  H        2.4940810    -0.4095100     0.8224750
  C        2.8433350     1.4095750    -0.0346260
  H        2.5327930     1.9913000     0.8298890
  H        3.9346450     1.3702800    -0.0435820
  H        2.5166230     1.9454920    -0.9224500
units angstrom
no_reorient
symmetry c1
}

set {
scf_type DF
mp2_type DF
e_convergence 7
reference rhf
}

energy('mp2/aug-cc-pv[tq]z', bsse_type='cp')
--------------------------------------------------------------------------

  Memory set to  37.253 GiB by Python driver.

Scratch directory: /scratch//


   ===> N-Body Interaction Abacus <===
        BSSE Treatment:                     cp
        Number of 1-body computations:     4
        Number of 2-body computations:     1

   ==> N-Body: Now computing 1-body complexes <==


       N-Body: Computing complex (1/4) with fragments (2,) in the basis of fragments (2,).


Scratch directory: /scratch//

  //>>>>>>>>>>>>>>>>>>>>>>>>>>>>>>>>>>>//
  //   CBS Setup: mp2/aug-cc-pv[tq]z   //
  //<<<<<<<<<<<<<<<<<<<<<<<<<<<<<<<<<<<//

    Naive listing of computations required.
             hf / aug-cc-pvqz              for  HF TOTAL ENERGY
            mp2 / aug-cc-pvtz              for  MP2 TOTAL ENERGY
            mp2 / aug-cc-pvqz              for  MP2 TOTAL ENERGY
             hf / aug-cc-pvtz              for  HF TOTAL ENERGY
             hf / aug-cc-pvqz              for  HF TOTAL ENERGY

    Enlightened listing of computations required.
            mp2 / aug-cc-pvtz              for  MP2 TOTAL ENERGY
            mp2 / aug-cc-pvqz              for  MP2 TOTAL ENERGY

    Full listing of computations to be obtained (required and bonus).
             hf / aug-cc-pvtz              for  HF TOTAL ENERGY
            mp2 / aug-cc-pvtz              for  MP2 TOTAL ENERGY
             hf / aug-cc-pvqz              for  HF TOTAL ENERGY
            mp2 / aug-cc-pvqz              for  MP2 TOTAL ENERGY

  //>>>>>>>>>>>>>>>>>>>>>>>>>>>>>>>>>>>>//
  // CBS Computation: MP2 / AUG-CC-PVTZ //
  //<<<<<<<<<<<<<<<<<<<<<<<<<<<<<<<<<<<<//


Scratch directory: /scratch//

*** tstart() called on node83.bme.utexas.edu
*** at Sat Apr 11 16:18:22 2020

   => Loading Basis Set <=

    Name: AUG-CC-PVTZ
    Role: ORBITAL
    Keyword: BASIS
    atoms 1        entry N          line   285 file /home/liuchw/anaconda3/envs/psi4env/share/psi4/basis/aug-cc-pvtz.gbs 
    atoms 2-3, 5-7 entry H          line    40 file /home/liuchw/anaconda3/envs/psi4env/share/psi4/basis/aug-cc-pvtz.gbs 
    atoms 4        entry C          line   239 file /home/liuchw/anaconda3/envs/psi4env/share/psi4/basis/aug-cc-pvtz.gbs 


         ---------------------------------------------------------
                                   SCF
               by Justin Turney, Rob Parrish, Andy Simmonett
                          and Daniel G. A. Smith
                              RHF Reference
                        6 Threads,  38146 MiB Core
         ---------------------------------------------------------

  ==> Geometry <==

    Molecular point group: c1
    Full point group: C1

    Geometry (in Angstrom), charge = 0, multiplicity = 1:

       Center              X                  Y                   Z               Mass       
    ------------   -----------------  -----------------  -----------------  -----------------
         N            0.818217752720    -0.343897834748     0.020805818406    14.003074004430
         H            1.113582752720    -0.896535834748    -0.773985181594     1.007825032230
         H            1.128298752720    -0.854618834748     0.837665818406     1.007825032230
         C            1.477552752720     0.964466165252    -0.019435181594    12.000000000000
         H            1.167010752720     1.546191165252     0.845079818406     1.007825032230
         H            2.568862752720     0.925171165252    -0.028391181594     1.007825032230
         H            1.150840752720     1.500383165252    -0.907259181594     1.007825032230

  Running in c1 symmetry.

  Rotational constants: A =      1.15740  B =      0.28800  C =      0.25018 [cm^-1]
  Rotational constants: A =  34697.99826  B =   8634.00148  C =   7500.14554 [MHz]
  Nuclear repulsion =   42.062673812965933

  Charge       = 0
  Multiplicity = 1
  Electrons    = 18
  Nalpha       = 9
  Nbeta        = 9

  ==> Algorithm <==

  SCF Algorithm Type is DF.
  DIIS enabled.
  MOM disabled.
  Fractional occupation disabled.
  Guess Type is SAD.
  Energy threshold   = 1.00e-07
  Density threshold  = 1.00e-08
  Integral threshold = 0.00e+00

  ==> Primary Basis <==

  Basis Set: AUG-CC-PVTZ
    Blend: AUG-CC-PVTZ
    Number of shells: 73
    Number of basis function: 207
    Number of Cartesian functions: 235
    Spherical Harmonics?: true
    Max angular momentum: 3

   => Loading Basis Set <=

    Name: (AUG-CC-PVTZ AUX)
    Role: JKFIT
    Keyword: DF_BASIS_SCF
    atoms 1        entry N          line   224 file /home/liuchw/anaconda3/envs/psi4env/share/psi4/basis/aug-cc-pvtz-jkfit.gbs 
    atoms 2-3, 5-7 entry H          line    70 file /home/liuchw/anaconda3/envs/psi4env/share/psi4/basis/aug-cc-pvtz-jkfit.gbs 
    atoms 4        entry C          line   162 file /home/liuchw/anaconda3/envs/psi4env/share/psi4/basis/aug-cc-pvtz-jkfit.gbs 

  ==> Pre-Iterations <==

   -------------------------------------------------------
    Irrep   Nso     Nmo     Nalpha   Nbeta   Ndocc  Nsocc
   -------------------------------------------------------
     A        207     207       0       0       0       0
   -------------------------------------------------------
    Total     207     207       9       9       9       0
   -------------------------------------------------------

  ==> Integral Setup <==

  DFHelper Memory: AOs need 0.152 GiB; user supplied 27.940 GiB. Using in-core AOs.

  ==> MemDFJK: Density-Fitted J/K Matrices <==

    J tasked:                   Yes
    K tasked:                   Yes
    wK tasked:                   No
    OpenMP threads:               6
    Memory [MiB]:             28610
    Algorithm:                 Core
    Schwarz Cutoff:           1E-12
    Mask sparsity (%):       0.0000
    Fitting Condition:        1E-10

   => Auxiliary Basis Set <=

  Basis Set: (AUG-CC-PVTZ AUX)
    Blend: AUG-CC-PVTZ-JKFIT
    Number of shells: 130
    Number of basis function: 438
    Number of Cartesian functions: 537
    Spherical Harmonics?: true
    Max angular momentum: 4

  Minimum eigenvalue in the overlap matrix is 3.9995976820E-05.
  Using Symmetric Orthogonalization.

  SCF Guess: Superposition of Atomic Densities via on-the-fly atomic UHF.

  ==> Iterations <==

                           Total Energy        Delta E     RMS |[F,P]|

   @DF-RHF iter SAD:   -94.62096606592515   -9.46210e+01   0.00000e+00 
   @DF-RHF iter   1:   -95.13901215502683   -5.18046e-01   2.27397e-03 DIIS
   @DF-RHF iter   2:   -95.22692112734276   -8.79090e-02   1.23278e-03 DIIS
   @DF-RHF iter   3:   -95.25418214773524   -2.72610e-02   1.74895e-04 DIIS
   @DF-RHF iter   4:   -95.25537759289770   -1.19545e-03   5.12796e-05 DIIS
   @DF-RHF iter   5:   -95.25545648246265   -7.88896e-05   1.23294e-05 DIIS
   @DF-RHF iter   6:   -95.25546260193089   -6.11947e-06   2.48026e-06 DIIS
   @DF-RHF iter   7:   -95.25546299687068   -3.94940e-07   5.63130e-07 DIIS
   @DF-RHF iter   8:   -95.25546301968956   -2.28189e-08   1.34943e-07 DIIS
   @DF-RHF iter   9:   -95.25546302124741   -1.55785e-09   3.24900e-08 DIIS
   @DF-RHF iter  10:   -95.25546302133770   -9.02958e-11   8.12358e-09 DIIS
  Energy and wave function converged.


  ==> Post-Iterations <==

    Orbital Energies [Eh]
    ---------------------

    Doubly Occupied:                                                      

       1A    -15.540025     2A    -11.240269     3A     -1.170371  
       4A     -0.896639     5A     -0.661472     6A     -0.604133  
       7A     -0.555650     8A     -0.517378     9A     -0.393558  

    Virtual:                                                              

      10A      0.029462    11A      0.042842    12A      0.043868  
      13A      0.049193    14A      0.069000    15A      0.098588  
      16A      0.125967    17A      0.127143    18A      0.139876  
      19A      0.141016    20A      0.156623    21A      0.167869  
      22A      0.203562    23A      0.226266    24A      0.237561  
      25A      0.256467    26A      0.273010    27A      0.282858  
      28A      0.288846    29A      0.295723    30A      0.332680  
      31A      0.338053    32A      0.343488    33A      0.345358  
      34A      0.376643    35A      0.389051    36A      0.395865  
      37A      0.402118    38A      0.404983    39A      0.436944  
      40A      0.443403    41A      0.445157    42A      0.454145  
      43A      0.467673    44A      0.489917    45A      0.495425  
      46A      0.500850    47A      0.503545    48A      0.530421  
      49A      0.581422    50A      0.606994    51A      0.613182  
      52A      0.640828    53A      0.653050    54A      0.761484  
      55A      0.796102    56A      0.800850    57A      0.804025  
      58A      0.828323    59A      0.849015    60A      0.864610  
      61A      0.883879    62A      0.906444    63A      0.917481  
      64A      0.937986    65A      0.938596    66A      0.952835  
      67A      0.967848    68A      0.974855    69A      0.975533  
      70A      0.992191    71A      1.011966    72A      1.060647  
      73A      1.068388    74A      1.081249    75A      1.084732  
      76A      1.093311    77A      1.107295    78A      1.111896  
      79A      1.137831    80A      1.155175    81A      1.191198  
      82A      1.200416    83A      1.220910    84A      1.258336  
      85A      1.259611    86A      1.288036    87A      1.292769  
      88A      1.307912    89A      1.342681    90A      1.383067  
      91A      1.413024    92A      1.446384    93A      1.453182  
      94A      1.467593    95A      1.499111    96A      1.604781  
      97A      1.613892    98A      1.646603    99A      1.649328  
     100A      1.667649   101A      1.676805   102A      1.702234  
     103A      1.724903   104A      1.778859   105A      1.834075  
     106A      1.848187   107A      1.931952   108A      1.945032  
     109A      1.999108   110A      2.002989   111A      2.018134  
     112A      2.027731   113A      2.041786   114A      2.076991  
     115A      2.081268   116A      2.198437   117A      2.211555  
     118A      2.226270   119A      2.240560   120A      2.281540  
     121A      2.312926   122A      2.400489   123A      2.435399  
     124A      2.448791   125A      2.482713   126A      2.532533  
     127A      2.559810   128A      2.596141   129A      2.693274  
     130A      2.903393   131A      3.116208   132A      3.369082  
     133A      3.379838   134A      3.412920   135A      3.577644  
     136A      3.600981   137A      3.605688   138A      3.611930  
     139A      3.642852   140A      3.694432   141A      3.750134  
     142A      3.847453   143A      3.874076   144A      3.881431  
     145A      3.915010   146A      3.959141   147A      4.008100  
     148A      4.082023   149A      4.085362   150A      4.106815  
     151A      4.115075   152A      4.152637   153A      4.206890  
     154A      4.214698   155A      4.276739   156A      4.308888  
     157A      4.322211   158A      4.369360   159A      4.417905  
     160A      4.448125   161A      4.478159   162A      4.590401  
     163A      4.599617   164A      4.629255   165A      4.685036  
     166A      4.723599   167A      4.756462   168A      4.796608  
     169A      4.811328   170A      4.889114   171A      4.890599  
     172A      4.987499   173A      4.995199   174A      5.044246  
     175A      5.050802   176A      5.101665   177A      5.120752  
     178A      5.150385   179A      5.198988   180A      5.229898  
     181A      5.242135   182A      5.361619   183A      5.486536  
     184A      5.544701   185A      5.563169   186A      5.579895  
     187A      5.772884   188A      5.805218   189A      5.859261  
     190A      5.910844   191A      5.978378   192A      5.991351  
     193A      6.112339   194A      6.125749   195A      6.174499  
     196A      6.244366   197A      6.411078   198A      6.542718  
     199A      6.559517   200A      6.693951   201A      6.740503  
     202A      6.797988   203A      7.025819   204A      7.074498  
     205A      7.793560   206A     16.832185   207A     18.018838  

    Final Occupation by Irrep:
              A 
    DOCC [     9 ]

  @DF-RHF Final Energy:   -95.25546302133770

   => Energetics <=

    Nuclear Repulsion Energy =             42.0626738129659330
    One-Electron Energy =                -211.4772807984152792
    Two-Electron Energy =                  74.1591439641116494
    Total Energy =                        -95.2554630213377038

Computation Completed


Properties will be evaluated at   0.000000,   0.000000,   0.000000 [a0]

Properties computed using the SCF density matrix

  Nuclear Dipole Moment: [e a0]
     X:    41.0476      Y:    10.5827      Z:     0.0040

  Electronic Dipole Moment: [e a0]
     X:   -40.4829      Y:   -10.6633      Z:    -0.0071

  Dipole Moment: [e a0]
     X:     0.5647      Y:    -0.0806      Z:    -0.0031     Total:     0.5704

  Dipole Moment: [D]
     X:     1.4352      Y:    -0.2050      Z:    -0.0079     Total:     1.4498


*** tstop() called on node83.bme.utexas.edu at Sat Apr 11 16:18:24 2020
Module time:
	user time   =       9.27 seconds =       0.15 minutes
	system time =       0.59 seconds =       0.01 minutes
	total time  =          2 seconds =       0.03 minutes
Total time:
	user time   =       9.27 seconds =       0.15 minutes
	system time =       0.59 seconds =       0.01 minutes
	total time  =          2 seconds =       0.03 minutes

*** tstart() called on node83.bme.utexas.edu
*** at Sat Apr 11 16:18:24 2020


  //>>>>>>>>>>>>>>>>>>>>>>>>>>>>>>>>>>>//
  //               DFMP2               //
  //<<<<<<<<<<<<<<<<<<<<<<<<<<<<<<<<<<<//

   => Loading Basis Set <=

    Name: (AUG-CC-PVTZ AUX)
    Role: RIFIT
    Keyword: DF_BASIS_MP2
    atoms 1        entry N          line   206 file /home/liuchw/anaconda3/envs/psi4env/share/psi4/basis/aug-cc-pvtz-ri.gbs 
    atoms 2-3, 5-7 entry H          line    30 file /home/liuchw/anaconda3/envs/psi4env/share/psi4/basis/aug-cc-pvtz-ri.gbs 
    atoms 4        entry C          line   148 file /home/liuchw/anaconda3/envs/psi4env/share/psi4/basis/aug-cc-pvtz-ri.gbs 

	 --------------------------------------------------------
	                          DF-MP2                         
	      2nd-Order Density-Fitted Moller-Plesset Theory     
	              RMP2 Wavefunction,   6 Threads             
	                                                         
	        Rob Parrish, Justin Turney, Andy Simmonett,      
	           Ed Hohenstein, and C. David Sherrill          
	 --------------------------------------------------------

   => Auxiliary Basis Set <=

  Basis Set: (AUG-CC-PVTZ AUX)
    Blend: AUG-CC-PVTZ-RI
    Number of shells: 126
    Number of basis function: 442
    Number of Cartesian functions: 547
    Spherical Harmonics?: true
    Max angular momentum: 4

	 --------------------------------------------------------
	                 NBF =   207, NAUX =   442
	 --------------------------------------------------------
	   CLASS    FOCC     OCC    AOCC    AVIR     VIR    FVIR
	   PAIRS       0       9       9     198     198       0
	 --------------------------------------------------------

	-----------------------------------------------------------
	 ==================> DF-MP2 Energies <==================== 
	-----------------------------------------------------------
	 Reference Energy          =     -95.2554630213377038 [Eh]
	 Singles Energy            =      -0.0000000000000000 [Eh]
	 Same-Spin Energy          =      -0.0953942419043393 [Eh]
	 Opposite-Spin Energy      =      -0.3516648510279057 [Eh]
	 Correlation Energy        =      -0.4470590929322450 [Eh]
	 Total Energy              =     -95.7025221142699536 [Eh]
	-----------------------------------------------------------
	 ================> DF-SCS-MP2 Energies <================== 
	-----------------------------------------------------------
	 SCS Same-Spin Scale       =       0.3333333333333333 [-]
	 SCS Opposite-Spin Scale   =       1.2000000000000000 [-]
	 SCS Same-Spin Energy      =      -0.0317980806347798 [Eh]
	 SCS Opposite-Spin Energy  =      -0.4219978212334868 [Eh]
	 SCS Correlation Energy    =      -0.4537959018682666 [Eh]
	 SCS Total Energy          =     -95.7092589232059652 [Eh]
	-----------------------------------------------------------


*** tstop() called on node83.bme.utexas.edu at Sat Apr 11 16:18:25 2020
Module time:
	user time   =       5.64 seconds =       0.09 minutes
	system time =       0.38 seconds =       0.01 minutes
	total time  =          1 seconds =       0.02 minutes
Total time:
	user time   =      14.91 seconds =       0.25 minutes
	system time =       0.97 seconds =       0.02 minutes
	total time  =          3 seconds =       0.05 minutes

  //>>>>>>>>>>>>>>>>>>>>>>>>>>>>>>>>>>>>//
  // CBS Computation: MP2 / AUG-CC-PVQZ //
  //<<<<<<<<<<<<<<<<<<<<<<<<<<<<<<<<<<<<//


Scratch directory: /scratch//

*** tstart() called on node83.bme.utexas.edu
*** at Sat Apr 11 16:18:25 2020

   => Loading Basis Set <=

    Name: AUG-CC-PVQZ
    Role: ORBITAL
    Keyword: BASIS
    atoms 1        entry N          line   363 file /home/liuchw/anaconda3/envs/psi4env/share/psi4/basis/aug-cc-pvqz.gbs 
    atoms 2-3, 5-7 entry H          line    40 file /home/liuchw/anaconda3/envs/psi4env/share/psi4/basis/aug-cc-pvqz.gbs 
    atoms 4        entry C          line   303 file /home/liuchw/anaconda3/envs/psi4env/share/psi4/basis/aug-cc-pvqz.gbs 


         ---------------------------------------------------------
                                   SCF
               by Justin Turney, Rob Parrish, Andy Simmonett
                          and Daniel G. A. Smith
                              RHF Reference
                        6 Threads,  38146 MiB Core
         ---------------------------------------------------------

  ==> Geometry <==

    Molecular point group: c1
    Full point group: C1

    Geometry (in Angstrom), charge = 0, multiplicity = 1:

       Center              X                  Y                   Z               Mass       
    ------------   -----------------  -----------------  -----------------  -----------------
         N            0.818217752720    -0.343897834748     0.020805818406    14.003074004430
         H            1.113582752720    -0.896535834748    -0.773985181594     1.007825032230
         H            1.128298752720    -0.854618834748     0.837665818406     1.007825032230
         C            1.477552752720     0.964466165252    -0.019435181594    12.000000000000
         H            1.167010752720     1.546191165252     0.845079818406     1.007825032230
         H            2.568862752720     0.925171165252    -0.028391181594     1.007825032230
         H            1.150840752720     1.500383165252    -0.907259181594     1.007825032230

  Running in c1 symmetry.

  Rotational constants: A =      1.15740  B =      0.28800  C =      0.25018 [cm^-1]
  Rotational constants: A =  34697.99826  B =   8634.00148  C =   7500.14554 [MHz]
  Nuclear repulsion =   42.062673812965933

  Charge       = 0
  Multiplicity = 1
  Electrons    = 18
  Nalpha       = 9
  Nbeta        = 9

  ==> Algorithm <==

  SCF Algorithm Type is DF.
  DIIS enabled.
  MOM disabled.
  Fractional occupation disabled.
  Guess Type is SAD.
  Energy threshold   = 1.00e-07
  Density threshold  = 1.00e-08
  Integral threshold = 0.00e+00

  ==> Primary Basis <==

  Basis Set: AUG-CC-PVQZ
    Blend: AUG-CC-PVQZ
    Number of shells: 110
    Number of basis function: 390
    Number of Cartesian functions: 485
    Spherical Harmonics?: true
    Max angular momentum: 4

   => Loading Basis Set <=

    Name: (AUG-CC-PVQZ AUX)
    Role: JKFIT
    Keyword: DF_BASIS_SCF
    atoms 1        entry N          line   248 file /home/liuchw/anaconda3/envs/psi4env/share/psi4/basis/aug-cc-pvqz-jkfit.gbs 
    atoms 2-3, 5-7 entry H          line    70 file /home/liuchw/anaconda3/envs/psi4env/share/psi4/basis/aug-cc-pvqz-jkfit.gbs 
    atoms 4        entry C          line   178 file /home/liuchw/anaconda3/envs/psi4env/share/psi4/basis/aug-cc-pvqz-jkfit.gbs 

  ==> Pre-Iterations <==

   -------------------------------------------------------
    Irrep   Nso     Nmo     Nalpha   Nbeta   Ndocc  Nsocc
   -------------------------------------------------------
     A        390     390       0       0       0       0
   -------------------------------------------------------
    Total     390     390       9       9       9       0
   -------------------------------------------------------

  ==> Integral Setup <==

  DFHelper Memory: AOs need 0.799 GiB; user supplied 27.940 GiB. Using in-core AOs.

  ==> MemDFJK: Density-Fitted J/K Matrices <==

    J tasked:                   Yes
    K tasked:                   Yes
    wK tasked:                   No
    OpenMP threads:               6
    Memory [MiB]:             28610
    Algorithm:                 Core
    Schwarz Cutoff:           1E-12
    Mask sparsity (%):       0.1499
    Fitting Condition:        1E-10

   => Auxiliary Basis Set <=

  Basis Set: (AUG-CC-PVQZ AUX)
    Blend: AUG-CC-PVQZ-JKFIT
    Number of shells: 158
    Number of basis function: 664
    Number of Cartesian functions: 901
    Spherical Harmonics?: true
    Max angular momentum: 5

  Minimum eigenvalue in the overlap matrix is 1.0737141917E-05.
  Using Symmetric Orthogonalization.

  SCF Guess: Superposition of Atomic Densities via on-the-fly atomic UHF.

  ==> Iterations <==

                           Total Energy        Delta E     RMS |[F,P]|

   @DF-RHF iter SAD:   -94.62693418623704   -9.46269e+01   0.00000e+00 
   @DF-RHF iter   1:   -95.14466141631095   -5.17727e-01   1.20964e-03 DIIS
   @DF-RHF iter   2:   -95.23275591566650   -8.80945e-02   6.56673e-04 DIIS
   @DF-RHF iter   3:   -95.26015537467509   -2.73995e-02   9.36666e-05 DIIS
   @DF-RHF iter   4:   -95.26135843328659   -1.20306e-03   2.73296e-05 DIIS
   @DF-RHF iter   5:   -95.26143930064090   -8.08674e-05   6.72503e-06 DIIS
   @DF-RHF iter   6:   -95.26144555651385   -6.25587e-06   1.37919e-06 DIIS
   @DF-RHF iter   7:   -95.26144598144967   -4.24936e-07   3.12822e-07 DIIS
   @DF-RHF iter   8:   -95.26144600557342   -2.41238e-08   7.61765e-08 DIIS
   @DF-RHF iter   9:   -95.26144600726663   -1.69321e-09   1.80422e-08 DIIS
   @DF-RHF iter  10:   -95.26144600736257   -9.59375e-11   4.48630e-09 DIIS
  Energy and wave function converged.


  ==> Post-Iterations <==

    Orbital Energies [Eh]
    ---------------------

    Doubly Occupied:                                                      

       1A    -15.538222     2A    -11.239300     3A     -1.170010  
       4A     -0.896541     5A     -0.661569     6A     -0.604263  
       7A     -0.555786     8A     -0.517557     9A     -0.393803  

    Virtual:                                                              

      10A      0.026108    11A      0.038616    12A      0.039452  
      13A      0.044396    14A      0.062587    15A      0.086258  
      16A      0.106510    17A      0.107095    18A      0.118857  
      19A      0.121054    20A      0.136240    21A      0.144522  
      22A      0.171695    23A      0.193890    24A      0.202239  
      25A      0.214220    26A      0.226853    27A      0.233495  
      28A      0.239704    29A      0.247619    30A      0.267765  
      31A      0.274047    32A      0.278402    33A      0.280446  
      34A      0.311737    35A      0.320297    36A      0.325562  
      37A      0.326266    38A      0.331061    39A      0.348194  
      40A      0.354568    41A      0.358707    42A      0.379495  
      43A      0.380045    44A      0.391672    45A      0.392434  
      46A      0.407557    47A      0.414295    48A      0.431416  
      49A      0.449608    50A      0.466575    51A      0.502312  
      52A      0.517135    53A      0.520719    54A      0.573446  
      55A      0.580565    56A      0.598639    57A      0.615848  
      58A      0.630572    59A      0.655797    60A      0.674542  
      61A      0.695332    62A      0.704813    63A      0.707039  
      64A      0.711979    65A      0.725226    66A      0.733170  
      67A      0.734505    68A      0.752329    69A      0.752479  
      70A      0.766117    71A      0.785548    72A      0.790548  
      73A      0.798508    74A      0.805314    75A      0.807797  
      76A      0.807893    77A      0.830385    78A      0.833067  
      79A      0.851357    80A      0.862204    81A      0.869574  
      82A      0.891026    83A      0.910451    84A      0.923813  
      85A      0.955815    86A      0.960219    87A      0.983028  
      88A      0.989104    89A      0.996072    90A      1.004945  
      91A      1.013323    92A      1.025546    93A      1.050894  
      94A      1.120368    95A      1.131051    96A      1.156228  
      97A      1.165549    98A      1.185201    99A      1.199840  
     100A      1.201348   101A      1.225430   102A      1.263211  
     103A      1.290029   104A      1.340077   105A      1.362246  
     106A      1.371621   107A      1.389046   108A      1.390190  
     109A      1.459207   110A      1.469057   111A      1.474697  
     112A      1.494301   113A      1.529172   114A      1.529541  
     115A      1.533392   116A      1.535440   117A      1.548897  
     118A      1.584906   119A      1.585380   120A      1.593915  
     121A      1.646100   122A      1.649859   123A      1.689874  
     124A      1.700221   125A      1.707384   126A      1.755381  
     127A      1.771928   128A      1.781802   129A      1.800438  
     130A      1.837997   131A      1.844159   132A      1.850490  
     133A      1.872314   134A      1.888926   135A      1.896960  
     136A      1.933370   137A      1.939639   138A      1.953154  
     139A      1.958259   140A      1.980968   141A      1.997150  
     142A      2.007092   143A      2.017359   144A      2.040834  
     145A      2.042333   146A      2.057556   147A      2.078489  
     148A      2.084632   149A      2.108060   150A      2.131288  
     151A      2.144225   152A      2.165920   153A      2.172818  
     154A      2.193068   155A      2.209176   156A      2.209814  
     157A      2.221552   158A      2.249338   159A      2.256459  
     160A      2.263776   161A      2.293995   162A      2.313647  
     163A      2.318774   164A      2.345443   165A      2.382945  
     166A      2.426641   167A      2.438249   168A      2.478759  
     169A      2.508663   170A      2.527001   171A      2.558452  
     172A      2.583505   173A      2.624243   174A      2.627036  
     175A      2.685278   176A      2.725700   177A      2.745606  
     178A      2.757310   179A      2.800883   180A      2.802806  
     181A      2.825767   182A      2.829072   183A      2.855922  
     184A      2.875390   185A      2.905023   186A      2.911835  
     187A      2.954977   188A      2.999131   189A      3.018141  
     190A      3.057957   191A      3.068379   192A      3.111610  
     193A      3.120363   194A      3.140868   195A      3.155678  
     196A      3.178720   197A      3.207254   198A      3.224537  
     199A      3.239868   200A      3.245909   201A      3.249925  
     202A      3.337271   203A      3.371911   204A      3.421555  
     205A      3.425998   206A      3.476457   207A      3.491976  
     208A      3.557073   209A      3.573754   210A      3.594879  
     211A      3.627312   212A      3.737093   213A      3.738393  
     214A      3.765016   215A      3.774711   216A      3.794058  
     217A      3.813602   218A      3.839400   219A      3.922404  
     220A      3.948781   221A      4.002483   222A      4.009403  
     223A      4.051302   224A      4.070323   225A      4.109187  
     226A      4.112321   227A      4.136391   228A      4.158484  
     229A      4.198323   230A      4.211691   231A      4.242773  
     232A      4.278419   233A      4.286766   234A      4.356973  
     235A      4.449204   236A      4.457835   237A      4.458519  
     238A      4.496646   239A      4.501980   240A      4.580549  
     241A      4.595179   242A      4.630406   243A      4.636767  
     244A      4.671130   245A      4.770340   246A      4.788199  
     247A      4.831350   248A      4.853480   249A      4.858222  
     250A      4.989225   251A      5.079791   252A      5.088740  
     253A      5.143493   254A      5.219623   255A      5.295028  
     256A      5.359190   257A      5.405880   258A      5.433793  
     259A      5.598565   260A      5.652949   261A      6.192220  
     262A      6.241734   263A      6.293388   264A      6.455957  
     265A      6.460700   266A      6.499198   267A      6.708433  
     268A      6.743320   269A      6.750951   270A      6.804072  
     271A      6.826287   272A      6.885692   273A      6.929513  
     274A      6.956445   275A      6.962381   276A      6.984686  
     277A      6.997741   278A      7.009739   279A      7.012518  
     280A      7.110109   281A      7.156661   282A      7.160839  
     283A      7.220374   284A      7.252209   285A      7.337281  
     286A      7.367681   287A      7.419283   288A      7.462815  
     289A      7.471660   290A      7.533133   291A      7.604900  
     292A      7.677744   293A      7.690896   294A      7.710241  
     295A      7.729300   296A      7.762303   297A      7.765232  
     298A      7.832031   299A      7.885159   300A      7.950178  
     301A      7.974133   302A      7.997914   303A      8.017272  
     304A      8.087304   305A      8.089211   306A      8.146159  
     307A      8.157157   308A      8.284234   309A      8.388215  
     310A      8.405692   311A      8.456641   312A      8.497368  
     313A      8.524398   314A      8.565008   315A      8.592567  
     316A      8.671302   317A      8.690551   318A      8.699655  
     319A      8.710223   320A      8.741046   321A      8.818715  
     322A      8.821100   323A      8.941748   324A      8.978007  
     325A      8.978571   326A      9.057482   327A      9.081883  
     328A      9.104489   329A      9.129971   330A      9.203348  
     331A      9.248965   332A      9.271966   333A      9.276429  
     334A      9.316265   335A      9.362747   336A      9.392027  
     337A      9.423142   338A      9.448015   339A      9.458445  
     340A      9.557112   341A      9.616140   342A      9.637579  
     343A      9.658902   344A      9.710381   345A      9.744450  
     346A      9.809229   347A      9.868022   348A      9.872303  
     349A      9.953737   350A      9.997331   351A     10.067136  
     352A     10.092236   353A     10.132279   354A     10.140173  
     355A     10.186848   356A     10.216178   357A     10.231417  
     358A     10.375245   359A     10.476266   360A     10.480616  
     361A     10.523727   362A     10.589637   363A     10.615514  
     364A     10.695458   365A     10.751137   366A     10.772014  
     367A     10.917197   368A     10.920552   369A     10.980122  
     370A     11.044435   371A     11.195388   372A     11.249973  
     373A     11.294788   374A     11.466099   375A     11.492103  
     376A     11.558319   377A     11.579914   378A     12.200532  
     379A     12.346999   380A     12.411507   381A     12.631110  
     382A     12.657081   383A     13.222794   384A     13.256205  
     385A     13.347833   386A     13.641579   387A     14.983074  
     388A     15.211942   389A     29.125642   390A     36.314504  

    Final Occupation by Irrep:
              A 
    DOCC [     9 ]

  @DF-RHF Final Energy:   -95.26144600736257

   => Energetics <=

    Nuclear Repulsion Energy =             42.0626738129659330
    One-Electron Energy =                -211.4941329064403419
    Two-Electron Energy =                  74.1700130861118510
    Total Energy =                        -95.2614460073625651

Computation Completed


Properties will be evaluated at   0.000000,   0.000000,   0.000000 [a0]

Properties computed using the SCF density matrix

  Nuclear Dipole Moment: [e a0]
     X:    41.0476      Y:    10.5827      Z:     0.0040

  Electronic Dipole Moment: [e a0]
     X:   -40.4831      Y:   -10.6630      Z:    -0.0071

  Dipole Moment: [e a0]
     X:     0.5645      Y:    -0.0804      Z:    -0.0031     Total:     0.5702

  Dipole Moment: [D]
     X:     1.4348      Y:    -0.2043      Z:    -0.0079     Total:     1.4493


*** tstop() called on node83.bme.utexas.edu at Sat Apr 11 16:18:30 2020
Module time:
	user time   =      23.99 seconds =       0.40 minutes
	system time =       0.90 seconds =       0.02 minutes
	total time  =          5 seconds =       0.08 minutes
Total time:
	user time   =      38.98 seconds =       0.65 minutes
	system time =       1.88 seconds =       0.03 minutes
	total time  =          8 seconds =       0.13 minutes

*** tstart() called on node83.bme.utexas.edu
*** at Sat Apr 11 16:18:30 2020


  //>>>>>>>>>>>>>>>>>>>>>>>>>>>>>>>>>>>//
  //               DFMP2               //
  //<<<<<<<<<<<<<<<<<<<<<<<<<<<<<<<<<<<//

   => Loading Basis Set <=

    Name: (AUG-CC-PVQZ AUX)
    Role: RIFIT
    Keyword: DF_BASIS_MP2
    atoms 1        entry N          line   258 file /home/liuchw/anaconda3/envs/psi4env/share/psi4/basis/aug-cc-pvqz-ri.gbs 
    atoms 2-3, 5-7 entry H          line    30 file /home/liuchw/anaconda3/envs/psi4env/share/psi4/basis/aug-cc-pvqz-ri.gbs 
    atoms 4        entry C          line   184 file /home/liuchw/anaconda3/envs/psi4env/share/psi4/basis/aug-cc-pvqz-ri.gbs 

	 --------------------------------------------------------
	                          DF-MP2                         
	      2nd-Order Density-Fitted Moller-Plesset Theory     
	              RMP2 Wavefunction,   6 Threads             
	                                                         
	        Rob Parrish, Justin Turney, Andy Simmonett,      
	           Ed Hohenstein, and C. David Sherrill          
	 --------------------------------------------------------

   => Auxiliary Basis Set <=

  Basis Set: (AUG-CC-PVQZ AUX)
    Blend: AUG-CC-PVQZ-RI
    Number of shells: 172
    Number of basis function: 736
    Number of Cartesian functions: 999
    Spherical Harmonics?: true
    Max angular momentum: 5

	 --------------------------------------------------------
	                 NBF =   390, NAUX =   736
	 --------------------------------------------------------
	   CLASS    FOCC     OCC    AOCC    AVIR     VIR    FVIR
	   PAIRS       0       9       9     381     381       0
	 --------------------------------------------------------

	-----------------------------------------------------------
	 ==================> DF-MP2 Energies <==================== 
	-----------------------------------------------------------
	 Reference Energy          =     -95.2614460073625651 [Eh]
	 Singles Energy            =      -0.0000000000000000 [Eh]
	 Same-Spin Energy          =      -0.1011262541950837 [Eh]
	 Opposite-Spin Energy      =      -0.3925107606172171 [Eh]
	 Correlation Energy        =      -0.4936370148123008 [Eh]
	 Total Energy              =     -95.7550830221748726 [Eh]
	-----------------------------------------------------------
	 ================> DF-SCS-MP2 Energies <================== 
	-----------------------------------------------------------
	 SCS Same-Spin Scale       =       0.3333333333333333 [-]
	 SCS Opposite-Spin Scale   =       1.2000000000000000 [-]
	 SCS Same-Spin Energy      =      -0.0337087513983612 [Eh]
	 SCS Opposite-Spin Energy  =      -0.4710129127406605 [Eh]
	 SCS Correlation Energy    =      -0.5047216641390218 [Eh]
	 SCS Total Energy          =     -95.7661676715015915 [Eh]
	-----------------------------------------------------------


*** tstop() called on node83.bme.utexas.edu at Sat Apr 11 16:18:33 2020
Module time:
	user time   =      11.03 seconds =       0.18 minutes
	system time =       0.39 seconds =       0.01 minutes
	total time  =          3 seconds =       0.05 minutes
Total time:
	user time   =      50.02 seconds =       0.83 minutes
	system time =       2.27 seconds =       0.04 minutes
	total time  =         11 seconds =       0.18 minutes

  //>>>>>>>>>>>>>>>>>>>>>>>>>>>>>>>>>>>//
  //  CBS Results: mp2/aug-cc-pv[tq]z  //
  //<<<<<<<<<<<<<<<<<<<<<<<<<<<<<<<<<<<//


   ==> HF <==

   HI-zeta (4) Energy:               -95.261446007363


   ==> Helgaker 2-point correlated extrapolation for method: MP2 <==

   LO-zeta (3) Energy:               -95.702522114270
   HI-zeta (4) Energy:               -95.755083022175
   Alpha (exponent) Value:             3.000000000000
   Extrapolated Energy:              -95.793438279295

   @Extrapolated MP2/(T,Q):          -95.793438279295



   ==> Helgaker 2-point correlated extrapolation for method: HF <==

   LO-zeta (3) Energy:               -95.255463021338
   HI-zeta (4) Energy:               -95.261446007363
   Alpha (exponent) Value:             3.000000000000
   Extrapolated Energy:              -95.265811970137

   @Extrapolated HF/(T,Q):           -95.265811970137


   ==> Components <==

  ---------------------------------------------------------------------------------------------------------
                          Method / Basis                      Rqd      Energy [Eh]   Variable
  ---------------------------------------------------------------------------------------------------------
                              hf / aug-cc-pvtz                  *     -95.25546302   HF TOTAL ENERGY
                             mp2 / aug-cc-pvtz                  *     -95.70252211   MP2 TOTAL ENERGY
                              hf / aug-cc-pvqz                  *     -95.26144601   HF TOTAL ENERGY
                             mp2 / aug-cc-pvqz                  *     -95.75508302   MP2 TOTAL ENERGY
  ---------------------------------------------------------------------------------------------------------

   ==> Stages <==

  ---------------------------------------------------------------------------------------------------------
      Stage               Method / Basis                       Wt      Energy [Eh]   Scheme
  ---------------------------------------------------------------------------------------------------------
        scf                   hf / aug-cc-pvqz                  1     -95.26144601   xtpl_highest_1
       corl                  mp2 / aug-cc-pv[tq]z               1     -95.79343828   corl_xtpl_helgaker_2
       corl                   hf / aug-cc-pv[tq]z              -1     -95.26581197   corl_xtpl_helgaker_2
  ---------------------------------------------------------------------------------------------------------

   ==> CBS <==

  ---------------------------------------------------------------------------------------------------------
      Stage               Method / Basis                               Energy [Eh]   Scheme
  ---------------------------------------------------------------------------------------------------------
        scf                   hf / aug-cc-pvqz                        -95.26144601   xtpl_highest_1
       corl                  mp2 / aug-cc-pv[tq]z                      -0.52762631   corl_xtpl_helgaker_2
      total                  CBS                                      -95.78907232   
  ---------------------------------------------------------------------------------------------------------
   => Loading Basis Set <=

    Name: DEF2-SVP
    Role: ORBITAL
    Keyword: BASIS
    atoms 1        entry N          line   110 file /home/liuchw/anaconda3/envs/psi4env/share/psi4/basis/def2-svp.gbs 
    atoms 2-3, 5-7 entry H          line    15 file /home/liuchw/anaconda3/envs/psi4env/share/psi4/basis/def2-svp.gbs 
    atoms 4        entry C          line    90 file /home/liuchw/anaconda3/envs/psi4env/share/psi4/basis/def2-svp.gbs 


       N-Body: Complex Energy (fragments = (2,), basis = (2,):   -95.78907231651976)

       N-Body: Computing complex (2/4) with fragments (2,) in the basis of fragments (1, 2).


Scratch directory: /scratch//

  //>>>>>>>>>>>>>>>>>>>>>>>>>>>>>>>>>>>//
  //   CBS Setup: mp2/aug-cc-pv[tq]z   //
  //<<<<<<<<<<<<<<<<<<<<<<<<<<<<<<<<<<<//

    Naive listing of computations required.
             hf / aug-cc-pvqz              for  HF TOTAL ENERGY
            mp2 / aug-cc-pvtz              for  MP2 TOTAL ENERGY
            mp2 / aug-cc-pvqz              for  MP2 TOTAL ENERGY
             hf / aug-cc-pvtz              for  HF TOTAL ENERGY
             hf / aug-cc-pvqz              for  HF TOTAL ENERGY

    Enlightened listing of computations required.
            mp2 / aug-cc-pvtz              for  MP2 TOTAL ENERGY
            mp2 / aug-cc-pvqz              for  MP2 TOTAL ENERGY

    Full listing of computations to be obtained (required and bonus).
             hf / aug-cc-pvtz              for  HF TOTAL ENERGY
            mp2 / aug-cc-pvtz              for  MP2 TOTAL ENERGY
             hf / aug-cc-pvqz              for  HF TOTAL ENERGY
            mp2 / aug-cc-pvqz              for  MP2 TOTAL ENERGY

  //>>>>>>>>>>>>>>>>>>>>>>>>>>>>>>>>>>>>//
  // CBS Computation: MP2 / AUG-CC-PVTZ //
  //<<<<<<<<<<<<<<<<<<<<<<<<<<<<<<<<<<<<//


Scratch directory: /scratch//

*** tstart() called on node83.bme.utexas.edu
*** at Sat Apr 11 16:18:33 2020

   => Loading Basis Set <=

    Name: AUG-CC-PVTZ
    Role: ORBITAL
    Keyword: BASIS
    atoms 1              entry O          line   331 file /home/liuchw/anaconda3/envs/psi4env/share/psi4/basis/aug-cc-pvtz.gbs 
    atoms 2-3, 5-6, 8-10 entry H          line    40 file /home/liuchw/anaconda3/envs/psi4env/share/psi4/basis/aug-cc-pvtz.gbs 
    atoms 4              entry N          line   285 file /home/liuchw/anaconda3/envs/psi4env/share/psi4/basis/aug-cc-pvtz.gbs 
    atoms 7              entry C          line   239 file /home/liuchw/anaconda3/envs/psi4env/share/psi4/basis/aug-cc-pvtz.gbs 


         ---------------------------------------------------------
                                   SCF
               by Justin Turney, Rob Parrish, Andy Simmonett
                          and Daniel G. A. Smith
                              RHF Reference
                        6 Threads,  38146 MiB Core
         ---------------------------------------------------------

  ==> Geometry <==

    Molecular point group: c1
    Full point group: C1

    Geometry (in Angstrom), charge = 0, multiplicity = 1:

       Center              X                  Y                   Z               Mass       
    ------------   -----------------  -----------------  -----------------  -----------------
      Gh(O)          -2.053247247280    -0.556852834748    -0.004434181594    15.994914619570
      Gh(H)          -2.411904247280     0.330829165252     0.027897818406     1.007825032230
      Gh(H)          -1.091739247280    -0.419257834748     0.011693818406     1.007825032230
         N            0.818217752720    -0.343897834748     0.020805818406    14.003074004430
         H            1.113582752720    -0.896535834748    -0.773985181594     1.007825032230
         H            1.128298752720    -0.854618834748     0.837665818406     1.007825032230
         C            1.477552752720     0.964466165252    -0.019435181594    12.000000000000
         H            1.167010752720     1.546191165252     0.845079818406     1.007825032230
         H            2.568862752720     0.925171165252    -0.028391181594     1.007825032230
         H            1.150840752720     1.500383165252    -0.907259181594     1.007825032230

  Running in c1 symmetry.

  Rotational constants: A =      1.01253  B =      0.12377  C =      0.11458 [cm^-1]
  Rotational constants: A =  30354.83334  B =   3710.62378  C =   3435.08252 [MHz]
  Nuclear repulsion =   42.062673812965933

  Charge       = 0
  Multiplicity = 1
  Electrons    = 18
  Nalpha       = 9
  Nbeta        = 9

  ==> Algorithm <==

  SCF Algorithm Type is DF.
  DIIS enabled.
  MOM disabled.
  Fractional occupation disabled.
  Guess Type is SAD.
  Energy threshold   = 1.00e-07
  Density threshold  = 1.00e-08
  Integral threshold = 0.00e+00

  ==> Primary Basis <==

  Basis Set: AUG-CC-PVTZ
    Blend: AUG-CC-PVTZ
    Number of shells: 105
    Number of basis function: 299
    Number of Cartesian functions: 340
    Spherical Harmonics?: true
    Max angular momentum: 3

   => Loading Basis Set <=

    Name: (AUG-CC-PVTZ AUX)
    Role: JKFIT
    Keyword: DF_BASIS_SCF
    atoms 1              entry O          line   286 file /home/liuchw/anaconda3/envs/psi4env/share/psi4/basis/aug-cc-pvtz-jkfit.gbs 
    atoms 2-3, 5-6, 8-10 entry H          line    70 file /home/liuchw/anaconda3/envs/psi4env/share/psi4/basis/aug-cc-pvtz-jkfit.gbs 
    atoms 4              entry N          line   224 file /home/liuchw/anaconda3/envs/psi4env/share/psi4/basis/aug-cc-pvtz-jkfit.gbs 
    atoms 7              entry C          line   162 file /home/liuchw/anaconda3/envs/psi4env/share/psi4/basis/aug-cc-pvtz-jkfit.gbs 

  ==> Pre-Iterations <==

   -------------------------------------------------------
    Irrep   Nso     Nmo     Nalpha   Nbeta   Ndocc  Nsocc
   -------------------------------------------------------
     A        299     299       0       0       0       0
   -------------------------------------------------------
    Total     299     299       9       9       9       0
   -------------------------------------------------------

  ==> Integral Setup <==

  DFHelper Memory: AOs need 0.439 GiB; user supplied 27.940 GiB. Using in-core AOs.

  ==> MemDFJK: Density-Fitted J/K Matrices <==

    J tasked:                   Yes
    K tasked:                   Yes
    wK tasked:                   No
    OpenMP threads:               6
    Memory [MiB]:             28610
    Algorithm:                 Core
    Schwarz Cutoff:           1E-12
    Mask sparsity (%):       2.0581
    Fitting Condition:        1E-10

   => Auxiliary Basis Set <=

  Basis Set: (AUG-CC-PVTZ AUX)
    Blend: AUG-CC-PVTZ-JKFIT
    Number of shells: 188
    Number of basis function: 634
    Number of Cartesian functions: 778
    Spherical Harmonics?: true
    Max angular momentum: 4

  Minimum eigenvalue in the overlap matrix is 3.2889681888E-05.
  Using Symmetric Orthogonalization.

  SCF Guess: Superposition of Atomic Densities via on-the-fly atomic UHF.

  ==> Iterations <==

                           Total Energy        Delta E     RMS |[F,P]|

   @DF-RHF iter SAD:   -94.62096641930241   -9.46210e+01   0.00000e+00 
   @DF-RHF iter   1:   -95.13904402039839   -5.18078e-01   1.57443e-03 DIIS
   @DF-RHF iter   2:   -95.22696711899988   -8.79231e-02   8.53590e-04 DIIS
   @DF-RHF iter   3:   -95.25423566954606   -2.72686e-02   1.21103e-04 DIIS
   @DF-RHF iter   4:   -95.25543132032178   -1.19565e-03   3.55020e-05 DIIS
   @DF-RHF iter   5:   -95.25551026477291   -7.89445e-05   8.54256e-06 DIIS
   @DF-RHF iter   6:   -95.25551639194427   -6.12717e-06   1.72005e-06 DIIS
   @DF-RHF iter   7:   -95.25551678846679   -3.96523e-07   3.90847e-07 DIIS
   @DF-RHF iter   8:   -95.25551681142049   -2.29537e-08   9.36104e-08 DIIS
   @DF-RHF iter   9:   -95.25551681298357   -1.56308e-09   2.25302e-08 DIIS
   @DF-RHF iter  10:   -95.25551681307415   -9.05800e-11   5.63593e-09 DIIS
  Energy and wave function converged.


  ==> Post-Iterations <==

    Orbital Energies [Eh]
    ---------------------

    Doubly Occupied:                                                      

       1A    -15.540002     2A    -11.240276     3A     -1.170371  
       4A     -0.896638     5A     -0.661466     6A     -0.604133  
       7A     -0.555647     8A     -0.517374     9A     -0.393566  

    Virtual:                                                              

      10A      0.028319    11A      0.041561    12A      0.042272  
      13A      0.043545    14A      0.062190    15A      0.068486  
      16A      0.074781    17A      0.101771    18A      0.122452  
      19A      0.127864    20A      0.139053    21A      0.148540  
      22A      0.149264    23A      0.159087    24A      0.175822  
      25A      0.183518    26A      0.185280    27A      0.207142  
      28A      0.223781    29A      0.226297    30A      0.260544  
      31A      0.263012    32A      0.280676    33A      0.285492  
      34A      0.291385    35A      0.307316    36A      0.319885  
      37A      0.325594    38A      0.343688    39A      0.349856  
      40A      0.364956    41A      0.370198    42A      0.383840  
      43A      0.386720    44A      0.394122    45A      0.396956  
      46A      0.402251    47A      0.405690    48A      0.418596  
      49A      0.426867    50A      0.447484    51A      0.449438  
      52A      0.467293    53A      0.476503    54A      0.482867  
      55A      0.484778    56A      0.502185    57A      0.504206  
      58A      0.516189    59A      0.532812    60A      0.534291  
      61A      0.558087    62A      0.568359    63A      0.592752  
      64A      0.645350    65A      0.646222    66A      0.670503  
      67A      0.705315    68A      0.766219    69A      0.782923  
      70A      0.793617    71A      0.800208    72A      0.805016  
      73A      0.813634    74A      0.817244    75A      0.828220  
      76A      0.841363    77A      0.848020    78A      0.859597  
      79A      0.882749    80A      0.910036    81A      0.914047  
      82A      0.915610    83A      0.925516    84A      0.936829  
      85A      0.940907    86A      0.947082    87A      0.962886  
      88A      0.963946    89A      0.984798    90A      1.006851  
      91A      1.009362    92A      1.012933    93A      1.020326  
      94A      1.022645    95A      1.051259    96A      1.054095  
      97A      1.085422    98A      1.089625    99A      1.099995  
     100A      1.112282   101A      1.118352   102A      1.132882  
     103A      1.146784   104A      1.153788   105A      1.164883  
     106A      1.183373   107A      1.211156   108A      1.218906  
     109A      1.230208   110A      1.253578   111A      1.280161  
     112A      1.289022   113A      1.313931   114A      1.324139  
     115A      1.338634   116A      1.343272   117A      1.359432  
     118A      1.399846   119A      1.413939   120A      1.454914  
     121A      1.466302   122A      1.489907   123A      1.531633  
     124A      1.558969   125A      1.565213   126A      1.574834  
     127A      1.614877   128A      1.619709   129A      1.649281  
     130A      1.650467   131A      1.662633   132A      1.674470  
     133A      1.688529   134A      1.711141   135A      1.722603  
     136A      1.766776   137A      1.775953   138A      1.783960  
     139A      1.821732   140A      1.841185   141A      1.861474  
     142A      1.863324   143A      1.905309   144A      1.909573  
     145A      1.940528   146A      1.964854   147A      1.986393  
     148A      2.030039   149A      2.052860   150A      2.062033  
     151A      2.071435   152A      2.094538   153A      2.108547  
     154A      2.131422   155A      2.175016   156A      2.229739  
     157A      2.243656   158A      2.279128   159A      2.283501  
     160A      2.323022   161A      2.360074   162A      2.407439  
     163A      2.477448   164A      2.492484   165A      2.505027  
     166A      2.524410   167A      2.542847   168A      2.561537  
     169A      2.567866   170A      2.592441   171A      2.606473  
     172A      2.677450   173A      2.707821   174A      2.732759  
     175A      2.751972   176A      2.829208   177A      2.836869  
     178A      2.893708   179A      3.057271   180A      3.125353  
     181A      3.199760   182A      3.244649   183A      3.284409  
     184A      3.386429   185A      3.395814   186A      3.431228  
     187A      3.537127   188A      3.554505   189A      3.566060  
     190A      3.622190   191A      3.626111   192A      3.648416  
     193A      3.681013   194A      3.683129   195A      3.763031  
     196A      3.793291   197A      3.803643   198A      3.865672  
     199A      3.927781   200A      3.943516   201A      3.953220  
     202A      3.987521   203A      4.028884   204A      4.091610  
     205A      4.106827   206A      4.131237   207A      4.154958  
     208A      4.188861   209A      4.230833   210A      4.260727  
     211A      4.303226   212A      4.318066   213A      4.364083  
     214A      4.388071   215A      4.419118   216A      4.476553  
     217A      4.486663   218A      4.499776   219A      4.536410  
     220A      4.557679   221A      4.596561   222A      4.651044  
     223A      4.660121   224A      4.671502   225A      4.707030  
     226A      4.781551   227A      4.789585   228A      4.803457  
     229A      4.808587   230A      4.831744   231A      4.860845  
     232A      4.902896   233A      4.904662   234A      4.939106  
     235A      4.970375   236A      4.980741   237A      5.042245  
     238A      5.046833   239A      5.084092   240A      5.087587  
     241A      5.138492   242A      5.147924   243A      5.211027  
     244A      5.221041   245A      5.231713   246A      5.311056  
     247A      5.375270   248A      5.404457   249A      5.460231  
     250A      5.550478   251A      5.551470   252A      5.602521  
     253A      5.644727   254A      5.676758   255A      5.702503  
     256A      5.761583   257A      5.764808   258A      5.836871  
     259A      5.881228   260A      5.941813   261A      5.998317  
     262A      6.019176   263A      6.067423   264A      6.115955  
     265A      6.149273   266A      6.196255   267A      6.278865  
     268A      6.349438   269A      6.466594   270A      6.566841  
     271A      6.609241   272A      6.660336   273A      6.739990  
     274A      6.749273   275A      6.793680   276A      6.930681  
     277A      7.054390   278A      7.169421   279A      7.218180  
     280A      7.770374   281A      7.896159   282A      7.912586  
     283A      8.106522   284A      8.277036   285A      8.356059  
     286A      8.889128   287A      9.094742   288A      9.762003  
     289A      9.895365   290A     10.145996   291A     10.464950  
     292A     11.311154   293A     11.860646   294A     12.293964  
     295A     13.670267   296A     14.024448   297A     17.356849  
     298A     18.337344   299A     67.145135  

    Final Occupation by Irrep:
              A 
    DOCC [     9 ]

  @DF-RHF Final Energy:   -95.25551681307415

   => Energetics <=

    Nuclear Repulsion Energy =             42.0626738129659330
    One-Electron Energy =                -211.4774349758185679
    Two-Electron Energy =                  74.1592443497784899
    Total Energy =                        -95.2555168130741521

Computation Completed


Properties will be evaluated at   0.000000,   0.000000,   0.000000 [a0]

Properties computed using the SCF density matrix

  Nuclear Dipole Moment: [e a0]
     X:    41.0476      Y:    10.5827      Z:     0.0040

  Electronic Dipole Moment: [e a0]
     X:   -40.4826      Y:   -10.6631      Z:    -0.0071

  Dipole Moment: [e a0]
     X:     0.5649      Y:    -0.0805      Z:    -0.0031     Total:     0.5706

  Dipole Moment: [D]
     X:     1.4359      Y:    -0.2046      Z:    -0.0079     Total:     1.4504


*** tstop() called on node83.bme.utexas.edu at Sat Apr 11 16:18:37 2020
Module time:
	user time   =      16.36 seconds =       0.27 minutes
	system time =       0.75 seconds =       0.01 minutes
	total time  =          4 seconds =       0.07 minutes
Total time:
	user time   =      68.00 seconds =       1.13 minutes
	system time =       3.09 seconds =       0.05 minutes
	total time  =         15 seconds =       0.25 minutes

*** tstart() called on node83.bme.utexas.edu
*** at Sat Apr 11 16:18:37 2020


  //>>>>>>>>>>>>>>>>>>>>>>>>>>>>>>>>>>>//
  //               DFMP2               //
  //<<<<<<<<<<<<<<<<<<<<<<<<<<<<<<<<<<<//

   => Loading Basis Set <=

    Name: (AUG-CC-PVTZ AUX)
    Role: RIFIT
    Keyword: DF_BASIS_MP2
    atoms 1              entry O          line   264 file /home/liuchw/anaconda3/envs/psi4env/share/psi4/basis/aug-cc-pvtz-ri.gbs 
    atoms 2-3, 5-6, 8-10 entry H          line    30 file /home/liuchw/anaconda3/envs/psi4env/share/psi4/basis/aug-cc-pvtz-ri.gbs 
    atoms 4              entry N          line   206 file /home/liuchw/anaconda3/envs/psi4env/share/psi4/basis/aug-cc-pvtz-ri.gbs 
    atoms 7              entry C          line   148 file /home/liuchw/anaconda3/envs/psi4env/share/psi4/basis/aug-cc-pvtz-ri.gbs 

	 --------------------------------------------------------
	                          DF-MP2                         
	      2nd-Order Density-Fitted Moller-Plesset Theory     
	              RMP2 Wavefunction,   6 Threads             
	                                                         
	        Rob Parrish, Justin Turney, Andy Simmonett,      
	           Ed Hohenstein, and C. David Sherrill          
	 --------------------------------------------------------

   => Auxiliary Basis Set <=

  Basis Set: (AUG-CC-PVTZ AUX)
    Blend: AUG-CC-PVTZ-RI
    Number of shells: 182
    Number of basis function: 640
    Number of Cartesian functions: 793
    Spherical Harmonics?: true
    Max angular momentum: 4

	 --------------------------------------------------------
	                 NBF =   299, NAUX =   640
	 --------------------------------------------------------
	   CLASS    FOCC     OCC    AOCC    AVIR     VIR    FVIR
	   PAIRS       0       9       9     290     290       0
	 --------------------------------------------------------

	-----------------------------------------------------------
	 ==================> DF-MP2 Energies <==================== 
	-----------------------------------------------------------
	 Reference Energy          =     -95.2555168130741521 [Eh]
	 Singles Energy            =      -0.0000000000000000 [Eh]
	 Same-Spin Energy          =      -0.0954919887850699 [Eh]
	 Opposite-Spin Energy      =      -0.3524584424495194 [Eh]
	 Correlation Energy        =      -0.4479504312345893 [Eh]
	 Total Energy              =     -95.7034672443087402 [Eh]
	-----------------------------------------------------------
	 ================> DF-SCS-MP2 Energies <================== 
	-----------------------------------------------------------
	 SCS Same-Spin Scale       =       0.3333333333333333 [-]
	 SCS Opposite-Spin Scale   =       1.2000000000000000 [-]
	 SCS Same-Spin Energy      =      -0.0318306629283566 [Eh]
	 SCS Opposite-Spin Energy  =      -0.4229501309394233 [Eh]
	 SCS Correlation Energy    =      -0.4547807938677799 [Eh]
	 SCS Total Energy          =     -95.7102976069419356 [Eh]
	-----------------------------------------------------------


*** tstop() called on node83.bme.utexas.edu at Sat Apr 11 16:18:39 2020
Module time:
	user time   =       7.25 seconds =       0.12 minutes
	system time =       0.31 seconds =       0.01 minutes
	total time  =          2 seconds =       0.03 minutes
Total time:
	user time   =      75.26 seconds =       1.25 minutes
	system time =       3.40 seconds =       0.06 minutes
	total time  =         17 seconds =       0.28 minutes

  //>>>>>>>>>>>>>>>>>>>>>>>>>>>>>>>>>>>>//
  // CBS Computation: MP2 / AUG-CC-PVQZ //
  //<<<<<<<<<<<<<<<<<<<<<<<<<<<<<<<<<<<<//


Scratch directory: /scratch//

*** tstart() called on node83.bme.utexas.edu
*** at Sat Apr 11 16:18:39 2020

   => Loading Basis Set <=

    Name: AUG-CC-PVQZ
    Role: ORBITAL
    Keyword: BASIS
    atoms 1              entry O          line   423 file /home/liuchw/anaconda3/envs/psi4env/share/psi4/basis/aug-cc-pvqz.gbs 
    atoms 2-3, 5-6, 8-10 entry H          line    40 file /home/liuchw/anaconda3/envs/psi4env/share/psi4/basis/aug-cc-pvqz.gbs 
    atoms 4              entry N          line   363 file /home/liuchw/anaconda3/envs/psi4env/share/psi4/basis/aug-cc-pvqz.gbs 
    atoms 7              entry C          line   303 file /home/liuchw/anaconda3/envs/psi4env/share/psi4/basis/aug-cc-pvqz.gbs 


         ---------------------------------------------------------
                                   SCF
               by Justin Turney, Rob Parrish, Andy Simmonett
                          and Daniel G. A. Smith
                              RHF Reference
                        6 Threads,  38146 MiB Core
         ---------------------------------------------------------

  ==> Geometry <==

    Molecular point group: c1
    Full point group: C1

    Geometry (in Angstrom), charge = 0, multiplicity = 1:

       Center              X                  Y                   Z               Mass       
    ------------   -----------------  -----------------  -----------------  -----------------
      Gh(O)          -2.053247247280    -0.556852834748    -0.004434181594    15.994914619570
      Gh(H)          -2.411904247280     0.330829165252     0.027897818406     1.007825032230
      Gh(H)          -1.091739247280    -0.419257834748     0.011693818406     1.007825032230
         N            0.818217752720    -0.343897834748     0.020805818406    14.003074004430
         H            1.113582752720    -0.896535834748    -0.773985181594     1.007825032230
         H            1.128298752720    -0.854618834748     0.837665818406     1.007825032230
         C            1.477552752720     0.964466165252    -0.019435181594    12.000000000000
         H            1.167010752720     1.546191165252     0.845079818406     1.007825032230
         H            2.568862752720     0.925171165252    -0.028391181594     1.007825032230
         H            1.150840752720     1.500383165252    -0.907259181594     1.007825032230

  Running in c1 symmetry.

  Rotational constants: A =      1.01253  B =      0.12377  C =      0.11458 [cm^-1]
  Rotational constants: A =  30354.83334  B =   3710.62378  C =   3435.08252 [MHz]
  Nuclear repulsion =   42.062673812965933

  Charge       = 0
  Multiplicity = 1
  Electrons    = 18
  Nalpha       = 9
  Nbeta        = 9

  ==> Algorithm <==

  SCF Algorithm Type is DF.
  DIIS enabled.
  MOM disabled.
  Fractional occupation disabled.
  Guess Type is SAD.
  Energy threshold   = 1.00e-07
  Density threshold  = 1.00e-08
  Integral threshold = 0.00e+00

  ==> Primary Basis <==

  Basis Set: AUG-CC-PVQZ
    Blend: AUG-CC-PVQZ
    Number of shells: 158
    Number of basis function: 562
    Number of Cartesian functions: 700
    Spherical Harmonics?: true
    Max angular momentum: 4

   => Loading Basis Set <=

    Name: (AUG-CC-PVQZ AUX)
    Role: JKFIT
    Keyword: DF_BASIS_SCF
    atoms 1              entry O          line   318 file /home/liuchw/anaconda3/envs/psi4env/share/psi4/basis/aug-cc-pvqz-jkfit.gbs 
    atoms 2-3, 5-6, 8-10 entry H          line    70 file /home/liuchw/anaconda3/envs/psi4env/share/psi4/basis/aug-cc-pvqz-jkfit.gbs 
    atoms 4              entry N          line   248 file /home/liuchw/anaconda3/envs/psi4env/share/psi4/basis/aug-cc-pvqz-jkfit.gbs 
    atoms 7              entry C          line   178 file /home/liuchw/anaconda3/envs/psi4env/share/psi4/basis/aug-cc-pvqz-jkfit.gbs 

  ==> Pre-Iterations <==

   -------------------------------------------------------
    Irrep   Nso     Nmo     Nalpha   Nbeta   Ndocc  Nsocc
   -------------------------------------------------------
     A        562     562       0       0       0       0
   -------------------------------------------------------
    Total     562     562       9       9       9       0
   -------------------------------------------------------

  ==> Integral Setup <==

  DFHelper Memory: AOs need 2.244 GiB; user supplied 27.940 GiB. Using in-core AOs.

  ==> MemDFJK: Density-Fitted J/K Matrices <==

    J tasked:                   Yes
    K tasked:                   Yes
    wK tasked:                   No
    OpenMP threads:               6
    Memory [MiB]:             28610
    Algorithm:                 Core
    Schwarz Cutoff:           1E-12
    Mask sparsity (%):       4.8334
    Fitting Condition:        1E-10

   => Auxiliary Basis Set <=

  Basis Set: (AUG-CC-PVQZ AUX)
    Blend: AUG-CC-PVQZ-JKFIT
    Number of shells: 228
    Number of basis function: 958
    Number of Cartesian functions: 1301
    Spherical Harmonics?: true
    Max angular momentum: 5

  Minimum eigenvalue in the overlap matrix is 7.5021563151E-06.
  Using Symmetric Orthogonalization.

  SCF Guess: Superposition of Atomic Densities via on-the-fly atomic UHF.

  ==> Iterations <==

                           Total Energy        Delta E     RMS |[F,P]|

   @DF-RHF iter SAD:   -94.62693430506188   -9.46269e+01   0.00000e+00 
   @DF-RHF iter   1:   -95.14467913256615   -5.17745e-01   8.39445e-04 DIIS
   @DF-RHF iter   2:   -95.23277748473646   -8.80984e-02   4.55717e-04 DIIS
   @DF-RHF iter   3:   -95.26017815616466   -2.74007e-02   6.50021e-05 DIIS
   @DF-RHF iter   4:   -95.26138130381716   -1.20315e-03   1.89665e-05 DIIS
   @DF-RHF iter   5:   -95.26146218049590   -8.08767e-05   4.66732e-06 DIIS
   @DF-RHF iter   6:   -95.26146843700472   -6.25651e-06   9.57496e-07 DIIS
   @DF-RHF iter   7:   -95.26146886241594   -4.25411e-07   2.17243e-07 DIIS
   @DF-RHF iter   8:   -95.26146888657161   -2.41557e-08   5.29058e-08 DIIS
   @DF-RHF iter   9:   -95.26146888826686   -1.69526e-09   1.25279e-08 DIIS
   @DF-RHF iter  10:   -95.26146888836203   -9.51701e-11   3.11466e-09 DIIS
  Energy and wave function converged.


  ==> Post-Iterations <==

    Orbital Energies [Eh]
    ---------------------

    Doubly Occupied:                                                      

       1A    -15.538229     2A    -11.239296     3A     -1.170005  
       4A     -0.896538     5A     -0.661565     6A     -0.604263  
       7A     -0.555784     8A     -0.517555     9A     -0.393806  

    Virtual:                                                              

      10A      0.025161    11A      0.037653    12A      0.038004  
      13A      0.039097    14A      0.056640    15A      0.062202  
      16A      0.067786    17A      0.089310    18A      0.102426  
      19A      0.109465    20A      0.120444    21A      0.128721  
      22A      0.129174    23A      0.138527    24A      0.151293  
      25A      0.158015    26A      0.162894    27A      0.181288  
      28A      0.194269    29A      0.198040    30A      0.220400  
      31A      0.223350    32A      0.230064    33A      0.231653  
      34A      0.237437    35A      0.257791    36A      0.267295  
      37A      0.271000    38A      0.282581    39A      0.286800  
      40A      0.294579    41A      0.310875    42A      0.315344  
      43A      0.325681    44A      0.328122    45A      0.330139  
      46A      0.333198    47A      0.337776    48A      0.347986  
      49A      0.349811    50A      0.361679    51A      0.370180  
      52A      0.377653    53A      0.395129    54A      0.397321  
      55A      0.405984    56A      0.406745    57A      0.408654  
      58A      0.420296    59A      0.428898    60A      0.436129  
      61A      0.452638    62A      0.468720    63A      0.470275  
      64A      0.516479    65A      0.528597    66A      0.536677  
      67A      0.565858    68A      0.576566    69A      0.590021  
      70A      0.595060    71A      0.599467    72A      0.611948  
      73A      0.627925    74A      0.649325    75A      0.658078  
      76A      0.662663    77A      0.667941    78A      0.677110  
      79A      0.697700    80A      0.702654    81A      0.703024  
      82A      0.707792    83A      0.709776    84A      0.718847  
      85A      0.726340    86A      0.733468    87A      0.736086  
      88A      0.750190    89A      0.756541    90A      0.760595  
      91A      0.768534    92A      0.780632    93A      0.785732  
      94A      0.799543    95A      0.801142    96A      0.810841  
      97A      0.813212    98A      0.819129    99A      0.831551  
     100A      0.835765   101A      0.859175   102A      0.869850  
     103A      0.873160   104A      0.886190   105A      0.898020  
     106A      0.906602   107A      0.913481   108A      0.930343  
     109A      0.934373   110A      0.953719   111A      0.968943  
     112A      0.971823   113A      0.978438   114A      0.988518  
     115A      1.016499   116A      1.033004   117A      1.043171  
     118A      1.047097   119A      1.062909   120A      1.081094  
     121A      1.097805   122A      1.137624   123A      1.149915  
     124A      1.159790   125A      1.168638   126A      1.175365  
     127A      1.180376   128A      1.188794   129A      1.200544  
     130A      1.202829   131A      1.219532   132A      1.224004  
     133A      1.239743   134A      1.284508   135A      1.288967  
     136A      1.293967   137A      1.355921   138A      1.366604  
     139A      1.376496   140A      1.379117   141A      1.409392  
     142A      1.420263   143A      1.427066   144A      1.438979  
     145A      1.440393   146A      1.470775   147A      1.487033  
     148A      1.489431   149A      1.491773   150A      1.498206  
     151A      1.542142   152A      1.546312   153A      1.557907  
     154A      1.577008   155A      1.579960   156A      1.593696  
     157A      1.612875   158A      1.627676   159A      1.634873  
     160A      1.657584   161A      1.659905   162A      1.660931  
     163A      1.664552   164A      1.676092   165A      1.688655  
     166A      1.701993   167A      1.727424   168A      1.730733  
     169A      1.748240   170A      1.758998   171A      1.771686  
     172A      1.797305   173A      1.808340   174A      1.821322  
     175A      1.842388   176A      1.845352   177A      1.868734  
     178A      1.869243   179A      1.873241   180A      1.900084  
     181A      1.903835   182A      1.917644   183A      1.926583  
     184A      1.937169   185A      1.953208   186A      1.954903  
     187A      1.981373   188A      2.003756   189A      2.021448  
     190A      2.031534   191A      2.038732   192A      2.042268  
     193A      2.048548   194A      2.051191   195A      2.060066  
     196A      2.077941   197A      2.108202   198A      2.114351  
     199A      2.116499   200A      2.139565   201A      2.148972  
     202A      2.158174   203A      2.172101   204A      2.181756  
     205A      2.189370   206A      2.193487   207A      2.197031  
     208A      2.214173   209A      2.228952   210A      2.260633  
     211A      2.262127   212A      2.276594   213A      2.292513  
     214A      2.301721   215A      2.306714   216A      2.315255  
     217A      2.322811   218A      2.330777   219A      2.342526  
     220A      2.370257   221A      2.386502   222A      2.414616  
     223A      2.459894   224A      2.461342   225A      2.471656  
     226A      2.483447   227A      2.485979   228A      2.505462  
     229A      2.527085   230A      2.532898   231A      2.576139  
     232A      2.589204   233A      2.605749   234A      2.630644  
     235A      2.638693   236A      2.660061   237A      2.673874  
     238A      2.712345   239A      2.748889   240A      2.753212  
     241A      2.781658   242A      2.808775   243A      2.813276  
     244A      2.831795   245A      2.834943   246A      2.843637  
     247A      2.856230   248A      2.875763   249A      2.900880  
     250A      2.907324   251A      2.923376   252A      2.949944  
     253A      2.988657   254A      3.008687   255A      3.014409  
     256A      3.023260   257A      3.029617   258A      3.065566  
     259A      3.094306   260A      3.123935   261A      3.125088  
     262A      3.143283   263A      3.161189   264A      3.165003  
     265A      3.205301   266A      3.240101   267A      3.244626  
     268A      3.271039   269A      3.279408   270A      3.282228  
     271A      3.317063   272A      3.339137   273A      3.360796  
     274A      3.380990   275A      3.410865   276A      3.428994  
     277A      3.463275   278A      3.495809   279A      3.518584  
     280A      3.523184   281A      3.566290   282A      3.570648  
     283A      3.591821   284A      3.630157   285A      3.640409  
     286A      3.671171   287A      3.701194   288A      3.740749  
     289A      3.744806   290A      3.772041   291A      3.777997  
     292A      3.800610   293A      3.829241   294A      3.842907  
     295A      3.848663   296A      3.888943   297A      3.895775  
     298A      3.913506   299A      3.962933   300A      3.967041  
     301A      4.007663   302A      4.024026   303A      4.046400  
     304A      4.067854   305A      4.092663   306A      4.110157  
     307A      4.142246   308A      4.155477   309A      4.166511  
     310A      4.197032   311A      4.209369   312A      4.221374  
     313A      4.259029   314A      4.281033   315A      4.290873  
     316A      4.313714   317A      4.342272   318A      4.358291  
     319A      4.372820   320A      4.406858   321A      4.420218  
     322A      4.430684   323A      4.474789   324A      4.499981  
     325A      4.518163   326A      4.550846   327A      4.561589  
     328A      4.566272   329A      4.590549   330A      4.597598  
     331A      4.642137   332A      4.655969   333A      4.681841  
     334A      4.685975   335A      4.724430   336A      4.727008  
     337A      4.789792   338A      4.809872   339A      4.826710  
     340A      4.891497   341A      4.937485   342A      4.977556  
     343A      4.992350   344A      5.044181   345A      5.074773  
     346A      5.100323   347A      5.115169   348A      5.166556  
     349A      5.183685   350A      5.245285   351A      5.291728  
     352A      5.355094   353A      5.374497   354A      5.420263  
     355A      5.426554   356A      5.465648   357A      5.494242  
     358A      5.514588   359A      5.575915   360A      5.636338  
     361A      5.696221   362A      5.699479   363A      5.763063  
     364A      5.916992   365A      6.094818   366A      6.161819  
     367A      6.244627   368A      6.285947   369A      6.317245  
     370A      6.460334   371A      6.539138   372A      6.548809  
     373A      6.585843   374A      6.652213   375A      6.674644  
     376A      6.749764   377A      6.759499   378A      6.891454  
     379A      6.894501   380A      6.895074   381A      6.908732  
     382A      6.944444   383A      6.992625   384A      6.998443  
     385A      7.019891   386A      7.035439   387A      7.049972  
     388A      7.072878   389A      7.080184   390A      7.115327  
     391A      7.149173   392A      7.167707   393A      7.184260  
     394A      7.210967   395A      7.223292   396A      7.257600  
     397A      7.260892   398A      7.279421   399A      7.304576  
     400A      7.348409   401A      7.377343   402A      7.397349  
     403A      7.439699   404A      7.495934   405A      7.503784  
     406A      7.552282   407A      7.559811   408A      7.593469  
     409A      7.681944   410A      7.726926   411A      7.731933  
     412A      7.761421   413A      7.825124   414A      7.866777  
     415A      7.878022   416A      7.932644   417A      7.939146  
     418A      8.001474   419A      8.012738   420A      8.060558  
     421A      8.112883   422A      8.137968   423A      8.164253  
     424A      8.203230   425A      8.208217   426A      8.301140  
     427A      8.320649   428A      8.360549   429A      8.398533  
     430A      8.434181   431A      8.494261   432A      8.498960  
     433A      8.543632   434A      8.560148   435A      8.589921  
     436A      8.619802   437A      8.661496   438A      8.711120  
     439A      8.720794   440A      8.742440   441A      8.747401  
     442A      8.761839   443A      8.764278   444A      8.785861  
     445A      8.867434   446A      8.875619   447A      8.952276  
     448A      8.984506   449A      9.032244   450A      9.062849  
     451A      9.066745   452A      9.114513   453A      9.133695  
     454A      9.154467   455A      9.186540   456A      9.199328  
     457A      9.240297   458A      9.288942   459A      9.322631  
     460A      9.354743   461A      9.361282   462A      9.373719  
     463A      9.418019   464A      9.427337   465A      9.453870  
     466A      9.470098   467A      9.489268   468A      9.547952  
     469A      9.572726   470A      9.581467   471A      9.621453  
     472A      9.639235   473A      9.712276   474A      9.720276  
     475A      9.731733   476A      9.753067   477A      9.772490  
     478A      9.819162   479A      9.861929   480A      9.913391  
     481A      9.938228   482A      9.976147   483A     10.050983  
     484A     10.063101   485A     10.064932   486A     10.137154  
     487A     10.151616   488A     10.167128   489A     10.169723  
     490A     10.212205   491A     10.225585   492A     10.283084  
     493A     10.419850   494A     10.430360   495A     10.479929  
     496A     10.495964   497A     10.574626   498A     10.587809  
     499A     10.673701   500A     10.696132   501A     10.776227  
     502A     10.792915   503A     10.843272   504A     10.899577  
     505A     10.951996   506A     10.959384   507A     10.976732  
     508A     10.988722   509A     11.036910   510A     11.092397  
     511A     11.135365   512A     11.180040   513A     11.280999  
     514A     11.344224   515A     11.428060   516A     11.477865  
     517A     11.488753   518A     11.586730   519A     11.597195  
     520A     11.638769   521A     11.727171   522A     12.030440  
     523A     12.155161   524A     12.233947   525A     12.384399  
     526A     12.425513   527A     12.429962   528A     12.467474  
     529A     12.645364   530A     12.710138   531A     12.976125  
     532A     12.991804   533A     13.261752   534A     13.321859  
     535A     13.330712   536A     13.426010   537A     13.547904  
     538A     13.727000   539A     14.419686   540A     14.450591  
     541A     14.536535   542A     14.706775   543A     14.803323  
     544A     14.812478   545A     15.151616   546A     15.193225  
[...]
     111A      0.912410   112A      0.913679   113A      0.929768  
     114A      0.939171   115A      0.948588   116A      0.959095  
     117A      0.959347   118A      0.981166   119A      0.999374  
     120A      1.012633   121A      1.013180   122A      1.028265  
     123A      1.037456   124A      1.053058   125A      1.057191  
     126A      1.077970   127A      1.089851   128A      1.117548  
     129A      1.144120   130A      1.147676   131A      1.156847  
     132A      1.161049   133A      1.163707   134A      1.185309  
     135A      1.187489   136A      1.204615   137A      1.211733  
     138A      1.223853   139A      1.240174   140A      1.261579  
     141A      1.285087   142A      1.297584   143A      1.331304  
     144A      1.353421   145A      1.359268   146A      1.387621  
     147A      1.396402   148A      1.422780   149A      1.423200  
     150A      1.450666   151A      1.468731   152A      1.472989  
     153A      1.480504   154A      1.508027   155A      1.519071  
     156A      1.524210   157A      1.556108   158A      1.561385  
     159A      1.570912   160A      1.576240   161A      1.589630  
     162A      1.591958   163A      1.602608   164A      1.620804  
     165A      1.633615   166A      1.641587   167A      1.646146  
     168A      1.665704   169A      1.690922   170A      1.707160  
     171A      1.713489   172A      1.731337   173A      1.741492  
     174A      1.745663   175A      1.766984   176A      1.779386  
     177A      1.788006   178A      1.798980   179A      1.805587  
     180A      1.808932   181A      1.828266   182A      1.838852  
     183A      1.839524   184A      1.855003   185A      1.860529  
     186A      1.894095   187A      1.906446   188A      1.922104  
     189A      1.935190   190A      1.935978   191A      1.954349  
     192A      1.963525   193A      1.970054   194A      1.975377  
     195A      2.003199   196A      2.018557   197A      2.021375  
     198A      2.031344   199A      2.033118   200A      2.055104  
     201A      2.071838   202A      2.076035   203A      2.092194  
     204A      2.093805   205A      2.107862   206A      2.121544  
     207A      2.135203   208A      2.141430   209A      2.161131  
     210A      2.163946   211A      2.172456   212A      2.177324  
     213A      2.188823   214A      2.204006   215A      2.225214  
     216A      2.234086   217A      2.236996   218A      2.244216  
     219A      2.260597   220A      2.271213   221A      2.286419  
     222A      2.291472   223A      2.306775   224A      2.311133  
     225A      2.322132   226A      2.341814   227A      2.384568  
     228A      2.410869   229A      2.440548   230A      2.449480  
     231A      2.452551   232A      2.464711   233A      2.470110  
     234A      2.483894   235A      2.552207   236A      2.577185  
     237A      2.579985   238A      2.591942   239A      2.613967  
     240A      2.626756   241A      2.670863   242A      2.685177  
     243A      2.693188   244A      2.750977   245A      2.759806  
     246A      2.782101   247A      2.786153   248A      2.806569  
     249A      2.808940   250A      2.816684   251A      2.821877  
     252A      2.853146   253A      2.881321   254A      2.906248  
     255A      2.918906   256A      2.929133   257A      2.937579  
     258A      2.959404   259A      2.980666   260A      2.999657  
     261A      3.002706   262A      3.044652   263A      3.063280  
     264A      3.077649   265A      3.107689   266A      3.123197  
     267A      3.126799   268A      3.149815   269A      3.162788  
     270A      3.185398   271A      3.191142   272A      3.213763  
     273A      3.237405   274A      3.252411   275A      3.281068  
     276A      3.289297   277A      3.302171   278A      3.311173  
     279A      3.341423   280A      3.385774   281A      3.401560  
     282A      3.414321   283A      3.429846   284A      3.439900  
     285A      3.476055   286A      3.513657   287A      3.538590  
     288A      3.551191   289A      3.579792   290A      3.616971  
     291A      3.627556   292A      3.664924   293A      3.695576  
     294A      3.711791   295A      3.721739   296A      3.741229  
     297A      3.756951   298A      3.774652   299A      3.792753  
     300A      3.810703   301A      3.833778   302A      3.853498  
     303A      3.883141   304A      3.912585   305A      3.935740  
     306A      3.975417   307A      3.985265   308A      4.030393  
     309A      4.036349   310A      4.045825   311A      4.118673  
     312A      4.127250   313A      4.136906   314A      4.152944  
     315A      4.163953   316A      4.196602   317A      4.217121  
     318A      4.235734   319A      4.237684   320A      4.245360  
     321A      4.250900   322A      4.278731   323A      4.307642  
     324A      4.312625   325A      4.333338   326A      4.363359  
     327A      4.395949   328A      4.435221   329A      4.439895  
     330A      4.463642   331A      4.479588   332A      4.497365  
     333A      4.507379   334A      4.528100   335A      4.542948  
     336A      4.592015   337A      4.594471   338A      4.641870  
     339A      4.660239   340A      4.671780   341A      4.705742  
     342A      4.776363   343A      4.780255   344A      4.812938  
     345A      4.850040   346A      4.889918   347A      4.913876  
     348A      4.926598   349A      4.950500   350A      5.017241  
     351A      5.058573   352A      5.062956   353A      5.130422  
     354A      5.140344   355A      5.174338   356A      5.188109  
     357A      5.256525   358A      5.283762   359A      5.302954  
     360A      5.332918   361A      5.355983   362A      5.441429  
     363A      5.452215   364A      5.468308   365A      5.494921  
     366A      5.522591   367A      5.604960   368A      5.625642  
     369A      5.759327   370A      5.770569   371A      5.910105  
     372A      6.076037   373A      6.115040   374A      6.207621  
     375A      6.257086   376A      6.296580   377A      6.325397  
     378A      6.493096   379A      6.523306   380A      6.560579  
     381A      6.608453   382A      6.733884   383A      6.740460  
     384A      6.874694   385A      6.878372   386A      6.885799  
     387A      6.888335   388A      6.910009   389A      6.931991  
     390A      6.957067   391A      6.965292   392A      6.983777  
     393A      7.006289   394A      7.013340   395A      7.029219  
     396A      7.051903   397A      7.068507   398A      7.091219  
     399A      7.156287   400A      7.167098   401A      7.238867  
     402A      7.248359   403A      7.322244   404A      7.375131  
     405A      7.396956   406A      7.468076   407A      7.476462  
     408A      7.529901   409A      7.543265   410A      7.623002  
     411A      7.704004   412A      7.705180   413A      7.738360  
     414A      7.790004   415A      7.796639   416A      7.807948  
     417A      7.824319   418A      7.869296   419A      7.873860  
     420A      7.891519   421A      7.909477   422A      7.927818  
     423A      7.984353   424A      7.994582   425A      8.031033  
     426A      8.035785   427A      8.036240   428A      8.066888  
     429A      8.127683   430A      8.136758   431A      8.194343  
     432A      8.202439   433A      8.261816   434A      8.282970  
     435A      8.287623   436A      8.327087   437A      8.384830  
     438A      8.456976   439A      8.493295   440A      8.531061  
     441A      8.645080   442A      8.654389   443A      8.692636  
     444A      8.695934   445A      8.701229   446A      8.711511  
     447A      8.745576   448A      8.786472   449A      8.789903  
     450A      8.806951   451A      8.828990   452A      8.868009  
     453A      8.873220   454A      8.903271   455A      8.968033  
     456A      8.990732   457A      9.021008   458A      9.042391  
     459A      9.083835   460A      9.093272   461A      9.100314  
     462A      9.161238   463A      9.168725   464A      9.192467  
     465A      9.221624   466A      9.248806   467A      9.276828  
     468A      9.343022   469A      9.344803   470A      9.396849  
     471A      9.398751   472A      9.417457   473A      9.424056  
     474A      9.536237   475A      9.541875   476A      9.566970  
     477A      9.587433   478A      9.606630   479A      9.671643  
     480A      9.721955   481A      9.735503   482A      9.749316  
     483A      9.805319   484A      9.875195   485A      9.884857  
     486A      9.914037   487A      9.991834   488A     10.016512  
     489A     10.022293   490A     10.052395   491A     10.066794  
     492A     10.079539   493A     10.131032   494A     10.136919  
     495A     10.187561   496A     10.191133   497A     10.221156  
     498A     10.272564   499A     10.307630   500A     10.399335  
     501A     10.443746   502A     10.484902   503A     10.489884  
     504A     10.551492   505A     10.563335   506A     10.632380  
     507A     10.649726   508A     10.701670   509A     10.765382  
     510A     10.796371   511A     10.844418   512A     10.935690  
     513A     10.936248   514A     10.989749   515A     11.020816  
     516A     11.076257   517A     11.146201   518A     11.229245  
     519A     11.254611   520A     11.272401   521A     11.409661  
     522A     11.445113   523A     11.463879   524A     11.501635  
     525A     11.532216   526A     11.564134   527A     11.599245  
     528A     11.618142   529A     11.692629   530A     11.871419  
     531A     11.964004   532A     12.033832   533A     12.139989  
     534A     12.206920   535A     12.364674   536A     12.395677  
     537A     12.426880   538A     12.434181   539A     12.620206  
     540A     12.685176   541A     12.878725   542A     12.923239  
     543A     12.943168   544A     13.056051   545A     13.243069  
     546A     13.320834   547A     13.370998   548A     13.409933  
     549A     13.708688   550A     14.045411   551A     14.328193  
     552A     14.584856   553A     14.864346   554A     15.020595  
     555A     15.139900   556A     15.250984   557A     15.344203  
     558A     17.060081   559A     17.449352   560A     29.193557  
     561A     36.631570   562A     45.883388  

    Final Occupation by Irrep:
              A 
    DOCC [    14 ]

  @DF-RHF Final Energy:  -171.33371097226740

   => Energetics <=

    Nuclear Repulsion Energy =             80.2171582571269539
    One-Electron Energy =                -392.5174747283779766
    Two-Electron Energy =                 140.9666054989835970
    Total Energy =                       -171.3337109722673972

Computation Completed


Properties will be evaluated at   0.000000,   0.000000,   0.000000 [a0]

Properties computed using the SCF density matrix

  Nuclear Dipole Moment: [e a0]
     X:     3.3860      Y:     1.9972      Z:     0.0118

  Electronic Dipole Moment: [e a0]
     X:    -2.0749      Y:    -1.3795      Z:     0.0169

  Dipole Moment: [e a0]
     X:     1.3111      Y:     0.6176      Z:     0.0287     Total:     1.4496

  Dipole Moment: [D]
     X:     3.3325      Y:     1.5699      Z:     0.0729     Total:     3.6845


*** tstop() called on node83.bme.utexas.edu at Sat Apr 11 16:19:38 2020
Module time:
	user time   =      60.06 seconds =       1.00 minutes
	system time =       1.84 seconds =       0.03 minutes
	total time  =         11 seconds =       0.18 minutes
Total time:
	user time   =     366.97 seconds =       6.12 minutes
	system time =      12.89 seconds =       0.21 minutes
	total time  =         76 seconds =       1.27 minutes

*** tstart() called on node83.bme.utexas.edu
*** at Sat Apr 11 16:19:38 2020


  //>>>>>>>>>>>>>>>>>>>>>>>>>>>>>>>>>>>//
  //               DFMP2               //
  //<<<<<<<<<<<<<<<<<<<<<<<<<<<<<<<<<<<//

   => Loading Basis Set <=

    Name: (AUG-CC-PVQZ AUX)
    Role: RIFIT
    Keyword: DF_BASIS_MP2
    atoms 1              entry O          line   332 file /home/liuchw/anaconda3/envs/psi4env/share/psi4/basis/aug-cc-pvqz-ri.gbs 
    atoms 2-3, 5-6, 8-10 entry H          line    30 file /home/liuchw/anaconda3/envs/psi4env/share/psi4/basis/aug-cc-pvqz-ri.gbs 
    atoms 4              entry N          line   258 file /home/liuchw/anaconda3/envs/psi4env/share/psi4/basis/aug-cc-pvqz-ri.gbs 
    atoms 7              entry C          line   184 file /home/liuchw/anaconda3/envs/psi4env/share/psi4/basis/aug-cc-pvqz-ri.gbs 

	 --------------------------------------------------------
	                          DF-MP2                         
	      2nd-Order Density-Fitted Moller-Plesset Theory     
	              RMP2 Wavefunction,   6 Threads             
	                                                         
	        Rob Parrish, Justin Turney, Andy Simmonett,      
	           Ed Hohenstein, and C. David Sherrill          
	 --------------------------------------------------------

   => Auxiliary Basis Set <=

  Basis Set: (AUG-CC-PVQZ AUX)
    Blend: AUG-CC-PVQZ-RI
    Number of shells: 248
    Number of basis function: 1064
    Number of Cartesian functions: 1446
    Spherical Harmonics?: true
    Max angular momentum: 5

	 --------------------------------------------------------
	                 NBF =   562, NAUX =  1064
	 --------------------------------------------------------
	   CLASS    FOCC     OCC    AOCC    AVIR     VIR    FVIR
	   PAIRS       0      14      14     548     548       0
	 --------------------------------------------------------

	-----------------------------------------------------------
	 ==================> DF-MP2 Energies <==================== 
	-----------------------------------------------------------
	 Reference Energy          =    -171.3337109722673972 [Eh]
	 Singles Energy            =      -0.0000000000000000 [Eh]
	 Same-Spin Energy          =      -0.1763950769915083 [Eh]
	 Opposite-Spin Energy      =      -0.6394735877714861 [Eh]
	 Correlation Energy        =      -0.8158686647629945 [Eh]
	 Total Energy              =    -172.1495796370303992 [Eh]
	-----------------------------------------------------------
	 ================> DF-SCS-MP2 Energies <================== 
	-----------------------------------------------------------
	 SCS Same-Spin Scale       =       0.3333333333333333 [-]
	 SCS Opposite-Spin Scale   =       1.2000000000000000 [-]
	 SCS Same-Spin Energy      =      -0.0587983589971694 [Eh]
	 SCS Opposite-Spin Energy  =      -0.7673683053257833 [Eh]
	 SCS Correlation Energy    =      -0.8261666643229527 [Eh]
	 SCS Total Energy          =    -172.1598776365903518 [Eh]
	-----------------------------------------------------------


*** tstop() called on node83.bme.utexas.edu at Sat Apr 11 16:19:46 2020
Module time:
	user time   =      29.56 seconds =       0.49 minutes
	system time =       0.97 seconds =       0.02 minutes
	total time  =          8 seconds =       0.13 minutes
Total time:
	user time   =     396.53 seconds =       6.61 minutes
	system time =      13.86 seconds =       0.23 minutes
	total time  =         84 seconds =       1.40 minutes

  //>>>>>>>>>>>>>>>>>>>>>>>>>>>>>>>>>>>//
  //  CBS Results: mp2/aug-cc-pv[tq]z  //
  //<<<<<<<<<<<<<<<<<<<<<<<<<<<<<<<<<<<//


   ==> HF <==

   HI-zeta (4) Energy:               -171.333710972267


   ==> Helgaker 2-point correlated extrapolation for method: MP2 <==

   LO-zeta (3) Energy:               -172.059285619786
   HI-zeta (4) Energy:               -172.149579637030
   Alpha (exponent) Value:             3.000000000000
   Extrapolated Energy:              -172.215469865830

   @Extrapolated MP2/(T,Q):          -172.215469865830



   ==> Helgaker 2-point correlated extrapolation for method: HF <==

   LO-zeta (3) Energy:               -171.322441499412
   HI-zeta (4) Energy:               -171.333710972267
   Alpha (exponent) Value:             3.000000000000
   Extrapolated Energy:              -171.341934641648

   @Extrapolated HF/(T,Q):           -171.341934641648


   ==> Components <==

  ---------------------------------------------------------------------------------------------------------
                          Method / Basis                      Rqd      Energy [Eh]   Variable
  ---------------------------------------------------------------------------------------------------------
                              hf / aug-cc-pvtz                  *    -171.32244150   HF TOTAL ENERGY
                             mp2 / aug-cc-pvtz                  *    -172.05928562   MP2 TOTAL ENERGY
                              hf / aug-cc-pvqz                  *    -171.33371097   HF TOTAL ENERGY
                             mp2 / aug-cc-pvqz                  *    -172.14957964   MP2 TOTAL ENERGY
  ---------------------------------------------------------------------------------------------------------

   ==> Stages <==

  ---------------------------------------------------------------------------------------------------------
      Stage               Method / Basis                       Wt      Energy [Eh]   Scheme
  ---------------------------------------------------------------------------------------------------------
        scf                   hf / aug-cc-pvqz                  1    -171.33371097   xtpl_highest_1
       corl                  mp2 / aug-cc-pv[tq]z               1    -172.21546987   corl_xtpl_helgaker_2
       corl                   hf / aug-cc-pv[tq]z              -1    -171.34193464   corl_xtpl_helgaker_2
  ---------------------------------------------------------------------------------------------------------

   ==> CBS <==

  ---------------------------------------------------------------------------------------------------------
      Stage               Method / Basis                               Energy [Eh]   Scheme
  ---------------------------------------------------------------------------------------------------------
        scf                   hf / aug-cc-pvqz                       -171.33371097   xtpl_highest_1
       corl                  mp2 / aug-cc-pv[tq]z                      -0.87353522   corl_xtpl_helgaker_2
      total                  CBS                                     -172.20724620   
  ---------------------------------------------------------------------------------------------------------
   => Loading Basis Set <=

    Name: DEF2-SVP
    Role: ORBITAL
    Keyword: BASIS
    atoms 1              entry O          line   130 file /home/liuchw/anaconda3/envs/psi4env/share/psi4/basis/def2-svp.gbs 
    atoms 2-3, 5-6, 8-10 entry H          line    15 file /home/liuchw/anaconda3/envs/psi4env/share/psi4/basis/def2-svp.gbs 
    atoms 4              entry N          line   110 file /home/liuchw/anaconda3/envs/psi4env/share/psi4/basis/def2-svp.gbs 
    atoms 7              entry C          line    90 file /home/liuchw/anaconda3/envs/psi4env/share/psi4/basis/def2-svp.gbs 


       N-Body: Complex Energy (fragments = (1, 2), basis = (1, 2):  -172.20724619644949)

   ==> N-Body: Counterpoise Corrected (CP) energies <==

   n-Body     Total Energy [Eh]       I.E. [kcal/mol]      Delta [kcal/mol]
        1     -172.195911458929        0.000000000000        0.000000000000
        2     -172.207285458696       -7.137292608850       -7.137292608850

   => Loading Basis Set <=

    Name: DEF2-SVP
    Role: ORBITAL
    Keyword: BASIS
    atoms 1              entry O          line   130 file /home/liuchw/anaconda3/envs/psi4env/share/psi4/basis/def2-svp.gbs 
    atoms 2-3, 5-6, 8-10 entry H          line    15 file /home/liuchw/anaconda3/envs/psi4env/share/psi4/basis/def2-svp.gbs 
    atoms 4              entry N          line   110 file /home/liuchw/anaconda3/envs/psi4env/share/psi4/basis/def2-svp.gbs 
    atoms 7              entry C          line    90 file /home/liuchw/anaconda3/envs/psi4env/share/psi4/basis/def2-svp.gbs 


    Psi4 stopped on: Saturday, 11 April 2020 04:19PM
    Psi4 wall time for execution: 0:01:24.71

*** Psi4 exiting successfully. Buy a developer a beer!
