
    -----------------------------------------------------------------------
          Psi4: An Open-Source Ab Initio Electronic Structure Package
                               Psi4 1.4a2.dev224 

                         Git: Rev {master} e453b16 


    R. M. Parrish, L. A. Burns, D. G. A. Smith, A. C. Simmonett,
    A. E. DePrince III, E. G. Hohenstein, U. Bozkaya, A. Yu. Sokolov,
    R. Di Remigio, R. M. Richard, J. F. Gonthier, A. M. James,
    H. R. McAlexander, A. Kumar, M. Saitow, X. Wang, B. P. Pritchard,
    P. Verma, H. F. Schaefer III, K. Patkowski, R. A. King, E. F. Valeev,
    F. A. Evangelista, J. M. Turney, T. D. Crawford, and C. D. Sherrill,
    J. Chem. Theory Comput. 13(7) pp 3185--3197 (2017).
    (doi: 10.1021/acs.jctc.7b00174)


                         Additional Contributions by
    P. Kraus, H. Kruse, M. H. Lechner, M. C. Schieber, R. A. Shaw,
    A. Alenaizan, R. Galvelis, Z. L. Glick, S. Lehtola, and J. P. Misiewicz

    -----------------------------------------------------------------------


    Psi4 started on: Saturday, 11 April 2020 04:35PM

    Process ID: 22620
    Host:       node37.bme.utexas.edu
    PSIDATADIR: /home/liuchw/anaconda3/envs/psi4env/share/psi4
    Memory:     500.0 MiB
    Threads:    6
    
  ==> Input File <==

--------------------------------------------------------------------------
#Generated by lconvert.py for cbs job

memory 40 GB

molecule  {
0 1
  O       -0.7069200     0.0458300     0.0063860
  H        0.2656240     0.0717100     0.0013390
  C       -1.0766710    -1.3139160     0.0016140
  H       -2.1629240    -1.3631960     0.0058650
  H       -0.7234060    -1.8446520    -0.8877430
  H       -0.7160800    -1.8528210     0.8830800
--
0 1
  N        1.8386560    -0.0161640    -0.0024620
  H        2.2092750     0.4916120     0.7906700
  H        2.2093980     0.4481750    -0.8217210
  C        2.3164080    -1.4021970     0.0349990
  H        1.9245230    -1.9362230    -0.8271930
  H        3.4031190    -1.5089330     0.0380340
  H        1.9242810    -1.8889280     0.9246310
units angstrom
no_reorient
symmetry c1
}

set {
scf_type DF
mp2_type DF
e_convergence 7
reference rhf
}

energy('mp2/aug-cc-pv[tq]z', bsse_type='cp')
--------------------------------------------------------------------------

  Memory set to  37.253 GiB by Python driver.

Scratch directory: /scratch//


   ===> N-Body Interaction Abacus <===
        BSSE Treatment:                     cp
        Number of 1-body computations:     4
        Number of 2-body computations:     1

   ==> N-Body: Now computing 1-body complexes <==


       N-Body: Computing complex (1/4) with fragments (2,) in the basis of fragments (2,).


Scratch directory: /scratch//

  //>>>>>>>>>>>>>>>>>>>>>>>>>>>>>>>>>>>//
  //   CBS Setup: mp2/aug-cc-pv[tq]z   //
  //<<<<<<<<<<<<<<<<<<<<<<<<<<<<<<<<<<<//

    Naive listing of computations required.
             hf / aug-cc-pvqz              for  HF TOTAL ENERGY
            mp2 / aug-cc-pvtz              for  MP2 TOTAL ENERGY
            mp2 / aug-cc-pvqz              for  MP2 TOTAL ENERGY
             hf / aug-cc-pvtz              for  HF TOTAL ENERGY
             hf / aug-cc-pvqz              for  HF TOTAL ENERGY

    Enlightened listing of computations required.
            mp2 / aug-cc-pvtz              for  MP2 TOTAL ENERGY
            mp2 / aug-cc-pvqz              for  MP2 TOTAL ENERGY

    Full listing of computations to be obtained (required and bonus).
             hf / aug-cc-pvtz              for  HF TOTAL ENERGY
            mp2 / aug-cc-pvtz              for  MP2 TOTAL ENERGY
             hf / aug-cc-pvqz              for  HF TOTAL ENERGY
            mp2 / aug-cc-pvqz              for  MP2 TOTAL ENERGY

  //>>>>>>>>>>>>>>>>>>>>>>>>>>>>>>>>>>>>//
  // CBS Computation: MP2 / AUG-CC-PVTZ //
  //<<<<<<<<<<<<<<<<<<<<<<<<<<<<<<<<<<<<//


Scratch directory: /scratch//

*** tstart() called on node37.bme.utexas.edu
*** at Sat Apr 11 16:35:57 2020

   => Loading Basis Set <=

    Name: AUG-CC-PVTZ
    Role: ORBITAL
    Keyword: BASIS
    atoms 1        entry N          line   285 file /home/liuchw/anaconda3/envs/psi4env/share/psi4/basis/aug-cc-pvtz.gbs 
    atoms 2-3, 5-7 entry H          line    40 file /home/liuchw/anaconda3/envs/psi4env/share/psi4/basis/aug-cc-pvtz.gbs 
    atoms 4        entry C          line   239 file /home/liuchw/anaconda3/envs/psi4env/share/psi4/basis/aug-cc-pvtz.gbs 


         ---------------------------------------------------------
                                   SCF
               by Justin Turney, Rob Parrish, Andy Simmonett
                          and Daniel G. A. Smith
                              RHF Reference
                        6 Threads,  38146 MiB Core
         ---------------------------------------------------------

  ==> Geometry <==

    Molecular point group: c1
    Full point group: C1

    Geometry (in Angstrom), charge = 0, multiplicity = 1:

       Center              X                  Y                   Z               Mass       
    ------------   -----------------  -----------------  -----------------  -----------------
         N            1.240645443130     0.642538707958    -0.012210508001    14.003074004430
         H            1.611264443130     1.150314707958     0.780921491999     1.007825032230
         H            1.611387443130     1.106877707958    -0.831469508001     1.007825032230
         C            1.718397443130    -0.743494292042     0.025250491999    12.000000000000
         H            1.326512443130    -1.277520292042    -0.836941508001     1.007825032230
         H            2.805108443130    -0.850230292042     0.028285491999     1.007825032230
         H            1.326270443130    -1.230225292042     0.914882491999     1.007825032230

  Running in c1 symmetry.

  Rotational constants: A =      0.80104  B =      0.21818  C =      0.18206 [cm^-1]
  Rotational constants: A =  24014.69275  B =   6540.84629  C =   5458.10048 [MHz]
  Nuclear repulsion =   42.052032547120945

  Charge       = 0
  Multiplicity = 1
  Electrons    = 18
  Nalpha       = 9
  Nbeta        = 9

  ==> Algorithm <==

  SCF Algorithm Type is DF.
  DIIS enabled.
  MOM disabled.
  Fractional occupation disabled.
  Guess Type is SAD.
  Energy threshold   = 1.00e-07
  Density threshold  = 1.00e-08
  Integral threshold = 0.00e+00

  ==> Primary Basis <==

  Basis Set: AUG-CC-PVTZ
    Blend: AUG-CC-PVTZ
    Number of shells: 73
    Number of basis function: 207
    Number of Cartesian functions: 235
    Spherical Harmonics?: true
    Max angular momentum: 3

   => Loading Basis Set <=

    Name: (AUG-CC-PVTZ AUX)
    Role: JKFIT
    Keyword: DF_BASIS_SCF
    atoms 1        entry N          line   224 file /home/liuchw/anaconda3/envs/psi4env/share/psi4/basis/aug-cc-pvtz-jkfit.gbs 
    atoms 2-3, 5-7 entry H          line    70 file /home/liuchw/anaconda3/envs/psi4env/share/psi4/basis/aug-cc-pvtz-jkfit.gbs 
    atoms 4        entry C          line   162 file /home/liuchw/anaconda3/envs/psi4env/share/psi4/basis/aug-cc-pvtz-jkfit.gbs 

  ==> Pre-Iterations <==

   -------------------------------------------------------
    Irrep   Nso     Nmo     Nalpha   Nbeta   Ndocc  Nsocc
   -------------------------------------------------------
     A        207     207       0       0       0       0
   -------------------------------------------------------
    Total     207     207       9       9       9       0
   -------------------------------------------------------

  ==> Integral Setup <==

  DFHelper Memory: AOs need 0.152 GiB; user supplied 27.940 GiB. Using in-core AOs.

  ==> MemDFJK: Density-Fitted J/K Matrices <==

    J tasked:                   Yes
    K tasked:                   Yes
    wK tasked:                   No
    OpenMP threads:               6
    Memory [MiB]:             28610
    Algorithm:                 Core
    Schwarz Cutoff:           1E-12
    Mask sparsity (%):       0.0000
    Fitting Condition:        1E-10

   => Auxiliary Basis Set <=

  Basis Set: (AUG-CC-PVTZ AUX)
    Blend: AUG-CC-PVTZ-JKFIT
    Number of shells: 130
    Number of basis function: 438
    Number of Cartesian functions: 537
    Spherical Harmonics?: true
    Max angular momentum: 4

  Minimum eigenvalue in the overlap matrix is 3.9955843482E-05.
  Using Symmetric Orthogonalization.

  SCF Guess: Superposition of Atomic Densities via on-the-fly atomic UHF.

  ==> Iterations <==

                           Total Energy        Delta E     RMS |[F,P]|

   @DF-RHF iter SAD:   -94.61951151095877   -9.46195e+01   0.00000e+00 
   @DF-RHF iter   1:   -95.13909989996463   -5.19588e-01   2.27308e-03 DIIS
   @DF-RHF iter   2:   -95.22695256932917   -8.78527e-02   1.23203e-03 DIIS
   @DF-RHF iter   3:   -95.25417979827807   -2.72272e-02   1.74904e-04 DIIS
   @DF-RHF iter   4:   -95.25537463855434   -1.19484e-03   5.13294e-05 DIIS
   @DF-RHF iter   5:   -95.25545365462652   -7.90161e-05   1.23280e-05 DIIS
   @DF-RHF iter   6:   -95.25545977541221   -6.12079e-06   2.48049e-06 DIIS
   @DF-RHF iter   7:   -95.25546017056220   -3.95150e-07   5.63602e-07 DIIS
   @DF-RHF iter   8:   -95.25546019344087   -2.28787e-08   1.35187e-07 DIIS
   @DF-RHF iter   9:   -95.25546019500659   -1.56572e-09   3.25493e-08 DIIS
   @DF-RHF iter  10:   -95.25546019509684   -9.02531e-11   8.13871e-09 DIIS
  Energy and wave function converged.


  ==> Post-Iterations <==

    Orbital Energies [Eh]
    ---------------------

    Doubly Occupied:                                                      

       1A    -15.539981     2A    -11.240329     3A     -1.170058  
       4A     -0.896654     5A     -0.661412     6A     -0.603968  
       7A     -0.555607     8A     -0.517437     9A     -0.393510  

    Virtual:                                                              

      10A      0.029470    11A      0.042846    12A      0.043875  
      13A      0.049179    14A      0.068999    15A      0.098575  
      16A      0.125923    17A      0.127189    18A      0.139893  
      19A      0.141001    20A      0.156626    21A      0.167884  
      22A      0.203519    23A      0.226258    24A      0.237529  
      25A      0.256478    26A      0.273031    27A      0.282828  
      28A      0.288881    29A      0.295706    30A      0.332616  
      31A      0.338088    32A      0.343479    33A      0.345317  
      34A      0.376639    35A      0.389000    36A      0.395872  
      37A      0.402143    38A      0.404972    39A      0.436939  
      40A      0.443386    41A      0.445115    42A      0.454116  
      43A      0.467757    44A      0.489831    45A      0.495403  
      46A      0.500778    47A      0.503511    48A      0.530109  
      49A      0.580774    50A      0.606928    51A      0.613149  
      52A      0.640925    53A      0.653103    54A      0.761523  
      55A      0.796050    56A      0.800833    57A      0.804112  
      58A      0.828431    59A      0.848983    60A      0.864627  
      61A      0.883807    62A      0.906637    63A      0.917331  
      64A      0.937910    65A      0.938582    66A      0.952978  
      67A      0.967817    68A      0.975139    69A      0.975585  
      70A      0.992182    71A      1.011973    72A      1.060664  
      73A      1.068205    74A      1.081050    75A      1.084673  
      76A      1.093189    77A      1.107144    78A      1.111913  
      79A      1.137775    80A      1.155195    81A      1.191246  
      82A      1.200514    83A      1.220713    84A      1.258378  
      85A      1.259532    86A      1.287811    87A      1.292635  
      88A      1.307807    89A      1.342208    90A      1.382851  
      91A      1.413030    92A      1.446753    93A      1.453264  
      94A      1.467605    95A      1.499158    96A      1.604770  
      97A      1.614250    98A      1.646417    99A      1.649377  
     100A      1.668009   101A      1.676448   102A      1.702058  
     103A      1.724587   104A      1.778460   105A      1.834096  
     106A      1.848065   107A      1.931689   108A      1.944985  
     109A      1.998744   110A      2.002860   111A      2.017701  
     112A      2.027566   113A      2.041619   114A      2.077054  
     115A      2.081423   116A      2.198677   117A      2.211663  
     118A      2.226169   119A      2.240421   120A      2.281196  
     121A      2.312607   122A      2.400139   123A      2.434242  
     124A      2.449192   125A      2.483052   126A      2.532130  
     127A      2.559676   128A      2.596135   129A      2.693094  
     130A      2.903046   131A      3.116520   132A      3.368750  
     133A      3.380010   134A      3.412459   135A      3.577404  
     136A      3.600851   137A      3.605759   138A      3.611887  
     139A      3.642772   140A      3.694258   141A      3.750008  
     142A      3.847043   143A      3.873992   144A      3.881710  
     145A      3.914739   146A      3.958810   147A      4.008007  
     148A      4.081527   149A      4.084929   150A      4.106770  
     151A      4.114711   152A      4.152631   153A      4.206762  
     154A      4.214429   155A      4.277107   156A      4.308596  
     157A      4.322024   158A      4.369599   159A      4.418024  
     160A      4.448333   161A      4.478217   162A      4.589908  
     163A      4.599408   164A      4.629409   165A      4.684793  
     166A      4.723521   167A      4.756793   168A      4.796597  
     169A      4.811094   170A      4.888923   171A      4.890315  
     172A      4.986920   173A      4.995172   174A      5.044174  
     175A      5.050891   176A      5.101631   177A      5.119427  
     178A      5.150836   179A      5.198848   180A      5.229699  
     181A      5.242334   182A      5.361332   183A      5.486060  
     184A      5.543804   185A      5.563043   186A      5.581916  
     187A      5.772875   188A      5.803954   189A      5.858302  
     190A      5.910356   191A      5.979021   192A      5.990663  
     193A      6.110556   194A      6.124757   195A      6.173657  
     196A      6.244794   197A      6.410275   198A      6.542723  
     199A      6.559210   200A      6.692960   201A      6.740050  
     202A      6.798427   203A      7.024513   204A      7.072541  
     205A      7.793028   206A     16.827153   207A     18.020297  

    Final Occupation by Irrep:
              A 
    DOCC [     9 ]

  @DF-RHF Final Energy:   -95.25546019509684

   => Energetics <=

    Nuclear Repulsion Energy =             42.0520325471209446
    One-Electron Energy =                -211.4570694765205303
    Two-Electron Energy =                  74.1495767343027410
    Total Energy =                        -95.2554601950968447

Computation Completed


Properties will be evaluated at   0.000000,   0.000000,   0.000000 [a0]

Properties computed using the SCF density matrix

  Nuclear Dipole Moment: [e a0]
     X:    52.2990      Y:    -2.0106      Z:     0.2300

  Electronic Dipole Moment: [e a0]
     X:   -51.7292      Y:     2.0138      Z:    -0.2300

  Dipole Moment: [e a0]
     X:     0.5698      Y:     0.0032      Z:    -0.0000     Total:     0.5699

  Dipole Moment: [D]
     X:     1.4484      Y:     0.0081      Z:    -0.0001     Total:     1.4484


*** tstop() called on node37.bme.utexas.edu at Sat Apr 11 16:35:59 2020
Module time:
	user time   =      10.32 seconds =       0.17 minutes
	system time =       0.66 seconds =       0.01 minutes
	total time  =          2 seconds =       0.03 minutes
Total time:
	user time   =      10.32 seconds =       0.17 minutes
	system time =       0.66 seconds =       0.01 minutes
	total time  =          2 seconds =       0.03 minutes

*** tstart() called on node37.bme.utexas.edu
*** at Sat Apr 11 16:35:59 2020


  //>>>>>>>>>>>>>>>>>>>>>>>>>>>>>>>>>>>//
  //               DFMP2               //
  //<<<<<<<<<<<<<<<<<<<<<<<<<<<<<<<<<<<//

   => Loading Basis Set <=

    Name: (AUG-CC-PVTZ AUX)
    Role: RIFIT
    Keyword: DF_BASIS_MP2
    atoms 1        entry N          line   206 file /home/liuchw/anaconda3/envs/psi4env/share/psi4/basis/aug-cc-pvtz-ri.gbs 
    atoms 2-3, 5-7 entry H          line    30 file /home/liuchw/anaconda3/envs/psi4env/share/psi4/basis/aug-cc-pvtz-ri.gbs 
    atoms 4        entry C          line   148 file /home/liuchw/anaconda3/envs/psi4env/share/psi4/basis/aug-cc-pvtz-ri.gbs 

	 --------------------------------------------------------
	                          DF-MP2                         
	      2nd-Order Density-Fitted Moller-Plesset Theory     
	              RMP2 Wavefunction,   6 Threads             
	                                                         
	        Rob Parrish, Justin Turney, Andy Simmonett,      
	           Ed Hohenstein, and C. David Sherrill          
	 --------------------------------------------------------

   => Auxiliary Basis Set <=

  Basis Set: (AUG-CC-PVTZ AUX)
    Blend: AUG-CC-PVTZ-RI
    Number of shells: 126
    Number of basis function: 442
    Number of Cartesian functions: 547
    Spherical Harmonics?: true
    Max angular momentum: 4

	 --------------------------------------------------------
	                 NBF =   207, NAUX =   442
	 --------------------------------------------------------
	   CLASS    FOCC     OCC    AOCC    AVIR     VIR    FVIR
	   PAIRS       0       9       9     198     198       0
	 --------------------------------------------------------

	-----------------------------------------------------------
	 ==================> DF-MP2 Energies <==================== 
	-----------------------------------------------------------
	 Reference Energy          =     -95.2554601950968447 [Eh]
	 Singles Energy            =      -0.0000000000000000 [Eh]
	 Same-Spin Energy          =      -0.0953903145986133 [Eh]
	 Opposite-Spin Energy      =      -0.3516697835099587 [Eh]
	 Correlation Energy        =      -0.4470600981085721 [Eh]
	 Total Energy              =     -95.7025202932054100 [Eh]
	-----------------------------------------------------------
	 ================> DF-SCS-MP2 Energies <================== 
	-----------------------------------------------------------
	 SCS Same-Spin Scale       =       0.3333333333333333 [-]
	 SCS Opposite-Spin Scale   =       1.2000000000000000 [-]
	 SCS Same-Spin Energy      =      -0.0317967715328711 [Eh]
	 SCS Opposite-Spin Energy  =      -0.4220037402119504 [Eh]
	 SCS Correlation Energy    =      -0.4538005117448215 [Eh]
	 SCS Total Energy          =     -95.7092607068416612 [Eh]
	-----------------------------------------------------------


*** tstop() called on node37.bme.utexas.edu at Sat Apr 11 16:36:00 2020
Module time:
	user time   =       4.43 seconds =       0.07 minutes
	system time =       0.50 seconds =       0.01 minutes
	total time  =          1 seconds =       0.02 minutes
Total time:
	user time   =      14.76 seconds =       0.25 minutes
	system time =       1.16 seconds =       0.02 minutes
	total time  =          3 seconds =       0.05 minutes

  //>>>>>>>>>>>>>>>>>>>>>>>>>>>>>>>>>>>>//
  // CBS Computation: MP2 / AUG-CC-PVQZ //
  //<<<<<<<<<<<<<<<<<<<<<<<<<<<<<<<<<<<<//


Scratch directory: /scratch//

*** tstart() called on node37.bme.utexas.edu
*** at Sat Apr 11 16:36:00 2020

   => Loading Basis Set <=

    Name: AUG-CC-PVQZ
    Role: ORBITAL
    Keyword: BASIS
    atoms 1        entry N          line   363 file /home/liuchw/anaconda3/envs/psi4env/share/psi4/basis/aug-cc-pvqz.gbs 
    atoms 2-3, 5-7 entry H          line    40 file /home/liuchw/anaconda3/envs/psi4env/share/psi4/basis/aug-cc-pvqz.gbs 
    atoms 4        entry C          line   303 file /home/liuchw/anaconda3/envs/psi4env/share/psi4/basis/aug-cc-pvqz.gbs 


         ---------------------------------------------------------
                                   SCF
               by Justin Turney, Rob Parrish, Andy Simmonett
                          and Daniel G. A. Smith
                              RHF Reference
                        6 Threads,  38146 MiB Core
         ---------------------------------------------------------

  ==> Geometry <==

    Molecular point group: c1
    Full point group: C1

    Geometry (in Angstrom), charge = 0, multiplicity = 1:

       Center              X                  Y                   Z               Mass       
    ------------   -----------------  -----------------  -----------------  -----------------
         N            1.240645443130     0.642538707958    -0.012210508001    14.003074004430
         H            1.611264443130     1.150314707958     0.780921491999     1.007825032230
         H            1.611387443130     1.106877707958    -0.831469508001     1.007825032230
         C            1.718397443130    -0.743494292042     0.025250491999    12.000000000000
         H            1.326512443130    -1.277520292042    -0.836941508001     1.007825032230
         H            2.805108443130    -0.850230292042     0.028285491999     1.007825032230
         H            1.326270443130    -1.230225292042     0.914882491999     1.007825032230

  Running in c1 symmetry.

  Rotational constants: A =      0.80104  B =      0.21818  C =      0.18206 [cm^-1]
  Rotational constants: A =  24014.69275  B =   6540.84629  C =   5458.10048 [MHz]
  Nuclear repulsion =   42.052032547120945

  Charge       = 0
  Multiplicity = 1
  Electrons    = 18
  Nalpha       = 9
  Nbeta        = 9

  ==> Algorithm <==

  SCF Algorithm Type is DF.
  DIIS enabled.
  MOM disabled.
  Fractional occupation disabled.
  Guess Type is SAD.
  Energy threshold   = 1.00e-07
  Density threshold  = 1.00e-08
  Integral threshold = 0.00e+00

  ==> Primary Basis <==

  Basis Set: AUG-CC-PVQZ
    Blend: AUG-CC-PVQZ
    Number of shells: 110
    Number of basis function: 390
    Number of Cartesian functions: 485
    Spherical Harmonics?: true
    Max angular momentum: 4

   => Loading Basis Set <=

    Name: (AUG-CC-PVQZ AUX)
    Role: JKFIT
    Keyword: DF_BASIS_SCF
    atoms 1        entry N          line   248 file /home/liuchw/anaconda3/envs/psi4env/share/psi4/basis/aug-cc-pvqz-jkfit.gbs 
    atoms 2-3, 5-7 entry H          line    70 file /home/liuchw/anaconda3/envs/psi4env/share/psi4/basis/aug-cc-pvqz-jkfit.gbs 
    atoms 4        entry C          line   178 file /home/liuchw/anaconda3/envs/psi4env/share/psi4/basis/aug-cc-pvqz-jkfit.gbs 

  ==> Pre-Iterations <==

   -------------------------------------------------------
    Irrep   Nso     Nmo     Nalpha   Nbeta   Ndocc  Nsocc
   -------------------------------------------------------
     A        390     390       0       0       0       0
   -------------------------------------------------------
    Total     390     390       9       9       9       0
   -------------------------------------------------------

  ==> Integral Setup <==

  DFHelper Memory: AOs need 0.799 GiB; user supplied 27.940 GiB. Using in-core AOs.

  ==> MemDFJK: Density-Fitted J/K Matrices <==

    J tasked:                   Yes
    K tasked:                   Yes
    wK tasked:                   No
    OpenMP threads:               6
    Memory [MiB]:             28610
    Algorithm:                 Core
    Schwarz Cutoff:           1E-12
    Mask sparsity (%):       0.1578
    Fitting Condition:        1E-10

   => Auxiliary Basis Set <=

  Basis Set: (AUG-CC-PVQZ AUX)
    Blend: AUG-CC-PVQZ-JKFIT
    Number of shells: 158
    Number of basis function: 664
    Number of Cartesian functions: 901
    Spherical Harmonics?: true
    Max angular momentum: 5

  Minimum eigenvalue in the overlap matrix is 1.0731240478E-05.
  Using Symmetric Orthogonalization.

  SCF Guess: Superposition of Atomic Densities via on-the-fly atomic UHF.

  ==> Iterations <==

                           Total Energy        Delta E     RMS |[F,P]|

   @DF-RHF iter SAD:   -94.62547815581193   -9.46255e+01   0.00000e+00 
   @DF-RHF iter   1:   -95.14474840596561   -5.19270e-01   1.20917e-03 DIIS
   @DF-RHF iter   2:   -95.23278666452973   -8.80383e-02   6.56274e-04 DIIS
   @DF-RHF iter   3:   -95.26015204122358   -2.73654e-02   9.36714e-05 DIIS
   @DF-RHF iter   4:   -95.26135449028058   -1.20245e-03   2.73555e-05 DIIS
   @DF-RHF iter   5:   -95.26143548185524   -8.09916e-05   6.72463e-06 DIIS
   @DF-RHF iter   6:   -95.26144173964860   -6.25779e-06   1.37930e-06 DIIS
   @DF-RHF iter   7:   -95.26144216478760   -4.25139e-07   3.13085e-07 DIIS
   @DF-RHF iter   8:   -95.26144218897339   -2.41858e-08   7.63136e-08 DIIS
   @DF-RHF iter   9:   -95.26144219067517   -1.70178e-09   1.80750e-08 DIIS
   @DF-RHF iter  10:   -95.26144219077079   -9.56248e-11   4.49458e-09 DIIS
  Energy and wave function converged.


  ==> Post-Iterations <==

    Orbital Energies [Eh]
    ---------------------

    Doubly Occupied:                                                      

       1A    -15.538178     2A    -11.239359     3A     -1.169697  
       4A     -0.896556     5A     -0.661509     6A     -0.604100  
       7A     -0.555743     8A     -0.517617     9A     -0.393756  

    Virtual:                                                              

      10A      0.026115    11A      0.038620    12A      0.039459  
      13A      0.044383    14A      0.062588    15A      0.086244  
      16A      0.106471    17A      0.107137    18A      0.118847  
      19A      0.121066    20A      0.136239    21A      0.144545  
      22A      0.171665    23A      0.193893    24A      0.202225  
      25A      0.214233    26A      0.226874    27A      0.233464  
      28A      0.239688    29A      0.247612    30A      0.267730  
      31A      0.274060    32A      0.278370    33A      0.280446  
      34A      0.311738    35A      0.320264    36A      0.325559  
      37A      0.326307    38A      0.331048    39A      0.348188  
      40A      0.354587    41A      0.358648    42A      0.379562  
      43A      0.380031    44A      0.391665    45A      0.392400  
      46A      0.407539    47A      0.414272    48A      0.431310  
      49A      0.449437    50A      0.466394    51A      0.502319  
      52A      0.517108    53A      0.520751    54A      0.573447  
      55A      0.580591    56A      0.598679    57A      0.615923  
      58A      0.630544    59A      0.655748    60A      0.674525  
      61A      0.695502    62A      0.704798    63A      0.707079  
      64A      0.711892    65A      0.725235    66A      0.733129  
      67A      0.734553    68A      0.752327    69A      0.752527  
      70A      0.766108    71A      0.785510    72A      0.790473  
      73A      0.798556    74A      0.805261    75A      0.807807  
      76A      0.807811    77A      0.830245    78A      0.833115  
      79A      0.851235    80A      0.862193    81A      0.869687  
      82A      0.890899    83A      0.910389    84A      0.923774  
      85A      0.955528    86A      0.960096    87A      0.983039  
      88A      0.989138    89A      0.996052    90A      1.004867  
      91A      1.013261    92A      1.025483    93A      1.050990  
      94A      1.120503    95A      1.130855    96A      1.156220  
      97A      1.165397    98A      1.185191    99A      1.199697  
     100A      1.201400   101A      1.225130   102A      1.262909  
     103A      1.290060   104A      1.340321   105A      1.362039  
     106A      1.371485   107A      1.389036   108A      1.390110  
     109A      1.459181   110A      1.469176   111A      1.474803  
     112A      1.494425   113A      1.529165   114A      1.529532  
     115A      1.533177   116A      1.535390   117A      1.548878  
     118A      1.584856   119A      1.585454   120A      1.593823  
     121A      1.645836   122A      1.649570   123A      1.690014  
     124A      1.700152   125A      1.706902   126A      1.755467  
     127A      1.771861   128A      1.781431   129A      1.800413  
     130A      1.837932   131A      1.844296   132A      1.850433  
     133A      1.872273   134A      1.888802   135A      1.896811  
     136A      1.933389   137A      1.939526   138A      1.952856  
     139A      1.957900   140A      1.980837   141A      1.997033  
     142A      2.006805   143A      2.017188   144A      2.040524  
     145A      2.042136   146A      2.057395   147A      2.078369  
     148A      2.084757   149A      2.108024   150A      2.131449  
     151A      2.144291   152A      2.165622   153A      2.172778  
     154A      2.193207   155A      2.208911   156A      2.209665  
     157A      2.221312   158A      2.249094   159A      2.256579  
     160A      2.263763   161A      2.293764   162A      2.313255  
     163A      2.319048   164A      2.345664   165A      2.382834  
     166A      2.426513   167A      2.438373   168A      2.479060  
     169A      2.508761   170A      2.527052   171A      2.558507  
     172A      2.583550   173A      2.624139   174A      2.627126  
     175A      2.685220   176A      2.724863   177A      2.745328  
     178A      2.757134   179A      2.800737   180A      2.802792  
     181A      2.825830   182A      2.829044   183A      2.855701  
     184A      2.875376   185A      2.904455   186A      2.911299  
     187A      2.954996   188A      2.998985   189A      3.018124  
     190A      3.058026   191A      3.068094   192A      3.111419  
     193A      3.119846   194A      3.140383   195A      3.155595  
     196A      3.178691   197A      3.207527   198A      3.223994  
     199A      3.239623   200A      3.245837   201A      3.249776  
     202A      3.337162   203A      3.371895   204A      3.421368  
     205A      3.425457   206A      3.476895   207A      3.492224  
     208A      3.557226   209A      3.573794   210A      3.594669  
     211A      3.627007   212A      3.736523   213A      3.737318  
     214A      3.764425   215A      3.773832   216A      3.794403  
     217A      3.813506   218A      3.839503   219A      3.922234  
     220A      3.948439   221A      4.001879   222A      4.009315  
     223A      4.051183   224A      4.069784   225A      4.109079  
     226A      4.111669   227A      4.135638   228A      4.158274  
     229A      4.198640   230A      4.212078   231A      4.242555  
     232A      4.278127   233A      4.286967   234A      4.356696  
     235A      4.448578   236A      4.457463   237A      4.458264  
     238A      4.496067   239A      4.501442   240A      4.580424  
     241A      4.594809   242A      4.630214   243A      4.636283  
     244A      4.670833   245A      4.770409   246A      4.787977  
     247A      4.830984   248A      4.852822   249A      4.858268  
     250A      4.990080   251A      5.079770   252A      5.087498  
     253A      5.142446   254A      5.219446   255A      5.294904  
     256A      5.359577   257A      5.405534   258A      5.433494  
     259A      5.598632   260A      5.653199   261A      6.192178  
     262A      6.242260   263A      6.293582   264A      6.455721  
     265A      6.460977   266A      6.498419   267A      6.707713  
     268A      6.743455   269A      6.751026   270A      6.804425  
     271A      6.826001   272A      6.885178   273A      6.928182  
     274A      6.957156   275A      6.961964   276A      6.984032  
     277A      6.997922   278A      7.009781   279A      7.012297  
     280A      7.110013   281A      7.156664   282A      7.161173  
     283A      7.220629   284A      7.252166   285A      7.337237  
     286A      7.367274   287A      7.419012   288A      7.463942  
     289A      7.471790   290A      7.533830   291A      7.604451  
     292A      7.677435   293A      7.690707   294A      7.709768  
     295A      7.728874   296A      7.762107   297A      7.764623  
     298A      7.832195   299A      7.885458   300A      7.949819  
     301A      7.971903   302A      7.996774   303A      8.017296  
     304A      8.087954   305A      8.089185   306A      8.145654  
     307A      8.155820   308A      8.284928   309A      8.387121  
     310A      8.406377   311A      8.456140   312A      8.496616  
     313A      8.524022   314A      8.566432   315A      8.593478  
     316A      8.670519   317A      8.690691   318A      8.700009  
     319A      8.709450   320A      8.741126   321A      8.816098  
     322A      8.820610   323A      8.941964   324A      8.977799  
     325A      8.978353   326A      9.056944   327A      9.081547  
     328A      9.105256   329A      9.129443   330A      9.201436  
     331A      9.248480   332A      9.271889   333A      9.277221  
     334A      9.315346   335A      9.361569   336A      9.392679  
     337A      9.423031   338A      9.447635   339A      9.457519  
     340A      9.557296   341A      9.618212   342A      9.638625  
     343A      9.658051   344A      9.709991   345A      9.744172  
     346A      9.807785   347A      9.868119   348A      9.871646  
     349A      9.953403   350A      9.996189   351A     10.066721  
     352A     10.090862   353A     10.131595   354A     10.139148  
     355A     10.186330   356A     10.216143   357A     10.231126  
     358A     10.376875   359A     10.475687   360A     10.478190  
     361A     10.523131   362A     10.589432   363A     10.615125  
     364A     10.693063   365A     10.748444   366A     10.772424  
     367A     10.917281   368A     10.919637   369A     10.979819  
     370A     11.044253   371A     11.194528   372A     11.249299  
     373A     11.292845   374A     11.468103   375A     11.490203  
     376A     11.556112   377A     11.578140   378A     12.200029  
     379A     12.346464   380A     12.411532   381A     12.631798  
     382A     12.656025   383A     13.222428   384A     13.255691  
     385A     13.347917   386A     13.642395   387A     14.983294  
     388A     15.211364   389A     29.126953   390A     36.312332  

    Final Occupation by Irrep:
              A 
    DOCC [     9 ]

  @DF-RHF Final Energy:   -95.26144219077079

   => Energetics <=

    Nuclear Repulsion Energy =             42.0520325471209446
    One-Electron Energy =                -211.4739191636166424
    Two-Electron Energy =                  74.1604444257249042
    Total Energy =                        -95.2614421907707936

Computation Completed


Properties will be evaluated at   0.000000,   0.000000,   0.000000 [a0]

Properties computed using the SCF density matrix

  Nuclear Dipole Moment: [e a0]
     X:    52.2990      Y:    -2.0106      Z:     0.2300

  Electronic Dipole Moment: [e a0]
     X:   -51.7294      Y:     2.0136      Z:    -0.2300

  Dipole Moment: [e a0]
     X:     0.5696      Y:     0.0030      Z:    -0.0000     Total:     0.5696

  Dipole Moment: [D]
     X:     1.4479      Y:     0.0075      Z:    -0.0000     Total:     1.4479


*** tstop() called on node37.bme.utexas.edu at Sat Apr 11 16:36:07 2020
Module time:
	user time   =      32.57 seconds =       0.54 minutes
	system time =       2.44 seconds =       0.04 minutes
	total time  =          7 seconds =       0.12 minutes
Total time:
	user time   =      47.37 seconds =       0.79 minutes
	system time =       3.60 seconds =       0.06 minutes
	total time  =         10 seconds =       0.17 minutes

*** tstart() called on node37.bme.utexas.edu
*** at Sat Apr 11 16:36:07 2020


  //>>>>>>>>>>>>>>>>>>>>>>>>>>>>>>>>>>>//
  //               DFMP2               //
  //<<<<<<<<<<<<<<<<<<<<<<<<<<<<<<<<<<<//

   => Loading Basis Set <=

    Name: (AUG-CC-PVQZ AUX)
    Role: RIFIT
    Keyword: DF_BASIS_MP2
    atoms 1        entry N          line   258 file /home/liuchw/anaconda3/envs/psi4env/share/psi4/basis/aug-cc-pvqz-ri.gbs 
    atoms 2-3, 5-7 entry H          line    30 file /home/liuchw/anaconda3/envs/psi4env/share/psi4/basis/aug-cc-pvqz-ri.gbs 
    atoms 4        entry C          line   184 file /home/liuchw/anaconda3/envs/psi4env/share/psi4/basis/aug-cc-pvqz-ri.gbs 

	 --------------------------------------------------------
	                          DF-MP2                         
	      2nd-Order Density-Fitted Moller-Plesset Theory     
	              RMP2 Wavefunction,   6 Threads             
	                                                         
	        Rob Parrish, Justin Turney, Andy Simmonett,      
	           Ed Hohenstein, and C. David Sherrill          
	 --------------------------------------------------------

   => Auxiliary Basis Set <=

  Basis Set: (AUG-CC-PVQZ AUX)
    Blend: AUG-CC-PVQZ-RI
    Number of shells: 172
    Number of basis function: 736
    Number of Cartesian functions: 999
    Spherical Harmonics?: true
    Max angular momentum: 5

	 --------------------------------------------------------
	                 NBF =   390, NAUX =   736
	 --------------------------------------------------------
	   CLASS    FOCC     OCC    AOCC    AVIR     VIR    FVIR
	   PAIRS       0       9       9     381     381       0
	 --------------------------------------------------------

	-----------------------------------------------------------
	 ==================> DF-MP2 Energies <==================== 
	-----------------------------------------------------------
	 Reference Energy          =     -95.2614421907707936 [Eh]
	 Singles Energy            =      -0.0000000000000000 [Eh]
	 Same-Spin Energy          =      -0.1011217624297044 [Eh]
	 Opposite-Spin Energy      =      -0.3925159388395434 [Eh]
	 Correlation Energy        =      -0.4936377012692478 [Eh]
	 Total Energy              =     -95.7550798920400439 [Eh]
	-----------------------------------------------------------
	 ================> DF-SCS-MP2 Energies <================== 
	-----------------------------------------------------------
	 SCS Same-Spin Scale       =       0.3333333333333333 [-]
	 SCS Opposite-Spin Scale   =       1.2000000000000000 [-]
	 SCS Same-Spin Energy      =      -0.0337072541432348 [Eh]
	 SCS Opposite-Spin Energy  =      -0.4710191266074520 [Eh]
	 SCS Correlation Energy    =      -0.5047263807506869 [Eh]
	 SCS Total Energy          =     -95.7661685715214759 [Eh]
	-----------------------------------------------------------


*** tstop() called on node37.bme.utexas.edu at Sat Apr 11 16:36:11 2020
Module time:
	user time   =      13.82 seconds =       0.23 minutes
	system time =       2.44 seconds =       0.04 minutes
	total time  =          4 seconds =       0.07 minutes
Total time:
	user time   =      61.20 seconds =       1.02 minutes
	system time =       6.04 seconds =       0.10 minutes
	total time  =         14 seconds =       0.23 minutes

  //>>>>>>>>>>>>>>>>>>>>>>>>>>>>>>>>>>>//
  //  CBS Results: mp2/aug-cc-pv[tq]z  //
  //<<<<<<<<<<<<<<<<<<<<<<<<<<<<<<<<<<<//


   ==> HF <==

   HI-zeta (4) Energy:               -95.261442190771


   ==> Helgaker 2-point correlated extrapolation for method: MP2 <==

   LO-zeta (3) Energy:               -95.702520293205
   HI-zeta (4) Energy:               -95.755079892040
   Alpha (exponent) Value:             3.000000000000
   Extrapolated Energy:              -95.793434193892

   @Extrapolated MP2/(T,Q):          -95.793434193892



   ==> Helgaker 2-point correlated extrapolation for method: HF <==

   LO-zeta (3) Energy:               -95.255460195097
   HI-zeta (4) Energy:               -95.261442190771
   Alpha (exponent) Value:             3.000000000000
   Extrapolated Energy:              -95.265807430857

   @Extrapolated HF/(T,Q):           -95.265807430857


   ==> Components <==

  ---------------------------------------------------------------------------------------------------------
                          Method / Basis                      Rqd      Energy [Eh]   Variable
  ---------------------------------------------------------------------------------------------------------
                              hf / aug-cc-pvtz                  *     -95.25546020   HF TOTAL ENERGY
                             mp2 / aug-cc-pvtz                  *     -95.70252029   MP2 TOTAL ENERGY
                              hf / aug-cc-pvqz                  *     -95.26144219   HF TOTAL ENERGY
                             mp2 / aug-cc-pvqz                  *     -95.75507989   MP2 TOTAL ENERGY
  ---------------------------------------------------------------------------------------------------------

   ==> Stages <==

  ---------------------------------------------------------------------------------------------------------
      Stage               Method / Basis                       Wt      Energy [Eh]   Scheme
  ---------------------------------------------------------------------------------------------------------
        scf                   hf / aug-cc-pvqz                  1     -95.26144219   xtpl_highest_1
       corl                  mp2 / aug-cc-pv[tq]z               1     -95.79343419   corl_xtpl_helgaker_2
       corl                   hf / aug-cc-pv[tq]z              -1     -95.26580743   corl_xtpl_helgaker_2
  ---------------------------------------------------------------------------------------------------------

   ==> CBS <==

  ---------------------------------------------------------------------------------------------------------
      Stage               Method / Basis                               Energy [Eh]   Scheme
  ---------------------------------------------------------------------------------------------------------
        scf                   hf / aug-cc-pvqz                        -95.26144219   xtpl_highest_1
       corl                  mp2 / aug-cc-pv[tq]z                      -0.52762676   corl_xtpl_helgaker_2
      total                  CBS                                      -95.78906895   
  ---------------------------------------------------------------------------------------------------------
   => Loading Basis Set <=

    Name: DEF2-SVP
    Role: ORBITAL
    Keyword: BASIS
    atoms 1        entry N          line   110 file /home/liuchw/anaconda3/envs/psi4env/share/psi4/basis/def2-svp.gbs 
    atoms 2-3, 5-7 entry H          line    15 file /home/liuchw/anaconda3/envs/psi4env/share/psi4/basis/def2-svp.gbs 
    atoms 4        entry C          line    90 file /home/liuchw/anaconda3/envs/psi4env/share/psi4/basis/def2-svp.gbs 


       N-Body: Complex Energy (fragments = (2,), basis = (2,):   -95.78906895380595)

       N-Body: Computing complex (2/4) with fragments (2,) in the basis of fragments (1, 2).


Scratch directory: /scratch//

  //>>>>>>>>>>>>>>>>>>>>>>>>>>>>>>>>>>>//
  //   CBS Setup: mp2/aug-cc-pv[tq]z   //
  //<<<<<<<<<<<<<<<<<<<<<<<<<<<<<<<<<<<//

    Naive listing of computations required.
             hf / aug-cc-pvqz              for  HF TOTAL ENERGY
            mp2 / aug-cc-pvtz              for  MP2 TOTAL ENERGY
            mp2 / aug-cc-pvqz              for  MP2 TOTAL ENERGY
             hf / aug-cc-pvtz              for  HF TOTAL ENERGY
             hf / aug-cc-pvqz              for  HF TOTAL ENERGY

    Enlightened listing of computations required.
            mp2 / aug-cc-pvtz              for  MP2 TOTAL ENERGY
            mp2 / aug-cc-pvqz              for  MP2 TOTAL ENERGY

    Full listing of computations to be obtained (required and bonus).
             hf / aug-cc-pvtz              for  HF TOTAL ENERGY
            mp2 / aug-cc-pvtz              for  MP2 TOTAL ENERGY
             hf / aug-cc-pvqz              for  HF TOTAL ENERGY
            mp2 / aug-cc-pvqz              for  MP2 TOTAL ENERGY

  //>>>>>>>>>>>>>>>>>>>>>>>>>>>>>>>>>>>>//
  // CBS Computation: MP2 / AUG-CC-PVTZ //
  //<<<<<<<<<<<<<<<<<<<<<<<<<<<<<<<<<<<<//


Scratch directory: /scratch//

*** tstart() called on node37.bme.utexas.edu
*** at Sat Apr 11 16:36:12 2020

   => Loading Basis Set <=

    Name: AUG-CC-PVTZ
    Role: ORBITAL
    Keyword: BASIS
    atoms 1                  entry O          line   331 file /home/liuchw/anaconda3/envs/psi4env/share/psi4/basis/aug-cc-pvtz.gbs 
    atoms 2, 4-6, 8-9, 11-13 entry H          line    40 file /home/liuchw/anaconda3/envs/psi4env/share/psi4/basis/aug-cc-pvtz.gbs 
    atoms 3, 10              entry C          line   239 file /home/liuchw/anaconda3/envs/psi4env/share/psi4/basis/aug-cc-pvtz.gbs 
    atoms 7                  entry N          line   285 file /home/liuchw/anaconda3/envs/psi4env/share/psi4/basis/aug-cc-pvtz.gbs 


         ---------------------------------------------------------
                                   SCF
               by Justin Turney, Rob Parrish, Andy Simmonett
                          and Daniel G. A. Smith
                              RHF Reference
                        6 Threads,  38146 MiB Core
         ---------------------------------------------------------

  ==> Geometry <==

    Molecular point group: c1
    Full point group: C1

    Geometry (in Angstrom), charge = 0, multiplicity = 1:

       Center              X                  Y                   Z               Mass       
    ------------   -----------------  -----------------  -----------------  -----------------
      Gh(O)          -1.304930556870     0.704532707958    -0.003362508001    15.994914619570
      Gh(H)          -0.332386556870     0.730412707958    -0.008409508001     1.007825032230
      Gh(C)          -1.674681556870    -0.655213292042    -0.008134508001    12.000000000000
      Gh(H)          -2.760934556870    -0.704493292042    -0.003883508001     1.007825032230
      Gh(H)          -1.321416556870    -1.185949292042    -0.897491508001     1.007825032230
      Gh(H)          -1.314090556870    -1.194118292042     0.873331491999     1.007825032230
         N            1.240645443130     0.642538707958    -0.012210508001    14.003074004430
         H            1.611264443130     1.150314707958     0.780921491999     1.007825032230
         H            1.611387443130     1.106877707958    -0.831469508001     1.007825032230
         C            1.718397443130    -0.743494292042     0.025250491999    12.000000000000
         H            1.326512443130    -1.277520292042    -0.836941508001     1.007825032230
         H            2.805108443130    -0.850230292042     0.028285491999     1.007825032230
         H            1.326270443130    -1.230225292042     0.914882491999     1.007825032230

  Running in c1 symmetry.

  Rotational constants: A =      0.41896  B =      0.11208  C =      0.09275 [cm^-1]
  Rotational constants: A =  12560.04260  B =   3360.02407  C =   2780.52735 [MHz]
  Nuclear repulsion =   42.052032547120945

  Charge       = 0
  Multiplicity = 1
  Electrons    = 18
  Nalpha       = 9
  Nbeta        = 9

  ==> Algorithm <==

  SCF Algorithm Type is DF.
  DIIS enabled.
  MOM disabled.
  Fractional occupation disabled.
  Guess Type is SAD.
  Energy threshold   = 1.00e-07
  Density threshold  = 1.00e-08
  Integral threshold = 0.00e+00

  ==> Primary Basis <==

  Basis Set: AUG-CC-PVTZ
    Blend: AUG-CC-PVTZ
    Number of shells: 137
    Number of basis function: 391
    Number of Cartesian functions: 445
    Spherical Harmonics?: true
    Max angular momentum: 3

   => Loading Basis Set <=

    Name: (AUG-CC-PVTZ AUX)
    Role: JKFIT
    Keyword: DF_BASIS_SCF
    atoms 1                  entry O          line   286 file /home/liuchw/anaconda3/envs/psi4env/share/psi4/basis/aug-cc-pvtz-jkfit.gbs 
    atoms 2, 4-6, 8-9, 11-13 entry H          line    70 file /home/liuchw/anaconda3/envs/psi4env/share/psi4/basis/aug-cc-pvtz-jkfit.gbs 
    atoms 3, 10              entry C          line   162 file /home/liuchw/anaconda3/envs/psi4env/share/psi4/basis/aug-cc-pvtz-jkfit.gbs 
    atoms 7                  entry N          line   224 file /home/liuchw/anaconda3/envs/psi4env/share/psi4/basis/aug-cc-pvtz-jkfit.gbs 

  ==> Pre-Iterations <==

   -------------------------------------------------------
    Irrep   Nso     Nmo     Nalpha   Nbeta   Ndocc  Nsocc
   -------------------------------------------------------
     A        391     391       0       0       0       0
   -------------------------------------------------------
    Total     391     391       9       9       9       0
   -------------------------------------------------------

  ==> Integral Setup <==

  DFHelper Memory: AOs need 0.971 GiB; user supplied 27.940 GiB. Using in-core AOs.

  ==> MemDFJK: Density-Fitted J/K Matrices <==

    J tasked:                   Yes
    K tasked:                   Yes
    wK tasked:                   No
    OpenMP threads:               6
    Memory [MiB]:             28610
    Algorithm:                 Core
    Schwarz Cutoff:           1E-12
    Mask sparsity (%):       1.8472
    Fitting Condition:        1E-10

   => Auxiliary Basis Set <=

  Basis Set: (AUG-CC-PVTZ AUX)
    Blend: AUG-CC-PVTZ-JKFIT
    Number of shells: 246
    Number of basis function: 830
    Number of Cartesian functions: 1019
    Spherical Harmonics?: true
    Max angular momentum: 4

  Minimum eigenvalue in the overlap matrix is 1.2971086396E-05.
  Using Symmetric Orthogonalization.

  SCF Guess: Superposition of Atomic Densities via on-the-fly atomic UHF.

  ==> Iterations <==

                           Total Energy        Delta E     RMS |[F,P]|

   @DF-RHF iter SAD:   -94.61951213307805   -9.46195e+01   0.00000e+00 
   @DF-RHF iter   1:   -95.13916390537338   -5.19652e-01   1.20362e-03 DIIS
   @DF-RHF iter   2:   -95.22704458877098   -8.78807e-02   6.52464e-04 DIIS
   @DF-RHF iter   3:   -95.25428887767637   -2.72443e-02   9.26346e-05 DIIS
   @DF-RHF iter   4:   -95.25548434035156   -1.19546e-03   2.71770e-05 DIIS
   @DF-RHF iter   5:   -95.25556347183868   -7.91315e-05   6.53831e-06 DIIS
   @DF-RHF iter   6:   -95.25556960832222   -6.13648e-06   1.31699e-06 DIIS
   @DF-RHF iter   7:   -95.25557000589784   -3.97576e-07   2.99681e-07 DIIS
   @DF-RHF iter   8:   -95.25557002899207   -2.30942e-08   7.18465e-08 DIIS
   @DF-RHF iter   9:   -95.25557003056737   -1.57530e-09   1.72753e-08 DIIS
   @DF-RHF iter  10:   -95.25557003065869   -9.13190e-11   4.32491e-09 DIIS
  Energy and wave function converged.


  ==> Post-Iterations <==

    Orbital Energies [Eh]
    ---------------------

    Doubly Occupied:                                                      

       1A    -15.539923     2A    -11.240357     3A     -1.170059  
       4A     -0.896651     5A     -0.661401     6A     -0.603969  
       7A     -0.555602     8A     -0.517430     9A     -0.393523  

    Virtual:                                                              

      10A      0.026782    11A      0.035297    12A      0.041656  
      13A      0.042684    14A      0.056255    15A      0.061051  
      16A      0.064652    17A      0.070460    18A      0.081055  
      19A      0.096910    20A      0.111442    21A      0.122644  
      22A      0.129137    23A      0.134852    24A      0.141488  
      25A      0.144894    26A      0.155090    27A      0.170367  
      28A      0.171467    29A      0.178226    30A      0.195747  
      31A      0.201211    32A      0.212308    33A      0.221321  
      34A      0.237359    35A      0.255600    36A      0.257526  
      37A      0.269424    38A      0.275707    39A      0.278991  
      40A      0.287014    41A      0.311650    42A      0.314221  
      43A      0.319294    44A      0.325855    45A      0.338064  
      46A      0.343792    47A      0.347705    48A      0.353906  
      49A      0.359542    50A      0.374070    51A      0.382730  
      52A      0.390762    53A      0.392945    54A      0.395577  
      55A      0.399034    56A      0.409018    57A      0.411015  
      58A      0.431956    59A      0.442711    60A      0.447070  
      61A      0.455207    62A      0.459350    63A      0.466549  
      64A      0.471491    65A      0.478616    66A      0.485478  
      67A      0.492608    68A      0.506884    69A      0.507317  
      70A      0.519394    71A      0.525172    72A      0.530642  
      73A      0.532403    74A      0.537716    75A      0.547321  
      76A      0.578986    77A      0.583534    78A      0.592428  
      79A      0.602351    80A      0.632347    81A      0.637949  
      82A      0.655639    83A      0.677182    84A      0.682265  
      85A      0.689278    86A      0.696959    87A      0.717936  
      88A      0.724404    89A      0.746958    90A      0.754947  
      91A      0.819932    92A      0.833434    93A      0.846458  
      94A      0.848573    95A      0.855579    96A      0.868628  
      97A      0.875920    98A      0.886292    99A      0.896391  
     100A      0.908614   101A      0.921310   102A      0.926213  
     103A      0.940500   104A      0.941021   105A      0.949011  
     106A      0.960380   107A      0.967927   108A      0.976207  
     109A      0.984954   110A      0.988156   111A      1.013926  
     112A      1.018418   113A      1.034391   114A      1.044030  
     115A      1.048886   116A      1.060994   117A      1.062927  
     118A      1.065845   119A      1.073108   120A      1.092857  
     121A      1.096876   122A      1.107979   123A      1.116478  
     124A      1.120254   125A      1.127339   126A      1.139186  
     127A      1.142910   128A      1.152093   129A      1.172911  
     130A      1.195606   131A      1.199330   132A      1.200098  
     133A      1.208167   134A      1.213905   135A      1.231467  
     136A      1.243172   137A      1.252187   138A      1.255440  
     139A      1.270225   140A      1.275066   141A      1.285687  
     142A      1.303450   143A      1.310222   144A      1.322312  
     145A      1.350982   146A      1.366497   147A      1.370138  
     148A      1.398329   149A      1.416668   150A      1.419642  
     151A      1.430942   152A      1.446663   153A      1.452748  
     154A      1.455493   155A      1.461346   156A      1.504114  
     157A      1.508324   158A      1.541692   159A      1.586995  
     160A      1.597820   161A      1.600381   162A      1.601775  
     163A      1.627420   164A      1.633370   165A      1.652802  
     166A      1.656904   167A      1.660119   168A      1.671300  
     169A      1.714922   170A      1.725745   171A      1.729408  
     172A      1.755270   173A      1.772646   174A      1.785685  
     175A      1.787291   176A      1.816308   177A      1.845113  
     178A      1.856490   179A      1.861500   180A      1.871668  
     181A      1.885372   182A      1.908231   183A      1.912214  
     184A      1.926836   185A      1.956373   186A      1.966525  
     187A      1.967434   188A      1.995856   189A      2.037606  
     190A      2.054294   191A      2.055983   192A      2.075497  
     193A      2.078607   194A      2.084011   195A      2.103935  
     196A      2.117951   197A      2.126592   198A      2.142287  
     199A      2.152067   200A      2.196680   201A      2.207903  
     202A      2.225306   203A      2.240195   204A      2.266718  
     205A      2.294956   206A      2.301955   207A      2.306454  
     208A      2.329596   209A      2.343848   210A      2.375837  
     211A      2.444370   212A      2.450412   213A      2.456274  
     214A      2.480311   215A      2.509266   216A      2.524471  
     217A      2.565610   218A      2.592452   219A      2.595504  
     220A      2.651968   221A      2.668164   222A      2.683339  
     223A      2.715242   224A      2.755549   225A      2.767741  
     226A      2.793732   227A      2.849724   228A      2.874378  
     229A      2.912329   230A      2.975096   231A      3.004946  
     232A      3.007825   233A      3.098458   234A      3.128438  
     235A      3.225281   236A      3.290502   237A      3.395345  
     238A      3.414466   239A      3.477924   240A      3.483604  
     241A      3.490450   242A      3.539896   243A      3.627472  
     244A      3.635614   245A      3.645093   246A      3.657026  
     247A      3.688158   248A      3.694274   249A      3.728379  
     250A      3.756771   251A      3.820839   252A      3.830986  
     253A      3.840014   254A      3.908662   255A      3.954612  
     256A      3.957294   257A      3.968829   258A      4.042034  
     259A      4.062595   260A      4.082494   261A      4.091652  
     262A      4.129208   263A      4.149347   264A      4.159122  
     265A      4.177159   266A      4.203094   267A      4.224159  
     268A      4.247600   269A      4.254988   270A      4.278958  
     271A      4.296308   272A      4.314817   273A      4.331620  
     274A      4.342871   275A      4.377042   276A      4.431185  
     277A      4.452786   278A      4.491474   279A      4.503081  
     280A      4.525857   281A      4.528422   282A      4.557159  
     283A      4.558449   284A      4.581807   285A      4.583105  
     286A      4.632216   287A      4.653393   288A      4.659058  
     289A      4.700037   290A      4.714306   291A      4.723402  
     292A      4.740894   293A      4.800429   294A      4.803657  
     295A      4.817482   296A      4.844593   297A      4.850848  
     298A      4.860710   299A      4.877887   300A      4.899405  
     301A      4.943883   302A      4.959684   303A      4.962520  
     304A      5.010175   305A      5.030945   306A      5.079406  
     307A      5.079684   308A      5.094518   309A      5.104384  
     310A      5.137656   311A      5.150665   312A      5.177303  
     313A      5.207803   314A      5.230654   315A      5.246574  
     316A      5.303191   317A      5.339680   318A      5.357228  
     319A      5.367857   320A      5.395673   321A      5.424096  
     322A      5.443932   323A      5.472624   324A      5.499606  
     325A      5.510321   326A      5.535110   327A      5.540901  
     328A      5.570197   329A      5.574058   330A      5.656643  
     331A      5.677255   332A      5.687931   333A      5.749926  
     334A      5.811266   335A      5.854193   336A      5.884852  
     337A      5.886820   338A      5.992980   339A      6.035056  
     340A      6.069557   341A      6.100872   342A      6.127269  
     343A      6.135523   344A      6.162649   345A      6.186286  
     346A      6.254127   347A      6.263555   348A      6.306599  
     349A      6.321351   350A      6.417245   351A      6.536338  
     352A      6.574508   353A      6.596977   354A      6.690245  
     355A      6.765356   356A      6.809072   357A      6.849374  
     358A      6.893473   359A      6.910725   360A      7.089851  
     361A      7.094807   362A      7.272304   363A      7.328159  
     364A      7.489640   365A      7.741471   366A      7.796894  
     367A      7.867158   368A      7.924576   369A      7.952624  
     370A      7.986702   371A      8.134548   372A      8.186728  
     373A      8.277289   374A      8.387596   375A      8.499022  
     376A      8.756348   377A      9.089693   378A      9.951763  
     379A     10.120714   380A     10.476201   381A     10.506797  
     382A     10.772081   383A     11.156908   384A     12.035408  
     385A     12.636155   386A     13.267171   387A     14.408157  
     388A     17.635571   389A     18.779305   390A     53.429448  
     391A     67.657550  

    Final Occupation by Irrep:
              A 
    DOCC [     9 ]

  @DF-RHF Final Energy:   -95.25557003065869

   => Energetics <=

    Nuclear Repulsion Energy =             42.0520325471209446
    One-Electron Energy =                -211.4573716602913578
    Two-Electron Energy =                  74.1497690825117246
    Total Energy =                        -95.2555700306586886

Computation Completed


Properties will be evaluated at   0.000000,   0.000000,   0.000000 [a0]

Properties computed using the SCF density matrix

  Nuclear Dipole Moment: [e a0]
     X:    52.2990      Y:    -2.0106      Z:     0.2300

  Electronic Dipole Moment: [e a0]
     X:   -51.7289      Y:     2.0137      Z:    -0.2300

  Dipole Moment: [e a0]
     X:     0.5701      Y:     0.0030      Z:    -0.0000     Total:     0.5701

  Dipole Moment: [D]
     X:     1.4490      Y:     0.0077      Z:    -0.0001     Total:     1.4491


*** tstop() called on node37.bme.utexas.edu at Sat Apr 11 16:36:19 2020
Module time:
	user time   =      33.11 seconds =       0.55 minutes
	system time =       1.90 seconds =       0.03 minutes
	total time  =          7 seconds =       0.12 minutes
Total time:
	user time   =      96.18 seconds =       1.60 minutes
	system time =       8.03 seconds =       0.13 minutes
	total time  =         22 seconds =       0.37 minutes

*** tstart() called on node37.bme.utexas.edu
*** at Sat Apr 11 16:36:19 2020


  //>>>>>>>>>>>>>>>>>>>>>>>>>>>>>>>>>>>//
  //               DFMP2               //
  //<<<<<<<<<<<<<<<<<<<<<<<<<<<<<<<<<<<//

   => Loading Basis Set <=

    Name: (AUG-CC-PVTZ AUX)
    Role: RIFIT
    Keyword: DF_BASIS_MP2
    atoms 1                  entry O          line   264 file /home/liuchw/anaconda3/envs/psi4env/share/psi4/basis/aug-cc-pvtz-ri.gbs 
    atoms 2, 4-6, 8-9, 11-13 entry H          line    30 file /home/liuchw/anaconda3/envs/psi4env/share/psi4/basis/aug-cc-pvtz-ri.gbs 
    atoms 3, 10              entry C          line   148 file /home/liuchw/anaconda3/envs/psi4env/share/psi4/basis/aug-cc-pvtz-ri.gbs 
    atoms 7                  entry N          line   206 file /home/liuchw/anaconda3/envs/psi4env/share/psi4/basis/aug-cc-pvtz-ri.gbs 

	 --------------------------------------------------------
	                          DF-MP2                         
	      2nd-Order Density-Fitted Moller-Plesset Theory     
	              RMP2 Wavefunction,   6 Threads             
	                                                         
	        Rob Parrish, Justin Turney, Andy Simmonett,      
	           Ed Hohenstein, and C. David Sherrill          
	 --------------------------------------------------------

   => Auxiliary Basis Set <=

  Basis Set: (AUG-CC-PVTZ AUX)
    Blend: AUG-CC-PVTZ-RI
    Number of shells: 238
    Number of basis function: 838
    Number of Cartesian functions: 1039
    Spherical Harmonics?: true
    Max angular momentum: 4

	 --------------------------------------------------------
	                 NBF =   391, NAUX =   838
	 --------------------------------------------------------
	   CLASS    FOCC     OCC    AOCC    AVIR     VIR    FVIR
	   PAIRS       0       9       9     382     382       0
	 --------------------------------------------------------

	-----------------------------------------------------------
	 ==================> DF-MP2 Energies <==================== 
	-----------------------------------------------------------
	 Reference Energy          =     -95.2555700306586886 [Eh]
	 Singles Energy            =      -0.0000000000000000 [Eh]
	 Same-Spin Energy          =      -0.0955862028218420 [Eh]
	 Opposite-Spin Energy      =      -0.3532840681279307 [Eh]
	 Correlation Energy        =      -0.4488702709497726 [Eh]
	 Total Energy              =     -95.7044403016084573 [Eh]
	-----------------------------------------------------------
	 ================> DF-SCS-MP2 Energies <================== 
	-----------------------------------------------------------
	 SCS Same-Spin Scale       =       0.3333333333333333 [-]
	 SCS Opposite-Spin Scale   =       1.2000000000000000 [-]
	 SCS Same-Spin Energy      =      -0.0318620676072807 [Eh]
	 SCS Opposite-Spin Energy  =      -0.4239408817535168 [Eh]
	 SCS Correlation Energy    =      -0.4558029493607975 [Eh]
	 SCS Total Energy          =     -95.7113729800194903 [Eh]
	-----------------------------------------------------------


*** tstop() called on node37.bme.utexas.edu at Sat Apr 11 16:36:22 2020
Module time:
	user time   =      15.27 seconds =       0.25 minutes
	system time =       1.17 seconds =       0.02 minutes
	total time  =          3 seconds =       0.05 minutes
Total time:
	user time   =     111.46 seconds =       1.86 minutes
	system time =       9.20 seconds =       0.15 minutes
	total time  =         25 seconds =       0.42 minutes

  //>>>>>>>>>>>>>>>>>>>>>>>>>>>>>>>>>>>>//
  // CBS Computation: MP2 / AUG-CC-PVQZ //
  //<<<<<<<<<<<<<<<<<<<<<<<<<<<<<<<<<<<<//


Scratch directory: /scratch//

*** tstart() called on node37.bme.utexas.edu
*** at Sat Apr 11 16:36:22 2020

   => Loading Basis Set <=

    Name: AUG-CC-PVQZ
    Role: ORBITAL
    Keyword: BASIS
    atoms 1                  entry O          line   423 file /home/liuchw/anaconda3/envs/psi4env/share/psi4/basis/aug-cc-pvqz.gbs 
    atoms 2, 4-6, 8-9, 11-13 entry H          line    40 file /home/liuchw/anaconda3/envs/psi4env/share/psi4/basis/aug-cc-pvqz.gbs 
    atoms 3, 10              entry C          line   303 file /home/liuchw/anaconda3/envs/psi4env/share/psi4/basis/aug-cc-pvqz.gbs 
    atoms 7                  entry N          line   363 file /home/liuchw/anaconda3/envs/psi4env/share/psi4/basis/aug-cc-pvqz.gbs 


         ---------------------------------------------------------
                                   SCF
               by Justin Turney, Rob Parrish, Andy Simmonett
                          and Daniel G. A. Smith
                              RHF Reference
                        6 Threads,  38146 MiB Core
         ---------------------------------------------------------

  ==> Geometry <==

    Molecular point group: c1
    Full point group: C1

    Geometry (in Angstrom), charge = 0, multiplicity = 1:

       Center              X                  Y                   Z               Mass       
    ------------   -----------------  -----------------  -----------------  -----------------
      Gh(O)          -1.304930556870     0.704532707958    -0.003362508001    15.994914619570
      Gh(H)          -0.332386556870     0.730412707958    -0.008409508001     1.007825032230
      Gh(C)          -1.674681556870    -0.655213292042    -0.008134508001    12.000000000000
      Gh(H)          -2.760934556870    -0.704493292042    -0.003883508001     1.007825032230
      Gh(H)          -1.321416556870    -1.185949292042    -0.897491508001     1.007825032230
      Gh(H)          -1.314090556870    -1.194118292042     0.873331491999     1.007825032230
         N            1.240645443130     0.642538707958    -0.012210508001    14.003074004430
         H            1.611264443130     1.150314707958     0.780921491999     1.007825032230
         H            1.611387443130     1.106877707958    -0.831469508001     1.007825032230
         C            1.718397443130    -0.743494292042     0.025250491999    12.000000000000
         H            1.326512443130    -1.277520292042    -0.836941508001     1.007825032230
         H            2.805108443130    -0.850230292042     0.028285491999     1.007825032230
         H            1.326270443130    -1.230225292042     0.914882491999     1.007825032230

  Running in c1 symmetry.

  Rotational constants: A =      0.41896  B =      0.11208  C =      0.09275 [cm^-1]
  Rotational constants: A =  12560.04260  B =   3360.02407  C =   2780.52735 [MHz]
  Nuclear repulsion =   42.052032547120945

  Charge       = 0
  Multiplicity = 1
  Electrons    = 18
  Nalpha       = 9
  Nbeta        = 9

  ==> Algorithm <==

  SCF Algorithm Type is DF.
  DIIS enabled.
  MOM disabled.
  Fractional occupation disabled.
  Guess Type is SAD.
  Energy threshold   = 1.00e-07
  Density threshold  = 1.00e-08
  Integral threshold = 0.00e+00

  ==> Primary Basis <==

  Basis Set: AUG-CC-PVQZ
    Blend: AUG-CC-PVQZ
    Number of shells: 206
    Number of basis function: 734
    Number of Cartesian functions: 915
    Spherical Harmonics?: true
    Max angular momentum: 4

   => Loading Basis Set <=

    Name: (AUG-CC-PVQZ AUX)
    Role: JKFIT
    Keyword: DF_BASIS_SCF
    atoms 1                  entry O          line   318 file /home/liuchw/anaconda3/envs/psi4env/share/psi4/basis/aug-cc-pvqz-jkfit.gbs 
    atoms 2, 4-6, 8-9, 11-13 entry H          line    70 file /home/liuchw/anaconda3/envs/psi4env/share/psi4/basis/aug-cc-pvqz-jkfit.gbs 
    atoms 3, 10              entry C          line   178 file /home/liuchw/anaconda3/envs/psi4env/share/psi4/basis/aug-cc-pvqz-jkfit.gbs 
    atoms 7                  entry N          line   248 file /home/liuchw/anaconda3/envs/psi4env/share/psi4/basis/aug-cc-pvqz-jkfit.gbs 

  ==> Pre-Iterations <==

   -------------------------------------------------------
    Irrep   Nso     Nmo     Nalpha   Nbeta   Ndocc  Nsocc
   -------------------------------------------------------
     A        734     734       0       0       0       0
   -------------------------------------------------------
    Total     734     734       9       9       9       0
   -------------------------------------------------------

  ==> Integral Setup <==

  DFHelper Memory: AOs need 4.960 GiB; user supplied 27.940 GiB. Using in-core AOs.

  ==> MemDFJK: Density-Fitted J/K Matrices <==

    J tasked:                   Yes
    K tasked:                   Yes
    wK tasked:                   No
    OpenMP threads:               6
    Memory [MiB]:             28610
    Algorithm:                 Core
    Schwarz Cutoff:           1E-12
    Mask sparsity (%):       4.6433
    Fitting Condition:        1E-10

   => Auxiliary Basis Set <=

  Basis Set: (AUG-CC-PVQZ AUX)
    Blend: AUG-CC-PVQZ-JKFIT
    Number of shells: 298
    Number of basis function: 1252
    Number of Cartesian functions: 1701
    Spherical Harmonics?: true
    Max angular momentum: 5

  Minimum eigenvalue in the overlap matrix is 2.0491030937E-06.
  Using Symmetric Orthogonalization.

  SCF Guess: Superposition of Atomic Densities via on-the-fly atomic UHF.

  ==> Iterations <==

                           Total Energy        Delta E     RMS |[F,P]|

   @DF-RHF iter SAD:   -94.62547838391427   -9.46255e+01   0.00000e+00 
   @DF-RHF iter   1:   -95.14477725765281   -5.19299e-01   6.42504e-04 DIIS
   @DF-RHF iter   2:   -95.23282025600930   -8.80430e-02   3.48744e-04 DIIS
   @DF-RHF iter   3:   -95.26018754944378   -2.73673e-02   4.97738e-05 DIIS
   @DF-RHF iter   4:   -95.26139018399596   -1.20263e-03   1.45377e-05 DIIS
   @DF-RHF iter   5:   -95.26147119830141   -8.10143e-05   3.57382e-06 DIIS
   @DF-RHF iter   6:   -95.26147745742219   -6.25912e-06   7.33358e-07 DIIS
   @DF-RHF iter   7:   -95.26147788332037   -4.25898e-07   1.66573e-07 DIIS
   @DF-RHF iter   8:   -95.26147790755508   -2.42347e-08   4.06111e-08 DIIS
   @DF-RHF iter   9:   -95.26147790925982   -1.70475e-09   9.61463e-09 DIIS
  Energy and wave function converged.


  ==> Post-Iterations <==

    Orbital Energies [Eh]
    ---------------------

    Doubly Occupied:                                                      

       1A    -15.538197     2A    -11.239355     3A     -1.169688  
       4A     -0.896550     5A     -0.661503     6A     -0.604099  
       7A     -0.555740     8A     -0.517614     9A     -0.393758  

    Virtual:                                                              

      10A      0.023753    11A      0.031527    12A      0.037412  
      13A      0.038340    14A      0.050665    15A      0.055651  
      16A      0.058613    17A      0.063902    18A      0.072930  
      19A      0.084481    20A      0.099199    21A      0.107355  
      22A      0.112962    23A      0.115367    24A      0.122391  
      25A      0.125344    26A      0.135214    27A      0.145813  
      28A      0.146167    29A      0.155911    30A      0.169164  
      31A      0.173597    32A      0.184476    33A      0.189119  
      34A      0.205350    35A      0.216495    36A      0.221700  
      37A      0.224893    38A      0.231826    39A      0.239739  
      40A      0.242291    41A      0.260416    42A      0.262982  
      43A      0.269775    44A      0.273422    45A      0.277617  
      46A      0.286822    47A      0.289017    48A      0.292177  
      49A      0.302939    50A      0.312462    51A      0.314337  
      52A      0.321454    53A      0.324986    54A      0.329907  
      55A      0.332202    56A      0.338586    57A      0.339288  
      58A      0.359243    59A      0.359858    60A      0.360854  
      61A      0.379981    62A      0.387114    63A      0.388131  
      64A      0.393139    65A      0.393861    66A      0.403442  
      67A      0.408477    68A      0.416494    69A      0.418811  
      70A      0.420153    71A      0.431090    72A      0.432361  
      73A      0.435739    74A      0.450330    75A      0.460454  
      76A      0.469860    77A      0.477598    78A      0.485908  
      79A      0.489647    80A      0.495625    81A      0.522954  
      82A      0.539299    83A      0.542469    84A      0.550657  
      85A      0.556176    86A      0.557715    87A      0.568258  
      88A      0.574818    89A      0.583820    90A      0.606170  
      91A      0.616854    92A      0.628434    93A      0.650695  
      94A      0.655176    95A      0.664070    96A      0.674430  
      97A      0.693743    98A      0.698000    99A      0.703589  
     100A      0.704279   101A      0.712793   102A      0.725410  
     103A      0.727503   104A      0.728835   105A      0.735208  
     106A      0.738990   107A      0.742800   108A      0.753458  
     109A      0.759234   110A      0.772561   111A      0.773580  
     112A      0.782878   113A      0.786355   114A      0.791989  
     115A      0.798611   116A      0.810354   117A      0.814215  
     118A      0.826996   119A      0.832480   120A      0.845571  
     121A      0.851186   122A      0.859339   123A      0.861292  
     124A      0.862301   125A      0.864104   126A      0.873049  
     127A      0.874459   128A      0.886574   129A      0.891487  
     130A      0.897994   131A      0.911192   132A      0.924022  
     133A      0.932741   134A      0.935946   135A      0.938109  
     136A      0.946904   137A      0.959887   138A      0.961874  
     139A      0.967399   140A      0.974150   141A      0.981218  
     142A      1.000304   143A      1.004075   144A      1.020096  
     145A      1.025100   146A      1.040360   147A      1.056526  
     148A      1.070830   149A      1.071530   150A      1.086169  
     151A      1.089096   152A      1.091551   153A      1.096624  
     154A      1.100008   155A      1.118338   156A      1.131034  
     157A      1.147192   158A      1.157922   159A      1.176260  
     160A      1.187017   161A      1.195513   162A      1.199257  
     163A      1.200825   164A      1.203687   165A      1.219193  
     166A      1.238073   167A      1.259427   168A      1.268317  
     169A      1.276517   170A      1.286966   171A      1.291345  
     172A      1.312707   173A      1.316618   174A      1.341640  
     175A      1.343427   176A      1.356466   177A      1.358333  
     178A      1.364625   179A      1.368492   180A      1.388879  
     181A      1.393673   182A      1.403261   183A      1.421515  
     184A      1.423334   185A      1.436362   186A      1.452340  
     187A      1.454737   188A      1.472793   189A      1.484613  
     190A      1.521039   191A      1.531506   192A      1.538100  
     193A      1.541404   194A      1.551584   195A      1.554482  
     196A      1.574523   197A      1.580773   198A      1.590436  
     199A      1.598394   200A      1.611808   201A      1.622025  
     202A      1.629798   203A      1.633227   204A      1.637640  
     205A      1.661969   206A      1.668329   207A      1.695090  
     208A      1.703725   209A      1.707247   210A      1.718647  
     211A      1.738457   212A      1.740001   213A      1.742916  
     214A      1.760804   215A      1.777028   216A      1.793510  
     217A      1.795793   218A      1.808514   219A      1.811585  
     220A      1.821376   221A      1.830232   222A      1.832577  
     223A      1.842112   224A      1.855964   225A      1.875589  
     226A      1.882701   227A      1.898700   228A      1.906742  
     229A      1.910874   230A      1.920132   231A      1.925167  
     232A      1.944281   233A      1.958356   234A      1.967139  
     235A      1.978179   236A      1.984588   237A      2.018550  
     238A      2.023239   239A      2.026379   240A      2.037985  
     241A      2.040783   242A      2.057444   243A      2.062750  
     244A      2.082175   245A      2.086328   246A      2.090027  
     247A      2.102532   248A      2.111556   249A      2.123018  
     250A      2.129017   251A      2.135618   252A      2.145494  
     253A      2.146571   254A      2.166254   255A      2.168621  
     256A      2.173241   257A      2.178367   258A      2.192579  
     259A      2.210461   260A      2.214349   261A      2.220359  
     262A      2.238500   263A      2.246228   264A      2.254216  
     265A      2.259038   266A      2.265874   267A      2.286522  
     268A      2.305453   269A      2.313284   270A      2.318850  
     271A      2.335539   272A      2.337407   273A      2.344223  
     274A      2.349370   275A      2.352681   276A      2.364015  
     277A      2.367437   278A      2.392569   279A      2.400513  
     280A      2.402192   281A      2.417305   282A      2.436961  
     283A      2.449452   284A      2.452203   285A      2.463377  
     286A      2.477020   287A      2.490006   288A      2.512350  
     289A      2.533246   290A      2.548570   291A      2.556742  
     292A      2.565510   293A      2.574142   294A      2.581824  
     295A      2.590823   296A      2.620462   297A      2.642211  
     298A      2.649982   299A      2.651966   300A      2.659634  
     301A      2.682397   302A      2.709009   303A      2.720464  
     304A      2.731340   305A      2.734452   306A      2.747806  
     307A      2.767464   308A      2.787688   309A      2.802484  
     310A      2.811102   311A      2.816073   312A      2.823349  
     313A      2.835946   314A      2.847551   315A      2.856057  
     316A      2.876990   317A      2.883218   318A      2.896670  
     319A      2.926243   320A      2.934316   321A      2.959297  
     322A      2.965902   323A      2.972110   324A      2.978348  
     325A      3.002678   326A      3.006508   327A      3.028897  
     328A      3.042738   329A      3.050869   330A      3.061951  
     331A      3.079699   332A      3.089935   333A      3.093029  
     334A      3.107532   335A      3.116890   336A      3.137170  
     337A      3.148162   338A      3.179256   339A      3.188194  
     340A      3.208180   341A      3.226277   342A      3.235871  
     343A      3.240340   344A      3.245885   345A      3.253824  
     346A      3.259713   347A      3.267939   348A      3.298818  
     349A      3.304242   350A      3.337462   351A      3.346422  
     352A      3.360495   353A      3.376752   354A      3.390789  
     355A      3.406065   356A      3.421769   357A      3.427105  
     358A      3.438628   359A      3.455473   360A      3.465451  
     361A      3.482733   362A      3.498213   363A      3.513731  
     364A      3.542505   365A      3.550094   366A      3.595497  
     367A      3.598709   368A      3.629045   369A      3.661450  
     370A      3.671401   371A      3.685705   372A      3.709650  
     373A      3.713181   374A      3.719743   375A      3.745270  
     376A      3.775885   377A      3.787123   378A      3.810037  
     379A      3.837399   380A      3.849761   381A      3.863505  
     382A      3.868770   383A      3.883601   384A      3.886692  
     385A      3.915713   386A      3.938235   387A      3.974863  
     388A      3.981267   389A      3.995467   390A      4.004543  
     391A      4.024171   392A      4.027916   393A      4.053605  
     394A      4.060099   395A      4.098634   396A      4.113004  
     397A      4.117933   398A      4.135749   399A      4.164900  
     400A      4.181787   401A      4.186580   402A      4.195012  
     403A      4.216929   404A      4.224256   405A      4.250382  
     406A      4.264171   407A      4.275964   408A      4.297577  
     409A      4.307920   410A      4.334527   411A      4.346674  
     412A      4.358828   413A      4.416543   414A      4.419971  
     415A      4.430252   416A      4.471256   417A      4.474566  
     418A      4.485904   419A      4.499303   420A      4.516585  
[...]
     286A      2.346690   287A      2.348682   288A      2.357315  
     289A      2.358342   290A      2.371786   291A      2.380308  
     292A      2.382761   293A      2.394173   294A      2.407478  
     295A      2.412126   296A      2.440212   297A      2.461476  
     298A      2.487184   299A      2.497624   300A      2.510339  
     301A      2.523180   302A      2.525426   303A      2.555689  
     304A      2.568255   305A      2.571078   306A      2.576060  
     307A      2.580570   308A      2.624366   309A      2.649657  
     310A      2.660221   311A      2.662888   312A      2.670317  
     313A      2.682935   314A      2.696682   315A      2.707120  
     316A      2.717340   317A      2.730690   318A      2.751482  
     319A      2.756391   320A      2.765658   321A      2.786531  
     322A      2.803886   323A      2.808509   324A      2.830999  
     325A      2.843038   326A      2.850889   327A      2.857814  
     328A      2.878972   329A      2.886011   330A      2.896443  
     331A      2.901088   332A      2.911546   333A      2.921205  
     334A      2.928094   335A      2.952719   336A      2.970046  
     337A      2.981198   338A      2.992105   339A      2.997850  
     340A      3.006499   341A      3.010670   342A      3.026334  
     343A      3.027527   344A      3.045379   345A      3.057226  
     346A      3.068329   347A      3.089256   348A      3.101965  
     349A      3.119979   350A      3.134705   351A      3.155339  
     352A      3.177315   353A      3.202901   354A      3.205907  
     355A      3.219166   356A      3.231496   357A      3.241210  
     358A      3.243250   359A      3.260592   360A      3.270949  
     361A      3.285413   362A      3.313597   363A      3.322757  
     364A      3.337458   365A      3.362038   366A      3.367327  
     367A      3.372280   368A      3.426369   369A      3.428026  
     370A      3.430240   371A      3.460378   372A      3.490388  
     373A      3.502657   374A      3.525137   375A      3.569964  
     376A      3.585809   377A      3.606360   378A      3.616109  
     379A      3.631124   380A      3.643981   381A      3.669713  
     382A      3.688178   383A      3.701690   384A      3.723086  
     385A      3.732335   386A      3.767055   387A      3.772857  
     388A      3.780821   389A      3.805565   390A      3.828084  
     391A      3.832610   392A      3.850919   393A      3.866737  
     394A      3.882263   395A      3.897955   396A      3.905196  
     397A      3.914407   398A      3.923348   399A      3.938904  
     400A      3.996000   401A      4.012282   402A      4.025333  
     403A      4.036008   404A      4.047628   405A      4.064090  
     406A      4.080753   407A      4.121999   408A      4.129689  
     409A      4.131185   410A      4.141369   411A      4.163496  
     412A      4.198118   413A      4.215267   414A      4.220663  
     415A      4.224264   416A      4.245205   417A      4.261334  
     418A      4.263134   419A      4.288440   420A      4.306802  
     421A      4.327951   422A      4.348384   423A      4.353990  
     424A      4.389003   425A      4.397240   426A      4.408444  
     427A      4.411426   428A      4.448840   429A      4.456074  
     430A      4.477154   431A      4.501830   432A      4.506713  
     433A      4.518318   434A      4.552677   435A      4.575804  
     436A      4.596242   437A      4.603130   438A      4.638325  
     439A      4.645133   440A      4.663480   441A      4.676213  
     442A      4.704408   443A      4.713777   444A      4.720220  
     445A      4.759652   446A      4.762635   447A      4.778186  
     448A      4.808159   449A      4.813752   450A      4.817266  
     451A      4.866941   452A      4.878052   453A      4.903910  
     454A      4.929183   455A      4.934886   456A      4.970755  
     457A      4.998098   458A      5.005571   459A      5.054971  
     460A      5.064569   461A      5.107618   462A      5.116867  
     463A      5.157843   464A      5.176122   465A      5.183768  
     466A      5.221116   467A      5.260037   468A      5.272390  
     469A      5.314948   470A      5.364568   471A      5.384131  
     472A      5.395169   473A      5.446008   474A      5.478055  
     475A      5.499062   476A      5.529383   477A      5.585038  
     478A      5.613165   479A      5.623172   480A      5.638731  
     481A      5.714968   482A      5.732014   483A      5.781725  
     484A      5.787510   485A      5.848154   486A      6.037540  
     487A      6.176170   488A      6.247330   489A      6.258568  
     490A      6.291208   491A      6.307956   492A      6.354449  
     493A      6.405802   494A      6.426086   495A      6.485213  
     496A      6.527429   497A      6.540324   498A      6.646333  
     499A      6.646575   500A      6.687166   501A      6.736253  
     502A      6.743050   503A      6.783970   504A      6.797242  
     505A      6.840620   506A      6.861036   507A      6.865690  
     508A      6.889519   509A      6.924062   510A      6.925154  
     511A      6.941382   512A      6.959536   513A      6.983240  
     514A      6.985562   515A      6.992289   516A      7.005629  
     517A      7.014542   518A      7.032886   519A      7.033609  
     520A      7.051642   521A      7.078194   522A      7.091559  
     523A      7.102379   524A      7.113835   525A      7.125386  
     526A      7.128224   527A      7.187012   528A      7.221475  
     529A      7.239718   530A      7.257581   531A      7.267319  
     532A      7.297660   533A      7.355453   534A      7.396922  
     535A      7.401972   536A      7.411398   537A      7.493155  
     538A      7.511517   539A      7.536854   540A      7.547600  
     541A      7.552803   542A      7.600455   543A      7.608839  
     544A      7.629516   545A      7.654386   546A      7.677232  
     547A      7.681269   548A      7.722318   549A      7.734236  
     550A      7.755915   551A      7.767601   552A      7.836948  
     553A      7.887936   554A      7.893004   555A      7.915242  
     556A      7.928429   557A      7.951920   558A      7.954703  
     559A      7.963715   560A      7.996686   561A      7.999225  
     562A      8.034383   563A      8.037566   564A      8.076774  
     565A      8.093352   566A      8.137894   567A      8.145090  
     568A      8.191149   569A      8.207099   570A      8.210514  
     571A      8.237713   572A      8.321009   573A      8.360998  
     574A      8.424130   575A      8.429290   576A      8.443162  
     577A      8.477725   578A      8.482088   579A      8.497637  
     580A      8.522037   581A      8.546626   582A      8.581688  
     583A      8.608822   584A      8.622982   585A      8.686763  
     586A      8.704825   587A      8.715355   588A      8.755387  
     589A      8.770279   590A      8.780179   591A      8.781686  
     592A      8.789827   593A      8.799964   594A      8.825539  
     595A      8.834434   596A      8.886701   597A      8.942573  
     598A      8.947763   599A      8.954579   600A      8.996475  
     601A      9.000361   602A      9.034773   603A      9.041530  
     604A      9.066612   605A      9.104352   606A      9.133225  
     607A      9.155533   608A      9.182762   609A      9.201286  
     610A      9.209637   611A      9.224652   612A      9.255868  
     613A      9.301273   614A      9.305173   615A      9.318212  
     616A      9.337583   617A      9.364123   618A      9.390525  
     619A      9.409542   620A      9.417537   621A      9.436754  
     622A      9.455501   623A      9.469038   624A      9.473220  
     625A      9.540144   626A      9.582307   627A      9.583402  
     628A      9.618288   629A      9.624261   630A      9.646044  
     631A      9.693376   632A      9.700645   633A      9.742402  
     634A      9.770745   635A      9.780650   636A      9.781878  
     637A      9.815231   638A      9.853943   639A      9.864776  
     640A      9.909565   641A      9.925827   642A      9.942255  
     643A      9.968485   644A     10.016025   645A     10.061886  
     646A     10.071398   647A     10.107147   648A     10.139418  
     649A     10.142613   650A     10.198487   651A     10.201558  
     652A     10.203897   653A     10.220866   654A     10.243670  
     655A     10.245388   656A     10.276775   657A     10.308159  
     658A     10.344648   659A     10.353887   660A     10.455737  
     661A     10.483252   662A     10.491578   663A     10.497919  
     664A     10.523128   665A     10.554088   666A     10.606925  
     667A     10.641070   668A     10.663939   669A     10.712941  
     670A     10.732997   671A     10.827572   672A     10.854051  
     673A     10.915503   674A     10.949449   675A     10.968433  
     676A     10.988983   677A     11.027329   678A     11.053988  
     679A     11.115842   680A     11.144473   681A     11.153345  
     682A     11.240032   683A     11.287083   684A     11.290867  
     685A     11.322165   686A     11.328586   687A     11.430718  
     688A     11.446691   689A     11.472586   690A     11.492120  
     691A     11.520423   692A     11.559630   693A     11.589956  
     694A     11.633009   695A     11.717544   696A     11.835988  
     697A     11.958654   698A     12.026764   699A     12.118137  
     700A     12.191440   701A     12.249950   702A     12.329545  
     703A     12.438489   704A     12.455839   705A     12.476274  
     706A     12.617563   707A     12.675690   708A     12.754225  
     709A     12.814953   710A     12.918175   711A     13.173470  
     712A     13.200642   713A     13.275963   714A     13.370014  
     715A     13.385340   716A     13.432918   717A     13.457420  
     718A     13.491844   719A     13.518505   720A     13.816153  
     721A     13.823943   722A     13.892748   723A     13.922455  
     724A     14.445379   725A     14.895442   726A     15.107377  
     727A     15.198077   728A     15.273683   729A     15.517940  
     730A     17.785053   731A     29.212415   732A     29.354804  
     733A     37.231939   734A     46.002733  

    Final Occupation by Irrep:
              A 
    DOCC [    18 ]

  @DF-RHF Final Energy:  -210.35695191096147

   => Energetics <=

    Nuclear Repulsion Energy =            137.4311795202526127
    One-Electron Energy =                -558.6510715483694867
    Two-Electron Energy =                 210.8629401171554036
    Total Energy =                       -210.3569519109614703

Computation Completed


Properties will be evaluated at   0.000000,   0.000000,   0.000000 [a0]

Properties computed using the SCF density matrix

  Nuclear Dipole Moment: [e a0]
     X:     2.7573      Y:    -3.2374      Z:     0.0180

  Electronic Dipole Moment: [e a0]
     X:    -1.2170      Y:     2.7802      Z:    -0.0227

  Dipole Moment: [e a0]
     X:     1.5403      Y:    -0.4571      Z:    -0.0047     Total:     1.6067

  Dipole Moment: [D]
     X:     3.9151      Y:    -1.1620      Z:    -0.0119     Total:     4.0839


*** tstop() called on node37.bme.utexas.edu at Sat Apr 11 16:39:10 2020
Module time:
	user time   =     172.51 seconds =       2.88 minutes
	system time =       7.82 seconds =       0.13 minutes
	total time  =         35 seconds =       0.58 minutes
Total time:
	user time   =     857.78 seconds =      14.30 minutes
	system time =      55.06 seconds =       0.92 minutes
	total time  =        193 seconds =       3.22 minutes

*** tstart() called on node37.bme.utexas.edu
*** at Sat Apr 11 16:39:10 2020


  //>>>>>>>>>>>>>>>>>>>>>>>>>>>>>>>>>>>//
  //               DFMP2               //
  //<<<<<<<<<<<<<<<<<<<<<<<<<<<<<<<<<<<//

   => Loading Basis Set <=

    Name: (AUG-CC-PVQZ AUX)
    Role: RIFIT
    Keyword: DF_BASIS_MP2
    atoms 1                  entry O          line   332 file /home/liuchw/anaconda3/envs/psi4env/share/psi4/basis/aug-cc-pvqz-ri.gbs 
    atoms 2, 4-6, 8-9, 11-13 entry H          line    30 file /home/liuchw/anaconda3/envs/psi4env/share/psi4/basis/aug-cc-pvqz-ri.gbs 
    atoms 3, 10              entry C          line   184 file /home/liuchw/anaconda3/envs/psi4env/share/psi4/basis/aug-cc-pvqz-ri.gbs 
    atoms 7                  entry N          line   258 file /home/liuchw/anaconda3/envs/psi4env/share/psi4/basis/aug-cc-pvqz-ri.gbs 

	 --------------------------------------------------------
	                          DF-MP2                         
	      2nd-Order Density-Fitted Moller-Plesset Theory     
	              RMP2 Wavefunction,   6 Threads             
	                                                         
	        Rob Parrish, Justin Turney, Andy Simmonett,      
	           Ed Hohenstein, and C. David Sherrill          
	 --------------------------------------------------------

   => Auxiliary Basis Set <=

  Basis Set: (AUG-CC-PVQZ AUX)
    Blend: AUG-CC-PVQZ-RI
    Number of shells: 324
    Number of basis function: 1392
    Number of Cartesian functions: 1893
    Spherical Harmonics?: true
    Max angular momentum: 5

	 --------------------------------------------------------
	                 NBF =   734, NAUX =  1392
	 --------------------------------------------------------
	   CLASS    FOCC     OCC    AOCC    AVIR     VIR    FVIR
	   PAIRS       0      18      18     716     716       0
	 --------------------------------------------------------

	-----------------------------------------------------------
	 ==================> DF-MP2 Energies <==================== 
	-----------------------------------------------------------
	 Reference Energy          =    -210.3569519109614703 [Eh]
	 Singles Energy            =      -0.0000000000000000 [Eh]
	 Same-Spin Energy          =      -0.2194553374600410 [Eh]
	 Opposite-Spin Energy      =      -0.8090263453007280 [Eh]
	 Correlation Energy        =      -1.0284816827607690 [Eh]
	 Total Energy              =    -211.3854335937222402 [Eh]
	-----------------------------------------------------------
	 ================> DF-SCS-MP2 Energies <================== 
	-----------------------------------------------------------
	 SCS Same-Spin Scale       =       0.3333333333333333 [-]
	 SCS Opposite-Spin Scale   =       1.2000000000000000 [-]
	 SCS Same-Spin Energy      =      -0.0731517791533470 [Eh]
	 SCS Opposite-Spin Energy  =      -0.9708316143608736 [Eh]
	 SCS Correlation Energy    =      -1.0439833935142206 [Eh]
	 SCS Total Energy          =    -211.4009353044756949 [Eh]
	-----------------------------------------------------------


*** tstop() called on node37.bme.utexas.edu at Sat Apr 11 16:39:28 2020
Module time:
	user time   =      67.30 seconds =       1.12 minutes
	system time =       4.66 seconds =       0.08 minutes
	total time  =         18 seconds =       0.30 minutes
Total time:
	user time   =     925.08 seconds =      15.42 minutes
	system time =      59.72 seconds =       1.00 minutes
	total time  =        211 seconds =       3.52 minutes

  //>>>>>>>>>>>>>>>>>>>>>>>>>>>>>>>>>>>//
  //  CBS Results: mp2/aug-cc-pv[tq]z  //
  //<<<<<<<<<<<<<<<<<<<<<<<<<<<<<<<<<<<//


   ==> HF <==

   HI-zeta (4) Energy:               -210.356951910961


   ==> Helgaker 2-point correlated extrapolation for method: MP2 <==

   LO-zeta (3) Energy:               -211.274001182100
   HI-zeta (4) Energy:               -211.385433593722
   Alpha (exponent) Value:             3.000000000000
   Extrapolated Energy:              -211.466749137338

   @Extrapolated MP2/(T,Q):          -211.466749137338



   ==> Helgaker 2-point correlated extrapolation for method: HF <==

   LO-zeta (3) Energy:               -210.343603524636
   HI-zeta (4) Energy:               -210.356951910961
   Alpha (exponent) Value:             3.000000000000
   Extrapolated Energy:              -210.366692625307

   @Extrapolated HF/(T,Q):           -210.366692625307


   ==> Components <==

  ---------------------------------------------------------------------------------------------------------
                          Method / Basis                      Rqd      Energy [Eh]   Variable
  ---------------------------------------------------------------------------------------------------------
                              hf / aug-cc-pvtz                  *    -210.34360352   HF TOTAL ENERGY
                             mp2 / aug-cc-pvtz                  *    -211.27400118   MP2 TOTAL ENERGY
                              hf / aug-cc-pvqz                  *    -210.35695191   HF TOTAL ENERGY
                             mp2 / aug-cc-pvqz                  *    -211.38543359   MP2 TOTAL ENERGY
  ---------------------------------------------------------------------------------------------------------

   ==> Stages <==

  ---------------------------------------------------------------------------------------------------------
      Stage               Method / Basis                       Wt      Energy [Eh]   Scheme
  ---------------------------------------------------------------------------------------------------------
        scf                   hf / aug-cc-pvqz                  1    -210.35695191   xtpl_highest_1
       corl                  mp2 / aug-cc-pv[tq]z               1    -211.46674914   corl_xtpl_helgaker_2
       corl                   hf / aug-cc-pv[tq]z              -1    -210.36669263   corl_xtpl_helgaker_2
  ---------------------------------------------------------------------------------------------------------

   ==> CBS <==

  ---------------------------------------------------------------------------------------------------------
      Stage               Method / Basis                               Energy [Eh]   Scheme
  ---------------------------------------------------------------------------------------------------------
        scf                   hf / aug-cc-pvqz                       -210.35695191   xtpl_highest_1
       corl                  mp2 / aug-cc-pv[tq]z                      -1.10005651   corl_xtpl_helgaker_2
      total                  CBS                                     -211.45700842   
  ---------------------------------------------------------------------------------------------------------
   => Loading Basis Set <=

    Name: DEF2-SVP
    Role: ORBITAL
    Keyword: BASIS
    atoms 1                  entry O          line   130 file /home/liuchw/anaconda3/envs/psi4env/share/psi4/basis/def2-svp.gbs 
    atoms 2, 4-6, 8-9, 11-13 entry H          line    15 file /home/liuchw/anaconda3/envs/psi4env/share/psi4/basis/def2-svp.gbs 
    atoms 3, 10              entry C          line    90 file /home/liuchw/anaconda3/envs/psi4env/share/psi4/basis/def2-svp.gbs 
    atoms 7                  entry N          line   110 file /home/liuchw/anaconda3/envs/psi4env/share/psi4/basis/def2-svp.gbs 


       N-Body: Complex Energy (fragments = (1, 2), basis = (1, 2):  -211.45700842299260)

   ==> N-Body: Counterpoise Corrected (CP) energies <==

   n-Body     Total Energy [Eh]       I.E. [kcal/mol]      Delta [kcal/mol]
        1     -211.449770898450        0.000000000000        0.000000000000
        2     -211.456761892149       -4.386914777165       -4.386914777165

   => Loading Basis Set <=

    Name: DEF2-SVP
    Role: ORBITAL
    Keyword: BASIS
    atoms 1                  entry O          line   130 file /home/liuchw/anaconda3/envs/psi4env/share/psi4/basis/def2-svp.gbs 
    atoms 2, 4-6, 8-9, 11-13 entry H          line    15 file /home/liuchw/anaconda3/envs/psi4env/share/psi4/basis/def2-svp.gbs 
    atoms 3, 10              entry C          line    90 file /home/liuchw/anaconda3/envs/psi4env/share/psi4/basis/def2-svp.gbs 
    atoms 7                  entry N          line   110 file /home/liuchw/anaconda3/envs/psi4env/share/psi4/basis/def2-svp.gbs 


    Psi4 stopped on: Saturday, 11 April 2020 04:39PM
    Psi4 wall time for execution: 0:03:32.08

*** Psi4 exiting successfully. Buy a developer a beer!
