
    -----------------------------------------------------------------------
          Psi4: An Open-Source Ab Initio Electronic Structure Package
                               Psi4 1.4a2.dev224 

                         Git: Rev {master} e453b16 


    R. M. Parrish, L. A. Burns, D. G. A. Smith, A. C. Simmonett,
    A. E. DePrince III, E. G. Hohenstein, U. Bozkaya, A. Yu. Sokolov,
    R. Di Remigio, R. M. Richard, J. F. Gonthier, A. M. James,
    H. R. McAlexander, A. Kumar, M. Saitow, X. Wang, B. P. Pritchard,
    P. Verma, H. F. Schaefer III, K. Patkowski, R. A. King, E. F. Valeev,
    F. A. Evangelista, J. M. Turney, T. D. Crawford, and C. D. Sherrill,
    J. Chem. Theory Comput. 13(7) pp 3185--3197 (2017).
    (doi: 10.1021/acs.jctc.7b00174)


                         Additional Contributions by
    P. Kraus, H. Kruse, M. H. Lechner, M. C. Schieber, R. A. Shaw,
    A. Alenaizan, R. Galvelis, Z. L. Glick, S. Lehtola, and J. P. Misiewicz

    -----------------------------------------------------------------------


    Psi4 started on: Thursday, 23 April 2020 06:28PM

    Process ID: 108834
    Host:       node98.bme.utexas.edu
    PSIDATADIR: /home/liuchw/anaconda3/envs/psi4env/share/psi4
    Memory:     500.0 MiB
    Threads:    8
    
  ==> Input File <==

--------------------------------------------------------------------------
#Generated by lconvert.py for cbs job

memory 20 GB

molecule  {
0 1
  O      -0.786560    0.045170   -0.007190
  H       0.177710    0.012700   -0.006830
  C      -1.247990   -1.290280    0.001080
  H      -2.334280   -1.258900    0.000220
  H      -0.925970   -1.849770   -0.880450
  H      -0.927030   -1.838460    0.890080
--
0 1
  O       2.757190   -0.071960   -0.004070
  H       3.196390    0.316200   -0.763940
  H       3.195080    0.330650    0.749020
units angstrom
no_reorient
symmetry c1
}

set {
scf_type DF
mp2_type DF
e_convergence 7
reference rhf
}

energy('mp2/aug-cc-pv[tq]z', bsse_type='cp')
--------------------------------------------------------------------------

  Memory set to  18.626 GiB by Python driver.

Scratch directory: /scratch/liuchw/


   ===> N-Body Interaction Abacus <===
        BSSE Treatment:                     cp
        Number of 1-body computations:     4
        Number of 2-body computations:     1

   ==> N-Body: Now computing 1-body complexes <==


       N-Body: Computing complex (1/4) with fragments (2,) in the basis of fragments (2,).


Scratch directory: /scratch/liuchw/

  //>>>>>>>>>>>>>>>>>>>>>>>>>>>>>>>>>>>//
  //   CBS Setup: mp2/aug-cc-pv[tq]z   //
  //<<<<<<<<<<<<<<<<<<<<<<<<<<<<<<<<<<<//

    Naive listing of computations required.
             hf / aug-cc-pvqz              for  HF TOTAL ENERGY
            mp2 / aug-cc-pvtz              for  MP2 TOTAL ENERGY
            mp2 / aug-cc-pvqz              for  MP2 TOTAL ENERGY
             hf / aug-cc-pvtz              for  HF TOTAL ENERGY
             hf / aug-cc-pvqz              for  HF TOTAL ENERGY

    Enlightened listing of computations required.
            mp2 / aug-cc-pvtz              for  MP2 TOTAL ENERGY
            mp2 / aug-cc-pvqz              for  MP2 TOTAL ENERGY

    Full listing of computations to be obtained (required and bonus).
             hf / aug-cc-pvtz              for  HF TOTAL ENERGY
            mp2 / aug-cc-pvtz              for  MP2 TOTAL ENERGY
             hf / aug-cc-pvqz              for  HF TOTAL ENERGY
            mp2 / aug-cc-pvqz              for  MP2 TOTAL ENERGY

  //>>>>>>>>>>>>>>>>>>>>>>>>>>>>>>>>>>>>//
  // CBS Computation: MP2 / AUG-CC-PVTZ //
  //<<<<<<<<<<<<<<<<<<<<<<<<<<<<<<<<<<<<//


Scratch directory: /scratch/liuchw/

*** tstart() called on node98.bme.utexas.edu
*** at Thu Apr 23 18:28:06 2020

   => Loading Basis Set <=

    Name: AUG-CC-PVTZ
    Role: ORBITAL
    Keyword: BASIS
    atoms 1   entry O          line   331 file /home/liuchw/anaconda3/envs/psi4env/share/psi4/basis/aug-cc-pvtz.gbs 
    atoms 2-3 entry H          line    40 file /home/liuchw/anaconda3/envs/psi4env/share/psi4/basis/aug-cc-pvtz.gbs 


         ---------------------------------------------------------
                                   SCF
               by Justin Turney, Rob Parrish, Andy Simmonett
                          and Daniel G. A. Smith
                              RHF Reference
                        8 Threads,  19073 MiB Core
         ---------------------------------------------------------

  ==> Geometry <==

    Molecular point group: c1
    Full point group: C1

    Geometry (in Angstrom), charge = 0, multiplicity = 1:

       Center              X                  Y                   Z               Mass       
    ------------   -----------------  -----------------  -----------------  -----------------
         O            2.378574164691     0.332402439866    -0.000489916339    15.994914619570
         H            2.817774164691     0.720562439866    -0.760359916339     1.007825032230
         H            2.816464164691     0.735012439866     0.752600083661     1.007825032230

  Running in c1 symmetry.

  Rotational constants: A =     12.57883  B =      0.15420  C =      0.15285 [cm^-1]
  Rotational constants: A = 377103.92589  B =   4622.73972  C =   4582.20850 [MHz]
  Nuclear repulsion =    9.172348877878875

  Charge       = 0
  Multiplicity = 1
  Electrons    = 10
  Nalpha       = 5
  Nbeta        = 5

  ==> Algorithm <==

  SCF Algorithm Type is DF.
  DIIS enabled.
  MOM disabled.
  Fractional occupation disabled.
  Guess Type is SAD.
  Energy threshold   = 1.00e-07
  Density threshold  = 1.00e-08
  Integral threshold = 0.00e+00

  ==> Primary Basis <==

  Basis Set: AUG-CC-PVTZ
    Blend: AUG-CC-PVTZ
    Number of shells: 32
    Number of basis function: 92
    Number of Cartesian functions: 105
    Spherical Harmonics?: true
    Max angular momentum: 3

   => Loading Basis Set <=

    Name: (AUG-CC-PVTZ AUX)
    Role: JKFIT
    Keyword: DF_BASIS_SCF
    atoms 1   entry O          line   286 file /home/liuchw/anaconda3/envs/psi4env/share/psi4/basis/aug-cc-pvtz-jkfit.gbs 
    atoms 2-3 entry H          line    70 file /home/liuchw/anaconda3/envs/psi4env/share/psi4/basis/aug-cc-pvtz-jkfit.gbs 

  ==> Pre-Iterations <==

   -------------------------------------------------------
    Irrep   Nso     Nmo     Nalpha   Nbeta   Ndocc  Nsocc
   -------------------------------------------------------
     A         92      92       0       0       0       0
   -------------------------------------------------------
    Total      92      92       5       5       5       0
   -------------------------------------------------------

  ==> Integral Setup <==

  DFHelper Memory: AOs need 0.015 GiB; user supplied 13.970 GiB. Using in-core AOs.

  ==> MemDFJK: Density-Fitted J/K Matrices <==

    J tasked:                   Yes
    K tasked:                   Yes
    wK tasked:                   No
    OpenMP threads:               8
    Memory [MiB]:             14305
    Algorithm:                 Core
    Schwarz Cutoff:           1E-12
    Mask sparsity (%):       0.0000
    Fitting Condition:        1E-10

   => Auxiliary Basis Set <=

  Basis Set: (AUG-CC-PVTZ AUX)
    Blend: AUG-CC-PVTZ-JKFIT
    Number of shells: 58
    Number of basis function: 196
    Number of Cartesian functions: 241
    Spherical Harmonics?: true
    Max angular momentum: 4

  Minimum eigenvalue in the overlap matrix is 3.8744043154E-04.
  Using Symmetric Orthogonalization.

  SCF Guess: Superposition of Atomic Densities via on-the-fly atomic UHF.

  ==> Iterations <==

                           Total Energy        Delta E     RMS |[F,P]|

   @DF-RHF iter SAD:   -75.47572630811474   -7.54757e+01   0.00000e+00 
   @DF-RHF iter   1:   -75.97601203379324   -5.00286e-01   5.09205e-03 DIIS
   @DF-RHF iter   2:   -76.02850970395032   -5.24977e-02   3.47266e-03 DIIS
   @DF-RHF iter   3:   -76.05998557663992   -3.14759e-02   2.35883e-04 DIIS
   @DF-RHF iter   4:   -76.06037442703524   -3.88850e-04   5.64777e-05 DIIS
   @DF-RHF iter   5:   -76.06039872751612   -2.43005e-05   1.28208e-05 DIIS
   @DF-RHF iter   6:   -76.06040071412721   -1.98661e-06   2.80669e-06 DIIS
   @DF-RHF iter   7:   -76.06040081885787   -1.04731e-07   5.05657e-07 DIIS
   @DF-RHF iter   8:   -76.06040082184759   -2.98972e-09   8.47457e-08 DIIS
   @DF-RHF iter   9:   -76.06040082191333   -6.57394e-11   2.07713e-08 DIIS
   @DF-RHF iter  10:   -76.06040082191704   -3.70903e-12   3.05235e-09 DIIS
  Energy and wave function converged.


  ==> Post-Iterations <==

    Orbital Energies [Eh]
    ---------------------

    Doubly Occupied:                                                      

       1A    -20.567830     2A     -1.352680     3A     -0.715619  
       4A     -0.585380     5A     -0.510294  

    Virtual:                                                              

       6A      0.029377     7A      0.047703     8A      0.135876  
       9A      0.158709    10A      0.175224    11A      0.183086  
      12A      0.227254    13A      0.245011    14A      0.265441  
      15A      0.300042    16A      0.310162    17A      0.365862  
      18A      0.437700    19A      0.466363    20A      0.599257  
      21A      0.658711    22A      0.708020    23A      0.722712  
      24A      0.731672    25A      0.831154    26A      0.846616  
      27A      0.891964    28A      0.912881    29A      0.918092  
      30A      0.922662    31A      0.931031    32A      0.961544  
      33A      1.021540    34A      1.043670    35A      1.082788  
      36A      1.108785    37A      1.176733    38A      1.182503  
      39A      1.260462    40A      1.510725    41A      1.534530  
      42A      1.583541    43A      1.804658    44A      1.822245  
      45A      1.985827    46A      2.119025    47A      2.263178  
      48A      2.316332    49A      2.326651    50A      2.418839  
      51A      2.421346    52A      2.443310    53A      2.479949  
      54A      2.676211    55A      2.697899    56A      2.772843  
      57A      2.815463    58A      2.885067    59A      3.655126  
      60A      3.742871    61A      4.019971    62A      4.084775  
      63A      4.164429    64A      4.250430    65A      4.287672  
      66A      4.373843    67A      4.378151    68A      4.406671  
      69A      4.519328    70A      4.727327    71A      4.847640  
      72A      5.151955    73A      5.153139    74A      5.252639  
      75A      5.329207    76A      5.526941    77A      5.664984  
      78A      6.181499    79A      6.515935    80A      6.715013  
      81A      6.906271    82A      7.137586    83A      7.259637  
      84A      7.305655    85A      7.319564    86A      7.336108  
      87A      7.361639    88A      7.539310    89A      7.903184  
      90A      7.930553    91A      8.813841    92A     15.757913  

    Final Occupation by Irrep:
              A 
    DOCC [     5 ]

  @DF-RHF Final Energy:   -76.06040082191704

   => Energetics <=

    Nuclear Repulsion Energy =              9.1723488778788749
    One-Electron Energy =                -123.0018942271033637
    Two-Electron Energy =                  37.7691445273074464
    Total Energy =                        -76.0604008219170424

Computation Completed


Properties will be evaluated at   0.000000,   0.000000,   0.000000 [a0]

Properties computed using the SCF density matrix

  Nuclear Dipole Moment: [e a0]
     X:    46.6060      Y:     7.7758      Z:    -0.0221

  Electronic Dipole Moment: [e a0]
     X:   -46.0239      Y:    -7.2510      Z:     0.0176

  Dipole Moment: [e a0]
     X:     0.5821      Y:     0.5248      Z:    -0.0045     Total:     0.7838

  Dipole Moment: [D]
     X:     1.4796      Y:     1.3340      Z:    -0.0114     Total:     1.9922


*** tstop() called on node98.bme.utexas.edu at Thu Apr 23 18:28:07 2020
Module time:
	user time   =       7.63 seconds =       0.13 minutes
	system time =       0.27 seconds =       0.00 minutes
	total time  =          1 seconds =       0.02 minutes
Total time:
	user time   =       7.63 seconds =       0.13 minutes
	system time =       0.27 seconds =       0.00 minutes
	total time  =          1 seconds =       0.02 minutes

*** tstart() called on node98.bme.utexas.edu
*** at Thu Apr 23 18:28:07 2020


  //>>>>>>>>>>>>>>>>>>>>>>>>>>>>>>>>>>>//
  //               DFMP2               //
  //<<<<<<<<<<<<<<<<<<<<<<<<<<<<<<<<<<<//

   => Loading Basis Set <=

    Name: (AUG-CC-PVTZ AUX)
    Role: RIFIT
    Keyword: DF_BASIS_MP2
    atoms 1   entry O          line   264 file /home/liuchw/anaconda3/envs/psi4env/share/psi4/basis/aug-cc-pvtz-ri.gbs 
    atoms 2-3 entry H          line    30 file /home/liuchw/anaconda3/envs/psi4env/share/psi4/basis/aug-cc-pvtz-ri.gbs 

	 --------------------------------------------------------
	                          DF-MP2                         
	      2nd-Order Density-Fitted Moller-Plesset Theory     
	              RMP2 Wavefunction,   8 Threads             
	                                                         
	        Rob Parrish, Justin Turney, Andy Simmonett,      
	           Ed Hohenstein, and C. David Sherrill          
	 --------------------------------------------------------

   => Auxiliary Basis Set <=

  Basis Set: (AUG-CC-PVTZ AUX)
    Blend: AUG-CC-PVTZ-RI
    Number of shells: 56
    Number of basis function: 198
    Number of Cartesian functions: 246
    Spherical Harmonics?: true
    Max angular momentum: 4

	 --------------------------------------------------------
	                 NBF =    92, NAUX =   198
	 --------------------------------------------------------
	   CLASS    FOCC     OCC    AOCC    AVIR     VIR    FVIR
	   PAIRS       0       5       5      87      87       0
	 --------------------------------------------------------

	-----------------------------------------------------------
	 ==================> DF-MP2 Energies <==================== 
	-----------------------------------------------------------
	 Reference Energy          =     -76.0604008219170424 [Eh]
	 Singles Energy            =      -0.0000000000000000 [Eh]
	 Same-Spin Energy          =      -0.0683861579249352 [Eh]
	 Opposite-Spin Energy      =      -0.2153026333974652 [Eh]
	 Correlation Energy        =      -0.2836887913224004 [Eh]
	 Total Energy              =     -76.3440896132394471 [Eh]
	-----------------------------------------------------------
	 ================> DF-SCS-MP2 Energies <================== 
	-----------------------------------------------------------
	 SCS Same-Spin Scale       =       0.3333333333333333 [-]
	 SCS Opposite-Spin Scale   =       1.2000000000000000 [-]
	 SCS Same-Spin Energy      =      -0.0227953859749784 [Eh]
	 SCS Opposite-Spin Energy  =      -0.2583631600769583 [Eh]
	 SCS Correlation Energy    =      -0.2811585460519366 [Eh]
	 SCS Total Energy          =     -76.3415593679689835 [Eh]
	-----------------------------------------------------------


*** tstop() called on node98.bme.utexas.edu at Thu Apr 23 18:28:08 2020
Module time:
	user time   =       3.60 seconds =       0.06 minutes
	system time =       0.14 seconds =       0.00 minutes
	total time  =          1 seconds =       0.02 minutes
Total time:
	user time   =      11.24 seconds =       0.19 minutes
	system time =       0.41 seconds =       0.01 minutes
	total time  =          2 seconds =       0.03 minutes

  //>>>>>>>>>>>>>>>>>>>>>>>>>>>>>>>>>>>>//
  // CBS Computation: MP2 / AUG-CC-PVQZ //
  //<<<<<<<<<<<<<<<<<<<<<<<<<<<<<<<<<<<<//


Scratch directory: /scratch/liuchw/

*** tstart() called on node98.bme.utexas.edu
*** at Thu Apr 23 18:28:08 2020

   => Loading Basis Set <=

    Name: AUG-CC-PVQZ
    Role: ORBITAL
    Keyword: BASIS
    atoms 1   entry O          line   423 file /home/liuchw/anaconda3/envs/psi4env/share/psi4/basis/aug-cc-pvqz.gbs 
    atoms 2-3 entry H          line    40 file /home/liuchw/anaconda3/envs/psi4env/share/psi4/basis/aug-cc-pvqz.gbs 


         ---------------------------------------------------------
                                   SCF
               by Justin Turney, Rob Parrish, Andy Simmonett
                          and Daniel G. A. Smith
                              RHF Reference
                        8 Threads,  19073 MiB Core
         ---------------------------------------------------------

  ==> Geometry <==

    Molecular point group: c1
    Full point group: C1

    Geometry (in Angstrom), charge = 0, multiplicity = 1:

       Center              X                  Y                   Z               Mass       
    ------------   -----------------  -----------------  -----------------  -----------------
         O            2.378574164691     0.332402439866    -0.000489916339    15.994914619570
         H            2.817774164691     0.720562439866    -0.760359916339     1.007825032230
         H            2.816464164691     0.735012439866     0.752600083661     1.007825032230

  Running in c1 symmetry.

  Rotational constants: A =     12.57883  B =      0.15420  C =      0.15285 [cm^-1]
  Rotational constants: A = 377103.92589  B =   4622.73972  C =   4582.20850 [MHz]
  Nuclear repulsion =    9.172348877878875

  Charge       = 0
  Multiplicity = 1
  Electrons    = 10
  Nalpha       = 5
  Nbeta        = 5

  ==> Algorithm <==

  SCF Algorithm Type is DF.
  DIIS enabled.
  MOM disabled.
  Fractional occupation disabled.
  Guess Type is SAD.
  Energy threshold   = 1.00e-07
  Density threshold  = 1.00e-08
  Integral threshold = 0.00e+00

  ==> Primary Basis <==

  Basis Set: AUG-CC-PVQZ
    Blend: AUG-CC-PVQZ
    Number of shells: 48
    Number of basis function: 172
    Number of Cartesian functions: 215
    Spherical Harmonics?: true
    Max angular momentum: 4

   => Loading Basis Set <=

    Name: (AUG-CC-PVQZ AUX)
    Role: JKFIT
    Keyword: DF_BASIS_SCF
    atoms 1   entry O          line   318 file /home/liuchw/anaconda3/envs/psi4env/share/psi4/basis/aug-cc-pvqz-jkfit.gbs 
    atoms 2-3 entry H          line    70 file /home/liuchw/anaconda3/envs/psi4env/share/psi4/basis/aug-cc-pvqz-jkfit.gbs 

  ==> Pre-Iterations <==

   -------------------------------------------------------
    Irrep   Nso     Nmo     Nalpha   Nbeta   Ndocc  Nsocc
   -------------------------------------------------------
     A        172     172       0       0       0       0
   -------------------------------------------------------
    Total     172     172       5       5       5       0
   -------------------------------------------------------

  ==> Integral Setup <==

  DFHelper Memory: AOs need 0.074 GiB; user supplied 13.970 GiB. Using in-core AOs.

  ==> MemDFJK: Density-Fitted J/K Matrices <==

    J tasked:                   Yes
    K tasked:                   Yes
    wK tasked:                   No
    OpenMP threads:               8
    Memory [MiB]:             14305
    Algorithm:                 Core
    Schwarz Cutoff:           1E-12
    Mask sparsity (%):       0.0000
    Fitting Condition:        1E-10

   => Auxiliary Basis Set <=

  Basis Set: (AUG-CC-PVQZ AUX)
    Blend: AUG-CC-PVQZ-JKFIT
    Number of shells: 70
    Number of basis function: 294
    Number of Cartesian functions: 400
    Spherical Harmonics?: true
    Max angular momentum: 5

  Minimum eigenvalue in the overlap matrix is 8.7149750338E-05.
  Using Symmetric Orthogonalization.

  SCF Guess: Superposition of Atomic Densities via on-the-fly atomic UHF.

  ==> Iterations <==

                           Total Energy        Delta E     RMS |[F,P]|

   @DF-RHF iter SAD:   -75.48086850340154   -7.54809e+01   0.00000e+00 
   @DF-RHF iter   1:   -75.98109072075259   -5.00222e-01   2.72949e-03 DIIS
   @DF-RHF iter   2:   -76.03368893037708   -5.25982e-02   1.86568e-03 DIIS
   @DF-RHF iter   3:   -76.06536385813793   -3.16749e-02   1.27123e-04 DIIS
   @DF-RHF iter   4:   -76.06575478995427   -3.90932e-04   3.11182e-05 DIIS
   @DF-RHF iter   5:   -76.06577998556284   -2.51956e-05   7.03978e-06 DIIS
   @DF-RHF iter   6:   -76.06578205396171   -2.06840e-06   1.58355e-06 DIIS
   @DF-RHF iter   7:   -76.06578217009708   -1.16135e-07   2.95094e-07 DIIS
   @DF-RHF iter   8:   -76.06578217364178   -3.54470e-09   4.75045e-08 DIIS
   @DF-RHF iter   9:   -76.06578217371602   -7.42375e-11   1.13753e-08 DIIS
   @DF-RHF iter  10:   -76.06578217371990   -3.87956e-12   1.70274e-09 DIIS
  Energy and wave function converged.


  ==> Post-Iterations <==

    Orbital Energies [Eh]
    ---------------------

    Doubly Occupied:                                                      

       1A    -20.565378     2A     -1.351951     3A     -0.715585  
       4A     -0.585428     5A     -0.510426  

    Virtual:                                                              

       6A      0.026895     7A      0.043099     8A      0.114119  
       9A      0.133441    10A      0.151120    11A      0.158670  
      12A      0.185012    13A      0.197100    14A      0.209325  
      15A      0.237525    16A      0.257095    17A      0.291618  
      18A      0.357792    19A      0.390131    20A      0.469841  
      21A      0.508762    22A      0.542118    23A      0.547614  
      24A      0.556214    25A      0.614334    26A      0.632466  
      27A      0.647330    28A      0.663360    29A      0.665726  
      30A      0.684955    31A      0.706407    32A      0.719028  
      33A      0.769783    34A      0.789331    35A      0.802446  
      36A      0.803267    37A      0.843278    38A      0.854161  
      39A      0.967948    40A      1.124039    41A      1.136558  
      42A      1.209604    43A      1.332190    44A      1.439410  
      45A      1.482434    46A      1.509319    47A      1.513914  
      48A      1.526283    49A      1.554138    50A      1.590290  
      51A      1.620952    52A      1.638075    53A      1.662984  
      54A      1.663957    55A      1.688419    56A      1.702825  
      57A      1.735528    58A      1.752682    59A      1.767304  
      60A      1.776897    61A      1.842664    62A      1.864539  
      63A      1.893804    64A      1.915123    65A      1.981450  
      66A      2.008626    67A      2.033559    68A      2.038419  
      69A      2.099596    70A      2.206837    71A      2.217387  
      72A      2.313685    73A      2.440157    74A      2.628288  
      75A      2.633202    76A      2.887695    77A      2.959794  
      78A      2.996151    79A      3.039936    80A      3.056626  
      81A      3.086227    82A      3.270991    83A      3.301174  
      84A      3.307879    85A      3.492342    86A      3.588729  
      87A      3.644233    88A      3.688318    89A      3.721651  
      90A      3.776362    91A      3.923129    92A      4.078032  
      93A      4.166805    94A      4.166922    95A      4.177966  
      96A      4.179007    97A      4.233713    98A      4.330708  
      99A      4.432064   100A      4.580089   101A      4.725579  
     102A      4.746776   103A      4.782683   104A      4.783285  
     105A      4.808374   106A      4.878618   107A      4.996157  
     108A      5.238873   109A      5.314158   110A      5.524674  
     111A      5.533452   112A      5.860676   113A      5.888568  
     114A      6.074274   115A      6.235115   116A      6.827264  
     117A      6.884640   118A      6.885302   119A      6.911792  
     120A      7.729466   121A      7.783596   122A      7.784989  
     123A      7.824189   124A      7.839354   125A      7.901838  
     126A      7.925068   127A      8.022175   128A      8.179101  
     129A      8.203660   130A      8.532425   131A      8.629868  
     132A      8.648118   133A      8.698452   134A      8.789280  
     135A      8.848384   136A      8.986048   137A      9.042813  
     138A      9.217120   139A      9.664958   140A      9.906720  
     141A      9.910085   142A      9.944941   143A      9.993122  
     144A     10.334656   145A     10.454649   146A     10.676165  
     147A     11.016571   148A     11.075787   149A     11.087570  
     150A     11.268844   151A     11.314108   152A     11.415495  
     153A     11.714740   154A     11.795894   155A     11.831389  
     156A     11.991151   157A     12.202350   158A     12.207506  
     159A     12.620997   160A     12.738680   161A     12.834006  
     162A     12.906232   163A     13.179474   164A     14.002052  
     165A     14.017419   166A     14.507283   167A     14.809861  
     168A     14.901764   169A     15.259327   170A     16.847048  
     171A     17.291544   172A     45.502054  

    Final Occupation by Irrep:
              A 
    DOCC [     5 ]

  @DF-RHF Final Energy:   -76.06578217371990

   => Energetics <=

    Nuclear Repulsion Energy =              9.1723488778788749
    One-Electron Energy =                -123.0187270911063138
    Two-Electron Energy =                  37.7805960395075431
    Total Energy =                        -76.0657821737198958

Computation Completed


Properties will be evaluated at   0.000000,   0.000000,   0.000000 [a0]

Properties computed using the SCF density matrix

  Nuclear Dipole Moment: [e a0]
     X:    46.6060      Y:     7.7758      Z:    -0.0221

  Electronic Dipole Moment: [e a0]
     X:   -46.0245      Y:    -7.2516      Z:     0.0176

  Dipole Moment: [e a0]
     X:     0.5815      Y:     0.5242      Z:    -0.0045     Total:     0.7829

  Dipole Moment: [D]
     X:     1.4780      Y:     1.3325      Z:    -0.0114     Total:     1.9900


*** tstop() called on node98.bme.utexas.edu at Thu Apr 23 18:28:10 2020
Module time:
	user time   =      11.44 seconds =       0.19 minutes
	system time =       0.35 seconds =       0.01 minutes
	total time  =          2 seconds =       0.03 minutes
Total time:
	user time   =      22.72 seconds =       0.38 minutes
	system time =       0.76 seconds =       0.01 minutes
	total time  =          4 seconds =       0.07 minutes

*** tstart() called on node98.bme.utexas.edu
*** at Thu Apr 23 18:28:10 2020


  //>>>>>>>>>>>>>>>>>>>>>>>>>>>>>>>>>>>//
  //               DFMP2               //
  //<<<<<<<<<<<<<<<<<<<<<<<<<<<<<<<<<<<//

   => Loading Basis Set <=

    Name: (AUG-CC-PVQZ AUX)
    Role: RIFIT
    Keyword: DF_BASIS_MP2
    atoms 1   entry O          line   332 file /home/liuchw/anaconda3/envs/psi4env/share/psi4/basis/aug-cc-pvqz-ri.gbs 
    atoms 2-3 entry H          line    30 file /home/liuchw/anaconda3/envs/psi4env/share/psi4/basis/aug-cc-pvqz-ri.gbs 

	 --------------------------------------------------------
	                          DF-MP2                         
	      2nd-Order Density-Fitted Moller-Plesset Theory     
	              RMP2 Wavefunction,   8 Threads             
	                                                         
	        Rob Parrish, Justin Turney, Andy Simmonett,      
	           Ed Hohenstein, and C. David Sherrill          
	 --------------------------------------------------------

   => Auxiliary Basis Set <=

  Basis Set: (AUG-CC-PVQZ AUX)
    Blend: AUG-CC-PVQZ-RI
    Number of shells: 76
    Number of basis function: 328
    Number of Cartesian functions: 447
    Spherical Harmonics?: true
    Max angular momentum: 5

	 --------------------------------------------------------
	                 NBF =   172, NAUX =   328
	 --------------------------------------------------------
	   CLASS    FOCC     OCC    AOCC    AVIR     VIR    FVIR
	   PAIRS       0       5       5     167     167       0
	 --------------------------------------------------------

	-----------------------------------------------------------
	 ==================> DF-MP2 Energies <==================== 
	-----------------------------------------------------------
	 Reference Energy          =     -76.0657821737198958 [Eh]
	 Singles Energy            =      -0.0000000000000000 [Eh]
	 Same-Spin Energy          =      -0.0727138841752531 [Eh]
	 Opposite-Spin Energy      =      -0.2442420802166393 [Eh]
	 Correlation Energy        =      -0.3169559643918924 [Eh]
	 Total Energy              =     -76.3827381381117902 [Eh]
	-----------------------------------------------------------
	 ================> DF-SCS-MP2 Energies <================== 
	-----------------------------------------------------------
	 SCS Same-Spin Scale       =       0.3333333333333333 [-]
	 SCS Opposite-Spin Scale   =       1.2000000000000000 [-]
	 SCS Same-Spin Energy      =      -0.0242379613917510 [Eh]
	 SCS Opposite-Spin Energy  =      -0.2930904962599672 [Eh]
	 SCS Correlation Energy    =      -0.3173284576517182 [Eh]
	 SCS Total Energy          =     -76.3831106313716077 [Eh]
	-----------------------------------------------------------


*** tstop() called on node98.bme.utexas.edu at Thu Apr 23 18:28:11 2020
Module time:
	user time   =       4.52 seconds =       0.08 minutes
	system time =       0.15 seconds =       0.00 minutes
	total time  =          1 seconds =       0.02 minutes
Total time:
	user time   =      27.24 seconds =       0.45 minutes
	system time =       0.91 seconds =       0.02 minutes
	total time  =          5 seconds =       0.08 minutes

  //>>>>>>>>>>>>>>>>>>>>>>>>>>>>>>>>>>>//
  //  CBS Results: mp2/aug-cc-pv[tq]z  //
  //<<<<<<<<<<<<<<<<<<<<<<<<<<<<<<<<<<<//


   ==> HF <==

   HI-zeta (4) Energy:               -76.065782173720


   ==> Helgaker 2-point correlated extrapolation for method: MP2 <==

   LO-zeta (3) Energy:               -76.344089613239
   HI-zeta (4) Energy:               -76.382738138112
   Alpha (exponent) Value:             3.000000000000
   Extrapolated Energy:              -76.410941115721

   @Extrapolated MP2/(T,Q):          -76.410941115721



   ==> Helgaker 2-point correlated extrapolation for method: HF <==

   LO-zeta (3) Energy:               -76.060400821917
   HI-zeta (4) Energy:               -76.065782173720
   Alpha (exponent) Value:             3.000000000000
   Extrapolated Energy:              -76.069709106117

   @Extrapolated HF/(T,Q):           -76.069709106117


   ==> Components <==

  ---------------------------------------------------------------------------------------------------------
                          Method / Basis                      Rqd      Energy [Eh]   Variable
  ---------------------------------------------------------------------------------------------------------
                              hf / aug-cc-pvtz                  *     -76.06040082   HF TOTAL ENERGY
                             mp2 / aug-cc-pvtz                  *     -76.34408961   MP2 TOTAL ENERGY
                              hf / aug-cc-pvqz                  *     -76.06578217   HF TOTAL ENERGY
                             mp2 / aug-cc-pvqz                  *     -76.38273814   MP2 TOTAL ENERGY
  ---------------------------------------------------------------------------------------------------------

   ==> Stages <==

  ---------------------------------------------------------------------------------------------------------
      Stage               Method / Basis                       Wt      Energy [Eh]   Scheme
  ---------------------------------------------------------------------------------------------------------
        scf                   hf / aug-cc-pvqz                  1     -76.06578217   xtpl_highest_1
       corl                  mp2 / aug-cc-pv[tq]z               1     -76.41094112   corl_xtpl_helgaker_2
       corl                   hf / aug-cc-pv[tq]z              -1     -76.06970911   corl_xtpl_helgaker_2
  ---------------------------------------------------------------------------------------------------------

   ==> CBS <==

  ---------------------------------------------------------------------------------------------------------
      Stage               Method / Basis                               Energy [Eh]   Scheme
  ---------------------------------------------------------------------------------------------------------
        scf                   hf / aug-cc-pvqz                        -76.06578217   xtpl_highest_1
       corl                  mp2 / aug-cc-pv[tq]z                      -0.34123201   corl_xtpl_helgaker_2
      total                  CBS                                      -76.40701418   
  ---------------------------------------------------------------------------------------------------------
   => Loading Basis Set <=

    Name: DEF2-SVP
    Role: ORBITAL
    Keyword: BASIS
    atoms 1   entry O          line   130 file /home/liuchw/anaconda3/envs/psi4env/share/psi4/basis/def2-svp.gbs 
    atoms 2-3 entry H          line    15 file /home/liuchw/anaconda3/envs/psi4env/share/psi4/basis/def2-svp.gbs 


       N-Body: Complex Energy (fragments = (2,), basis = (2,):   -76.40701418332465)

       N-Body: Computing complex (2/4) with fragments (2,) in the basis of fragments (1, 2).


Scratch directory: /scratch/liuchw/

  //>>>>>>>>>>>>>>>>>>>>>>>>>>>>>>>>>>>//
  //   CBS Setup: mp2/aug-cc-pv[tq]z   //
  //<<<<<<<<<<<<<<<<<<<<<<<<<<<<<<<<<<<//

    Naive listing of computations required.
             hf / aug-cc-pvqz              for  HF TOTAL ENERGY
            mp2 / aug-cc-pvtz              for  MP2 TOTAL ENERGY
            mp2 / aug-cc-pvqz              for  MP2 TOTAL ENERGY
             hf / aug-cc-pvtz              for  HF TOTAL ENERGY
             hf / aug-cc-pvqz              for  HF TOTAL ENERGY

    Enlightened listing of computations required.
            mp2 / aug-cc-pvtz              for  MP2 TOTAL ENERGY
            mp2 / aug-cc-pvqz              for  MP2 TOTAL ENERGY

    Full listing of computations to be obtained (required and bonus).
             hf / aug-cc-pvtz              for  HF TOTAL ENERGY
            mp2 / aug-cc-pvtz              for  MP2 TOTAL ENERGY
             hf / aug-cc-pvqz              for  HF TOTAL ENERGY
            mp2 / aug-cc-pvqz              for  MP2 TOTAL ENERGY

  //>>>>>>>>>>>>>>>>>>>>>>>>>>>>>>>>>>>>//
  // CBS Computation: MP2 / AUG-CC-PVTZ //
  //<<<<<<<<<<<<<<<<<<<<<<<<<<<<<<<<<<<<//


Scratch directory: /scratch/liuchw/

*** tstart() called on node98.bme.utexas.edu
*** at Thu Apr 23 18:28:11 2020

   => Loading Basis Set <=

    Name: AUG-CC-PVTZ
    Role: ORBITAL
    Keyword: BASIS
    atoms 1, 7        entry O          line   331 file /home/liuchw/anaconda3/envs/psi4env/share/psi4/basis/aug-cc-pvtz.gbs 
    atoms 2, 4-6, 8-9 entry H          line    40 file /home/liuchw/anaconda3/envs/psi4env/share/psi4/basis/aug-cc-pvtz.gbs 
    atoms 3           entry C          line   239 file /home/liuchw/anaconda3/envs/psi4env/share/psi4/basis/aug-cc-pvtz.gbs 


         ---------------------------------------------------------
                                   SCF
               by Justin Turney, Rob Parrish, Andy Simmonett
                          and Daniel G. A. Smith
                              RHF Reference
                        8 Threads,  19073 MiB Core
         ---------------------------------------------------------

  ==> Geometry <==

    Molecular point group: c1
    Full point group: C1

    Geometry (in Angstrom), charge = 0, multiplicity = 1:

       Center              X                  Y                   Z               Mass       
    ------------   -----------------  -----------------  -----------------  -----------------
      Gh(O)          -1.165175835309     0.449532439866    -0.003609916339    15.994914619570
      Gh(H)          -0.200905835309     0.417062439866    -0.003249916339     1.007825032230
      Gh(C)          -1.626605835309    -0.885917560134     0.004660083661    12.000000000000
      Gh(H)          -2.712895835309    -0.854537560134     0.003800083661     1.007825032230
      Gh(H)          -1.304585835309    -1.445407560134    -0.876869916339     1.007825032230
      Gh(H)          -1.305645835309    -1.434097560134     0.893660083661     1.007825032230
         O            2.378574164691     0.332402439866    -0.000489916339    15.994914619570
         H            2.817774164691     0.720562439866    -0.760359916339     1.007825032230
         H            2.816464164691     0.735012439866     0.752600083661     1.007825032230

  Running in c1 symmetry.

  Rotational constants: A =      0.99853  B =      0.09365  C =      0.08807 [cm^-1]
  Rotational constants: A =  29935.09001  B =   2807.56744  C =   2640.13141 [MHz]
  Nuclear repulsion =    9.172348877878875

  Charge       = 0
  Multiplicity = 1
  Electrons    = 10
  Nalpha       = 5
  Nbeta        = 5

  ==> Algorithm <==

  SCF Algorithm Type is DF.
  DIIS enabled.
  MOM disabled.
  Fractional occupation disabled.
  Guess Type is SAD.
  Energy threshold   = 1.00e-07
  Density threshold  = 1.00e-08
  Integral threshold = 0.00e+00

  ==> Primary Basis <==

  Basis Set: AUG-CC-PVTZ
    Blend: AUG-CC-PVTZ
    Number of shells: 96
    Number of basis function: 276
    Number of Cartesian functions: 315
    Spherical Harmonics?: true
    Max angular momentum: 3

   => Loading Basis Set <=

    Name: (AUG-CC-PVTZ AUX)
    Role: JKFIT
    Keyword: DF_BASIS_SCF
    atoms 1, 7        entry O          line   286 file /home/liuchw/anaconda3/envs/psi4env/share/psi4/basis/aug-cc-pvtz-jkfit.gbs 
    atoms 2, 4-6, 8-9 entry H          line    70 file /home/liuchw/anaconda3/envs/psi4env/share/psi4/basis/aug-cc-pvtz-jkfit.gbs 
    atoms 3           entry C          line   162 file /home/liuchw/anaconda3/envs/psi4env/share/psi4/basis/aug-cc-pvtz-jkfit.gbs 

  ==> Pre-Iterations <==

   -------------------------------------------------------
    Irrep   Nso     Nmo     Nalpha   Nbeta   Ndocc  Nsocc
   -------------------------------------------------------
     A        276     276       0       0       0       0
   -------------------------------------------------------
    Total     276     276       5       5       5       0
   -------------------------------------------------------

  ==> Integral Setup <==

  DFHelper Memory: AOs need 0.337 GiB; user supplied 13.970 GiB. Using in-core AOs.

  ==> MemDFJK: Density-Fitted J/K Matrices <==

    J tasked:                   Yes
    K tasked:                   Yes
    wK tasked:                   No
    OpenMP threads:               8
    Memory [MiB]:             14305
    Algorithm:                 Core
    Schwarz Cutoff:           1E-12
    Mask sparsity (%):       5.8706
    Fitting Condition:        1E-10

   => Auxiliary Basis Set <=

  Basis Set: (AUG-CC-PVTZ AUX)
    Blend: AUG-CC-PVTZ-JKFIT
    Number of shells: 174
    Number of basis function: 588
    Number of Cartesian functions: 723
    Spherical Harmonics?: true
    Max angular momentum: 4

  Minimum eigenvalue in the overlap matrix is 5.5694319149E-05.
  Using Symmetric Orthogonalization.

  SCF Guess: Superposition of Atomic Densities via on-the-fly atomic UHF.

  ==> Iterations <==

                           Total Energy        Delta E     RMS |[F,P]|

   @DF-RHF iter SAD:   -75.47572630753226   -7.54757e+01   0.00000e+00 
   @DF-RHF iter   1:   -75.97606031831837   -5.00334e-01   1.69747e-03 DIIS
   @DF-RHF iter   2:   -76.02856561186869   -5.25053e-02   1.15766e-03 DIIS
   @DF-RHF iter   3:   -76.06004294760966   -3.14773e-02   7.86382e-05 DIIS
   @DF-RHF iter   4:   -76.06043192475123   -3.88977e-04   1.88375e-05 DIIS
   @DF-RHF iter   5:   -76.06045625880171   -2.43341e-05   4.27517e-06 DIIS
   @DF-RHF iter   6:   -76.06045824777885   -1.98898e-06   9.36606e-07 DIIS
   @DF-RHF iter   7:   -76.06045835280126   -1.05022e-07   1.69054e-07 DIIS
   @DF-RHF iter   8:   -76.06045835581482   -3.01355e-09   2.83535e-08 DIIS
   @DF-RHF iter   9:   -76.06045835588077   -6.59526e-11   6.93860e-09 DIIS
  Energy and wave function converged.


  ==> Post-Iterations <==

    Orbital Energies [Eh]
    ---------------------

    Doubly Occupied:                                                      

       1A    -20.567715     2A     -1.352611     3A     -0.715550  
       4A     -0.585324     5A     -0.510285  

    Virtual:                                                              

       6A      0.025557     7A      0.034999     8A      0.044435  
       9A      0.052715    10A      0.060910    11A      0.060985  
      12A      0.105550    13A      0.109421    14A      0.120400  
      15A      0.132254    16A      0.147710    17A      0.163306  
      18A      0.173438    19A      0.175681    20A      0.184138  
      21A      0.187707    22A      0.209192    23A      0.227042  
      24A      0.250578    25A      0.255673    26A      0.256814  
      27A      0.280252    28A      0.289789    29A      0.294828  
      30A      0.308202    31A      0.308906    32A      0.310113  
      33A      0.336262    34A      0.345016    35A      0.365572  
      36A      0.381765    37A      0.387302    38A      0.390652  
      39A      0.391876    40A      0.416102    41A      0.419205  
      42A      0.428363    43A      0.446163    44A      0.448389  
      45A      0.467678    46A      0.471252    47A      0.485256  
      48A      0.486917    49A      0.501805    50A      0.511607  
      51A      0.580133    52A      0.584854    53A      0.590071  
      54A      0.620555    55A      0.634864    56A      0.667844  
      57A      0.672616    58A      0.678315    59A      0.728794  
      60A      0.772423    61A      0.779106    62A      0.801845  
      63A      0.820417    64A      0.835513    65A      0.870706  
      66A      0.875759    67A      0.877750    68A      0.890443  
      69A      0.902403    70A      0.904565    71A      0.924744  
      72A      0.951812    73A      0.954823    74A      0.955804  
      75A      0.971954    76A      0.983404    77A      0.990086  
      78A      1.007425    79A      1.017283    80A      1.023144  
      81A      1.030690    82A      1.049801    83A      1.061627  
      84A      1.064715    85A      1.068620    86A      1.074323  
      87A      1.081450    88A      1.093280    89A      1.101284  
      90A      1.126099    91A      1.141958    92A      1.161229  
      93A      1.171321    94A      1.180015    95A      1.188138  
      96A      1.191400    97A      1.223748    98A      1.226396  
      99A      1.230892   100A      1.261334   101A      1.280209  
     102A      1.307047   103A      1.320425   104A      1.325640  
     105A      1.339343   106A      1.350094   107A      1.391737  
     108A      1.409281   109A      1.436557   110A      1.473762  
     111A      1.567934   112A      1.571893   113A      1.591043  
     114A      1.613898   115A      1.614795   116A      1.678055  
     117A      1.727615   118A      1.746171   119A      1.775885  
     120A      1.815562   121A      1.820920   122A      1.831638  
     123A      1.843999   124A      1.858577   125A      1.867922  
     126A      1.878701   127A      1.898862   128A      1.936059  
     129A      1.983259   130A      2.030952   131A      2.055808  
     132A      2.079050   133A      2.143817   134A      2.144991  
     135A      2.164424   136A      2.224556   137A      2.235124  
     138A      2.309817   139A      2.323348   140A      2.339027  
     141A      2.377257   142A      2.420076   143A      2.427646  
     144A      2.462620   145A      2.476837   146A      2.502880  
     147A      2.526340   148A      2.555041   149A      2.608561  
     150A      2.640422   151A      2.686062   152A      2.695059  
     153A      2.695745   154A      2.738973   155A      2.743113  
     156A      2.748891   157A      2.794830   158A      2.841571  
     159A      2.863656   160A      2.887380   161A      2.930393  
     162A      3.043813   163A      3.063264   164A      3.149688  
     165A      3.315868   166A      3.353378   167A      3.417737  
     168A      3.443514   169A      3.517396   170A      3.539567  
     171A      3.691481   172A      3.706004   173A      3.789943  
     174A      3.922482   175A      3.957955   176A      4.034655  
     177A      4.064282   178A      4.138173   179A      4.143502  
     180A      4.171259   181A      4.178252   182A      4.194178  
     183A      4.261117   184A      4.265198   185A      4.340926  
     186A      4.407553   187A      4.436283   188A      4.466819  
     189A      4.477463   190A      4.487054   191A      4.498391  
     192A      4.510849   193A      4.516289   194A      4.550060  
     195A      4.554418   196A      4.611173   197A      4.615902  
     198A      4.691563   199A      4.731682   200A      4.772327  
     201A      4.790474   202A      4.840397   203A      4.869159  
     204A      4.882948   205A      4.979489   206A      4.999484  
     207A      5.005814   208A      5.070559   209A      5.161682  
     210A      5.168045   211A      5.184852   212A      5.261437  
     213A      5.274798   214A      5.319075   215A      5.346899  
     216A      5.350258   217A      5.391880   218A      5.394936  
     219A      5.472513   220A      5.473410   221A      5.530729  
     222A      5.559533   223A      5.699163   224A      5.735243  
     225A      5.755721   226A      5.826367   227A      5.842566  
     228A      6.083765   229A      6.165380   230A      6.187335  
     231A      6.234890   232A      6.298013   233A      6.384150  
     234A      6.500626   235A      6.539917   236A      6.770497  
     237A      6.805034   238A      6.818101   239A      6.928194  
     240A      7.081934   241A      7.175170   242A      7.276649  
     243A      7.315009   244A      7.322048   245A      7.367676  
     246A      7.380665   247A      7.416512   248A      7.567818  
     249A      7.702921   250A      7.726829   251A      7.796796  
     252A      7.857934   253A      7.865873   254A      7.915554  
     255A      7.937608   256A      8.056058   257A      8.094094  
     258A      8.136081   259A      8.212220   260A      8.319946  
     261A      8.592521   262A      8.832980   263A      8.894681  
     264A      9.857991   265A     10.011878   266A     10.316953  
     267A     10.342836   268A     10.602402   269A     10.989855  
     270A     11.798529   271A     12.134961   272A     13.182924  
     273A     14.215833   274A     15.852362   275A     52.637902  
     276A     65.928834  

    Final Occupation by Irrep:
              A 
    DOCC [     5 ]

  @DF-RHF Final Energy:   -76.06045835588077

   => Energetics <=

    Nuclear Repulsion Energy =              9.1723488778788749
    One-Electron Energy =                -123.0026406436142992
    Two-Electron Energy =                  37.7698334098546553
    Total Energy =                        -76.0604583558807690

Computation Completed


Properties will be evaluated at   0.000000,   0.000000,   0.000000 [a0]

Properties computed using the SCF density matrix

  Nuclear Dipole Moment: [e a0]
     X:    46.6060      Y:     7.7758      Z:    -0.0221

  Electronic Dipole Moment: [e a0]
     X:   -46.0240      Y:    -7.2519      Z:     0.0176

  Dipole Moment: [e a0]
     X:     0.5820      Y:     0.5240      Z:    -0.0045     Total:     0.7831

  Dipole Moment: [D]
     X:     1.4793      Y:     1.3318      Z:    -0.0114     Total:     1.9905


*** tstop() called on node98.bme.utexas.edu at Thu Apr 23 18:28:14 2020
Module time:
	user time   =      15.71 seconds =       0.26 minutes
	system time =       0.46 seconds =       0.01 minutes
	total time  =          3 seconds =       0.05 minutes
Total time:
	user time   =      44.88 seconds =       0.75 minutes
	system time =       1.44 seconds =       0.02 minutes
	total time  =          8 seconds =       0.13 minutes

*** tstart() called on node98.bme.utexas.edu
*** at Thu Apr 23 18:28:14 2020


  //>>>>>>>>>>>>>>>>>>>>>>>>>>>>>>>>>>>//
  //               DFMP2               //
  //<<<<<<<<<<<<<<<<<<<<<<<<<<<<<<<<<<<//

   => Loading Basis Set <=

    Name: (AUG-CC-PVTZ AUX)
    Role: RIFIT
    Keyword: DF_BASIS_MP2
    atoms 1, 7        entry O          line   264 file /home/liuchw/anaconda3/envs/psi4env/share/psi4/basis/aug-cc-pvtz-ri.gbs 
    atoms 2, 4-6, 8-9 entry H          line    30 file /home/liuchw/anaconda3/envs/psi4env/share/psi4/basis/aug-cc-pvtz-ri.gbs 
    atoms 3           entry C          line   148 file /home/liuchw/anaconda3/envs/psi4env/share/psi4/basis/aug-cc-pvtz-ri.gbs 

	 --------------------------------------------------------
	                          DF-MP2                         
	      2nd-Order Density-Fitted Moller-Plesset Theory     
	              RMP2 Wavefunction,   8 Threads             
	                                                         
	        Rob Parrish, Justin Turney, Andy Simmonett,      
	           Ed Hohenstein, and C. David Sherrill          
	 --------------------------------------------------------

   => Auxiliary Basis Set <=

  Basis Set: (AUG-CC-PVTZ AUX)
    Blend: AUG-CC-PVTZ-RI
    Number of shells: 168
    Number of basis function: 594
    Number of Cartesian functions: 738
    Spherical Harmonics?: true
    Max angular momentum: 4

	 --------------------------------------------------------
	                 NBF =   276, NAUX =   594
	 --------------------------------------------------------
	   CLASS    FOCC     OCC    AOCC    AVIR     VIR    FVIR
	   PAIRS       0       5       5     271     271       0
	 --------------------------------------------------------

	-----------------------------------------------------------
	 ==================> DF-MP2 Energies <==================== 
	-----------------------------------------------------------
	 Reference Energy          =     -76.0604583558807690 [Eh]
	 Singles Energy            =      -0.0000000000000000 [Eh]
	 Same-Spin Energy          =      -0.0684205120361278 [Eh]
	 Opposite-Spin Energy      =      -0.2155579790594608 [Eh]
	 Correlation Energy        =      -0.2839784910955885 [Eh]
	 Total Energy              =     -76.3444368469763646 [Eh]
	-----------------------------------------------------------
	 ================> DF-SCS-MP2 Energies <================== 
	-----------------------------------------------------------
	 SCS Same-Spin Scale       =       0.3333333333333333 [-]
	 SCS Opposite-Spin Scale   =       1.2000000000000000 [-]
	 SCS Same-Spin Energy      =      -0.0228068373453759 [Eh]
	 SCS Opposite-Spin Energy  =      -0.2586695748713529 [Eh]
	 SCS Correlation Energy    =      -0.2814764122167288 [Eh]
	 SCS Total Energy          =     -76.3419347680975022 [Eh]
	-----------------------------------------------------------


*** tstop() called on node98.bme.utexas.edu at Thu Apr 23 18:28:15 2020
Module time:
	user time   =       7.87 seconds =       0.13 minutes
	system time =       0.24 seconds =       0.00 minutes
	total time  =          1 seconds =       0.02 minutes
Total time:
	user time   =      52.75 seconds =       0.88 minutes
	system time =       1.68 seconds =       0.03 minutes
	total time  =          9 seconds =       0.15 minutes

  //>>>>>>>>>>>>>>>>>>>>>>>>>>>>>>>>>>>>//
  // CBS Computation: MP2 / AUG-CC-PVQZ //
  //<<<<<<<<<<<<<<<<<<<<<<<<<<<<<<<<<<<<//


Scratch directory: /scratch/liuchw/

*** tstart() called on node98.bme.utexas.edu
*** at Thu Apr 23 18:28:15 2020

   => Loading Basis Set <=

    Name: AUG-CC-PVQZ
    Role: ORBITAL
    Keyword: BASIS
    atoms 1, 7        entry O          line   423 file /home/liuchw/anaconda3/envs/psi4env/share/psi4/basis/aug-cc-pvqz.gbs 
    atoms 2, 4-6, 8-9 entry H          line    40 file /home/liuchw/anaconda3/envs/psi4env/share/psi4/basis/aug-cc-pvqz.gbs 
    atoms 3           entry C          line   303 file /home/liuchw/anaconda3/envs/psi4env/share/psi4/basis/aug-cc-pvqz.gbs 


         ---------------------------------------------------------
                                   SCF
               by Justin Turney, Rob Parrish, Andy Simmonett
                          and Daniel G. A. Smith
                              RHF Reference
                        8 Threads,  19073 MiB Core
         ---------------------------------------------------------

  ==> Geometry <==

    Molecular point group: c1
    Full point group: C1

    Geometry (in Angstrom), charge = 0, multiplicity = 1:

       Center              X                  Y                   Z               Mass       
    ------------   -----------------  -----------------  -----------------  -----------------
      Gh(O)          -1.165175835309     0.449532439866    -0.003609916339    15.994914619570
      Gh(H)          -0.200905835309     0.417062439866    -0.003249916339     1.007825032230
      Gh(C)          -1.626605835309    -0.885917560134     0.004660083661    12.000000000000
      Gh(H)          -2.712895835309    -0.854537560134     0.003800083661     1.007825032230
      Gh(H)          -1.304585835309    -1.445407560134    -0.876869916339     1.007825032230
      Gh(H)          -1.305645835309    -1.434097560134     0.893660083661     1.007825032230
         O            2.378574164691     0.332402439866    -0.000489916339    15.994914619570
         H            2.817774164691     0.720562439866    -0.760359916339     1.007825032230
         H            2.816464164691     0.735012439866     0.752600083661     1.007825032230

  Running in c1 symmetry.

  Rotational constants: A =      0.99853  B =      0.09365  C =      0.08807 [cm^-1]
  Rotational constants: A =  29935.09001  B =   2807.56744  C =   2640.13141 [MHz]
  Nuclear repulsion =    9.172348877878875

  Charge       = 0
  Multiplicity = 1
  Electrons    = 10
  Nalpha       = 5
  Nbeta        = 5

  ==> Algorithm <==

  SCF Algorithm Type is DF.
  DIIS enabled.
  MOM disabled.
  Fractional occupation disabled.
  Guess Type is SAD.
  Energy threshold   = 1.00e-07
  Density threshold  = 1.00e-08
  Integral threshold = 0.00e+00

  ==> Primary Basis <==

  Basis Set: AUG-CC-PVQZ
    Blend: AUG-CC-PVQZ
    Number of shells: 144
    Number of basis function: 516
    Number of Cartesian functions: 645
    Spherical Harmonics?: true
    Max angular momentum: 4

   => Loading Basis Set <=

    Name: (AUG-CC-PVQZ AUX)
    Role: JKFIT
    Keyword: DF_BASIS_SCF
    atoms 1, 7        entry O          line   318 file /home/liuchw/anaconda3/envs/psi4env/share/psi4/basis/aug-cc-pvqz-jkfit.gbs 
    atoms 2, 4-6, 8-9 entry H          line    70 file /home/liuchw/anaconda3/envs/psi4env/share/psi4/basis/aug-cc-pvqz-jkfit.gbs 
    atoms 3           entry C          line   178 file /home/liuchw/anaconda3/envs/psi4env/share/psi4/basis/aug-cc-pvqz-jkfit.gbs 

  ==> Pre-Iterations <==

   -------------------------------------------------------
    Irrep   Nso     Nmo     Nalpha   Nbeta   Ndocc  Nsocc
   -------------------------------------------------------
     A        516     516       0       0       0       0
   -------------------------------------------------------
    Total     516     516       5       5       5       0
   -------------------------------------------------------

  ==> Integral Setup <==

  DFHelper Memory: AOs need 1.668 GiB; user supplied 13.970 GiB. Using in-core AOs.

  ==> MemDFJK: Density-Fitted J/K Matrices <==

    J tasked:                   Yes
    K tasked:                   Yes
    wK tasked:                   No
    OpenMP threads:               8
    Memory [MiB]:             14305
    Algorithm:                 Core
    Schwarz Cutoff:           1E-12
    Mask sparsity (%):       9.6388
    Fitting Condition:        1E-10

   => Auxiliary Basis Set <=

  Basis Set: (AUG-CC-PVQZ AUX)
    Blend: AUG-CC-PVQZ-JKFIT
    Number of shells: 210
    Number of basis function: 882
    Number of Cartesian functions: 1200
    Spherical Harmonics?: true
    Max angular momentum: 5

  Minimum eigenvalue in the overlap matrix is 1.3142156784E-05.
  Using Symmetric Orthogonalization.

  SCF Guess: Superposition of Atomic Densities via on-the-fly atomic UHF.

  ==> Iterations <==

                           Total Energy        Delta E     RMS |[F,P]|

   @DF-RHF iter SAD:   -75.48086849556655   -7.54809e+01   0.00000e+00 
   @DF-RHF iter   1:   -75.98110885605794   -5.00240e-01   9.09857e-04 DIIS
   @DF-RHF iter   2:   -76.03371017300982   -5.26013e-02   6.21922e-04 DIIS
   @DF-RHF iter   3:   -76.06538559673383   -3.16754e-02   4.23776e-05 DIIS
   @DF-RHF iter   4:   -76.06577658045418   -3.90984e-04   1.03737e-05 DIIS
   @DF-RHF iter   5:   -76.06580178062212   -2.52002e-05   2.34725e-06 DIIS
   @DF-RHF iter   6:   -76.06580385028768   -2.06967e-06   5.28093e-07 DIIS
   @DF-RHF iter   7:   -76.06580396656469   -1.16277e-07   9.85091e-08 DIIS
   @DF-RHF iter   8:   -76.06580397012499   -3.56030e-09   1.58709e-08 DIIS
   @DF-RHF iter   9:   -76.06580397019934   -7.43512e-11   3.79796e-09 DIIS
  Energy and wave function converged.


  ==> Post-Iterations <==

    Orbital Energies [Eh]
    ---------------------

    Doubly Occupied:                                                      

       1A    -20.565347     2A     -1.351922     3A     -0.715557  
       4A     -0.585405     5A     -0.510418  

    Virtual:                                                              

       6A      0.022812     7A      0.031930     8A      0.040095  
       9A      0.047768    10A      0.055280    11A      0.055728  
      12A      0.092324    13A      0.097149    14A      0.104580  
      15A      0.114157    16A      0.127538    17A      0.138822  
      18A      0.146777    19A      0.150861    20A      0.157597  
      21A      0.164155    22A      0.178247    23A      0.184286  
      24A      0.206030    25A      0.206067    26A      0.222534  
      27A      0.232838    28A      0.238875    29A      0.249551  
      30A      0.258164    31A      0.262885    32A      0.267750  
      33A      0.274633    34A      0.274692    35A      0.291601  
      36A      0.295076    37A      0.317059    38A      0.324371  
      39A      0.326684    40A      0.339730    41A      0.341863  
      42A      0.358224    43A      0.363773    44A      0.364323  
      45A      0.384941    46A      0.391948    47A      0.398236  
      48A      0.412878    49A      0.413690    50A      0.430137  
      51A      0.437439    52A      0.461631    53A      0.487787  
      54A      0.491889    55A      0.505332    56A      0.520100  
      57A      0.536134    58A      0.556094    59A      0.566399  
      60A      0.585449    61A      0.597041    62A      0.609883  
      63A      0.627610    64A      0.642215    65A      0.644283  
      66A      0.648162    67A      0.656426    68A      0.666674  
      69A      0.683340    70A      0.687618    71A      0.716154  
      72A      0.716441    73A      0.718392    74A      0.725931  
      75A      0.735894    76A      0.756984    77A      0.759848  
      78A      0.763896    79A      0.770131    80A      0.774780  
      81A      0.784543    82A      0.797868    83A      0.800025  
      84A      0.806674    85A      0.818787    86A      0.825028  
      87A      0.827745    88A      0.839129    89A      0.854943  
      90A      0.859612    91A      0.862812    92A      0.868481  
      93A      0.869493    94A      0.887904    95A      0.904561  
      96A      0.911191    97A      0.915168    98A      0.920188  
      99A      0.958753   100A      0.964917   101A      0.976131  
     102A      0.979132   103A      0.984026   104A      0.989392  
     105A      1.025968   106A      1.044537   107A      1.056283  
     108A      1.079726   109A      1.098204   110A      1.128282  
     111A      1.147967   112A      1.167351   113A      1.168006  
     114A      1.199519   115A      1.226267   116A      1.234763  
     117A      1.239006   118A      1.272765   119A      1.273245  
     120A      1.296002   121A      1.326806   122A      1.332552  
     123A      1.357314   124A      1.368467   125A      1.391776  
     126A      1.426005   127A      1.429866   128A      1.447408  
     129A      1.465059   130A      1.504374   131A      1.528592  
     132A      1.544964   133A      1.551683   134A      1.559289  
     135A      1.560623   136A      1.576713   137A      1.578884  
     138A      1.593597   139A      1.600808   140A      1.634254  
     141A      1.649688   142A      1.656325   143A      1.661894  
     144A      1.669087   145A      1.670014   146A      1.697883  
     147A      1.704870   148A      1.724140   149A      1.750956  
     150A      1.762614   151A      1.776563   152A      1.780560  
     153A      1.784853   154A      1.785047   155A      1.795002  
     156A      1.800767   157A      1.814904   158A      1.840135  
     159A      1.843262   160A      1.849028   161A      1.853145  
     162A      1.866429   163A      1.895899   164A      1.900241  
     165A      1.908671   166A      1.921693   167A      1.941668  
     168A      1.948003   169A      1.957695   170A      1.970103  
     171A      1.973995   172A      1.985280   173A      2.004874  
     174A      2.024262   175A      2.028555   176A      2.044486  
     177A      2.052935   178A      2.072254   179A      2.078395  
     180A      2.087541   181A      2.095202   182A      2.110486  
     183A      2.113566   184A      2.124564   185A      2.126856  
     186A      2.163297   187A      2.172958   188A      2.179891  
     189A      2.180169   190A      2.211029   191A      2.227950  
     192A      2.233884   193A      2.261583   194A      2.262125  
     195A      2.285717   196A      2.300360   197A      2.314506  
     198A      2.346366   199A      2.347881   200A      2.372273  
     201A      2.376650   202A      2.385690   203A      2.408496  
     204A      2.427969   205A      2.439068   206A      2.443145  
     207A      2.479478   208A      2.492668   209A      2.547344  
     210A      2.567790   211A      2.594015   212A      2.642628  
     213A      2.678273   214A      2.704227   215A      2.714386  
     216A      2.727734   217A      2.790068   218A      2.818927  
     219A      2.830784   220A      2.856238   221A      2.881990  
     222A      2.902196   223A      2.955613   224A      2.990908  
     225A      2.997436   226A      3.009818   227A      3.033550  
     228A      3.056687   229A      3.056854   230A      3.065768  
     231A      3.077620   232A      3.084196   233A      3.115970  
     234A      3.149151   235A      3.157304   236A      3.171808  
     237A      3.186675   238A      3.226833   239A      3.255363  
     240A      3.285965   241A      3.311955   242A      3.316827  
     243A      3.328842   244A      3.338492   245A      3.388170  
     246A      3.392625   247A      3.430719   248A      3.448895  
     249A      3.455914   250A      3.472419   251A      3.499138  
     252A      3.512929   253A      3.554090   254A      3.593612  
     255A      3.607204   256A      3.665855   257A      3.688008  
     258A      3.706436   259A      3.719658   260A      3.773660  
     261A      3.802607   262A      3.830582   263A      3.869757  
     264A      3.876665   265A      3.887843   266A      3.911486  
     267A      3.958886   268A      3.999363   269A      4.007479  
     270A      4.079213   271A      4.094401   272A      4.097634  
     273A      4.132729   274A      4.140257   275A      4.168422  
     276A      4.182467   277A      4.219700   278A      4.236449  
     279A      4.246977   280A      4.257054   281A      4.279179  
     282A      4.312656   283A      4.316784   284A      4.355258  
     285A      4.377698   286A      4.391646   287A      4.482492  
     288A      4.507691   289A      4.550674   290A      4.595656  
     291A      4.614710   292A      4.638006   293A      4.680328  
     294A      4.697418   295A      4.720701   296A      4.741839  
     297A      4.764680   298A      4.789944   299A      4.810224  
     300A      4.811604   301A      4.813548   302A      4.837308  
     303A      4.892279   304A      4.912699   305A      4.956200  
     306A      4.956400   307A      5.008517   308A      5.008692  
     309A      5.038908   310A      5.068938   311A      5.130734  
     312A      5.167793   313A      5.232513   314A      5.251540  
     315A      5.273640   316A      5.320478   317A      5.349794  
     318A      5.396074   319A      5.417218   320A      5.500921  
     321A      5.504175   322A      5.543916   323A      5.565024  
     324A      5.590132   325A      5.598726   326A      5.661344  
     327A      5.782795   328A      5.901260   329A      5.922048  
     330A      5.942336   331A      5.986838   332A      6.109331  
     333A      6.150366   334A      6.291356   335A      6.316826  
     336A      6.342462   337A      6.544056   338A      6.585867  
     339A      6.727650   340A      6.788423   341A      6.809661  
     342A      6.861709   343A      6.887777   344A      6.895110  
     345A      6.908731   346A      6.934656   347A      6.992466  
     348A      7.007793   349A      7.025749   350A      7.074847  
     351A      7.076023   352A      7.089230   353A      7.123646  
     354A      7.211013   355A      7.248812   356A      7.297348  
     357A      7.327295   358A      7.414635   359A      7.430828  
     360A      7.473237   361A      7.521671   362A      7.620879  
     363A      7.686501   364A      7.741462   365A      7.760141  
     366A      7.796450   367A      7.806890   368A      7.830570  
     369A      7.846597   370A      7.848123   371A      7.872422  
     372A      7.876029   373A      7.919676   374A      7.930181  
     375A      7.935534   376A      7.970399   377A      8.021957  
     378A      8.053941   379A      8.118121   380A      8.247512  
     381A      8.261548   382A      8.341190   383A      8.361352  
     384A      8.395648   385A      8.420972   386A      8.466603  
     387A      8.556500   388A      8.577832   389A      8.609714  
     390A      8.625984   391A      8.641825   392A      8.665649  
     393A      8.694469   394A      8.720155   395A      8.787890  
     396A      8.821921   397A      8.848770   398A      8.881488  
     399A      8.933672   400A      8.998978   401A      9.018024  
     402A      9.082949   403A      9.084514   404A      9.098585  
     405A      9.147541   406A      9.239911   407A      9.295979  
     408A      9.333466   409A      9.462317   410A      9.465728  
     411A      9.556239   412A      9.558582   413A      9.670421  
     414A      9.718387   415A      9.719746   416A      9.773588  
     417A      9.783755   418A      9.795383   419A      9.860873  
     420A      9.869275   421A      9.874845   422A      9.948740  
     423A      9.951044   424A      9.960854   425A      9.963234  
     426A     10.036395   427A     10.058686   428A     10.074683  
     429A     10.103079   430A     10.292873   431A     10.303238  
     432A     10.371118   433A     10.372889   434A     10.428553  
     435A     10.507377   436A     10.648820   437A     10.671024  
     438A     10.681042   439A     10.759426   440A     10.770300  
     441A     10.814626   442A     10.823290   443A     10.849302  
     444A     11.011953   445A     11.092428   446A     11.111632  
     447A     11.113928   448A     11.195891   449A     11.242513  
     450A     11.280095   451A     11.309213   452A     11.334523  
     453A     11.343744   454A     11.358005   455A     11.445817  
     456A     11.528382   457A     11.702779   458A     11.741149  
     459A     11.825833   460A     11.950982   461A     11.969958  
     462A     12.026306   463A     12.032165   464A     12.071552  
     465A     12.213942   466A     12.244594   467A     12.245164  
     468A     12.273691   469A     12.282196   470A     12.339181  
     471A     12.395671   472A     12.613164   473A     12.648511  
     474A     12.685541   475A     12.766096   476A     12.872444  
     477A     12.923087   478A     13.165412   479A     13.167993  
     480A     13.188226   481A     13.215992   482A     13.587118  
     483A     13.906299   484A     14.005312   485A     14.093977  
     486A     14.218754   487A     14.467617   488A     14.510578  
     489A     14.526100   490A     14.606034   491A     14.803246  
     492A     14.814846   493A     14.911586   494A     15.075470  
     495A     15.130940   496A     15.245269   497A     15.285110  
     498A     15.701053   499A     16.511397   500A     16.773375  
     501A     16.972782   502A     17.251751   503A     17.357386  
     504A     17.361720   505A     17.972461   506A     18.121847  
     507A     18.577445   508A     18.908639   509A     20.022000  
     510A     22.183243   511A     23.097710   512A     23.851623  
     513A     25.707701   514A     45.724891   515A     72.409562  
     516A    124.729876  

    Final Occupation by Irrep:
              A 
    DOCC [     5 ]

  @DF-RHF Final Energy:   -76.06580397019934

   => Energetics <=

    Nuclear Repulsion Energy =              9.1723488778788749
    One-Electron Energy =                -123.0190073162736439
    Two-Electron Energy =                  37.7808544681954359
    Total Energy =                        -76.0658039701993403

Computation Completed


Properties will be evaluated at   0.000000,   0.000000,   0.000000 [a0]

Properties computed using the SCF density matrix

  Nuclear Dipole Moment: [e a0]
     X:    46.6060      Y:     7.7758      Z:    -0.0221

  Electronic Dipole Moment: [e a0]
     X:   -46.0246      Y:    -7.2518      Z:     0.0176

  Dipole Moment: [e a0]
     X:     0.5814      Y:     0.5240      Z:    -0.0045     Total:     0.7827

  Dipole Moment: [D]
     X:     1.4778      Y:     1.3319      Z:    -0.0114     Total:     1.9895


*** tstop() called on node98.bme.utexas.edu at Thu Apr 23 18:28:23 2020
Module time:
	user time   =      49.50 seconds =       0.82 minutes
	system time =       1.17 seconds =       0.02 minutes
	total time  =          8 seconds =       0.13 minutes
Total time:
	user time   =     102.30 seconds =       1.70 minutes
	system time =       2.86 seconds =       0.05 minutes
	total time  =         17 seconds =       0.28 minutes

*** tstart() called on node98.bme.utexas.edu
*** at Thu Apr 23 18:28:23 2020


  //>>>>>>>>>>>>>>>>>>>>>>>>>>>>>>>>>>>//
  //               DFMP2               //
  //<<<<<<<<<<<<<<<<<<<<<<<<<<<<<<<<<<<//

   => Loading Basis Set <=

    Name: (AUG-CC-PVQZ AUX)
    Role: RIFIT
    Keyword: DF_BASIS_MP2
    atoms 1, 7        entry O          line   332 file /home/liuchw/anaconda3/envs/psi4env/share/psi4/basis/aug-cc-pvqz-ri.gbs 
    atoms 2, 4-6, 8-9 entry H          line    30 file /home/liuchw/anaconda3/envs/psi4env/share/psi4/basis/aug-cc-pvqz-ri.gbs 
    atoms 3           entry C          line   184 file /home/liuchw/anaconda3/envs/psi4env/share/psi4/basis/aug-cc-pvqz-ri.gbs 

	 --------------------------------------------------------
	                          DF-MP2                         
	      2nd-Order Density-Fitted Moller-Plesset Theory     
	              RMP2 Wavefunction,   8 Threads             
	                                                         
	        Rob Parrish, Justin Turney, Andy Simmonett,      
	           Ed Hohenstein, and C. David Sherrill          
	 --------------------------------------------------------

   => Auxiliary Basis Set <=

  Basis Set: (AUG-CC-PVQZ AUX)
    Blend: AUG-CC-PVQZ-RI
    Number of shells: 228
    Number of basis function: 984
    Number of Cartesian functions: 1341
    Spherical Harmonics?: true
    Max angular momentum: 5

	 --------------------------------------------------------
	                 NBF =   516, NAUX =   984
	 --------------------------------------------------------
	   CLASS    FOCC     OCC    AOCC    AVIR     VIR    FVIR
	   PAIRS       0       5       5     511     511       0
	 --------------------------------------------------------

	-----------------------------------------------------------
	 ==================> DF-MP2 Energies <==================== 
	-----------------------------------------------------------
	 Reference Energy          =     -76.0658039701993403 [Eh]
	 Singles Energy            =      -0.0000000000000000 [Eh]
	 Same-Spin Energy          =      -0.0727271678634235 [Eh]
	 Opposite-Spin Energy      =      -0.2443559607720439 [Eh]
	 Correlation Energy        =      -0.3170831286354673 [Eh]
	 Total Energy              =     -76.3828870988348143 [Eh]
	-----------------------------------------------------------
	 ================> DF-SCS-MP2 Energies <================== 
	-----------------------------------------------------------
	 SCS Same-Spin Scale       =       0.3333333333333333 [-]
	 SCS Opposite-Spin Scale   =       1.2000000000000000 [-]
	 SCS Same-Spin Energy      =      -0.0242423892878078 [Eh]
	 SCS Opposite-Spin Energy  =      -0.2932271529264526 [Eh]
	 SCS Correlation Energy    =      -0.3174695422142604 [Eh]
	 SCS Total Energy          =     -76.3832735124135951 [Eh]
	-----------------------------------------------------------


*** tstop() called on node98.bme.utexas.edu at Thu Apr 23 18:28:28 2020
Module time:
	user time   =      23.64 seconds =       0.39 minutes
	system time =       0.59 seconds =       0.01 minutes
	total time  =          5 seconds =       0.08 minutes
Total time:
	user time   =     125.95 seconds =       2.10 minutes
	system time =       3.45 seconds =       0.06 minutes
	total time  =         22 seconds =       0.37 minutes

  //>>>>>>>>>>>>>>>>>>>>>>>>>>>>>>>>>>>//
  //  CBS Results: mp2/aug-cc-pv[tq]z  //
  //<<<<<<<<<<<<<<<<<<<<<<<<<<<<<<<<<<<//


   ==> HF <==

   HI-zeta (4) Energy:               -76.065803970199


   ==> Helgaker 2-point correlated extrapolation for method: MP2 <==

   LO-zeta (3) Energy:               -76.344436846976
   HI-zeta (4) Energy:               -76.382887098835
   Alpha (exponent) Value:             3.000000000000
   Extrapolated Energy:              -76.410945390732

   @Extrapolated MP2/(T,Q):          -76.410945390732



   ==> Helgaker 2-point correlated extrapolation for method: HF <==

   LO-zeta (3) Energy:               -76.060458355881
   HI-zeta (4) Energy:               -76.065803970199
   Alpha (exponent) Value:             3.000000000000
   Extrapolated Energy:              -76.069704823891

   @Extrapolated HF/(T,Q):           -76.069704823891


   ==> Components <==

  ---------------------------------------------------------------------------------------------------------
                          Method / Basis                      Rqd      Energy [Eh]   Variable
  ---------------------------------------------------------------------------------------------------------
                              hf / aug-cc-pvtz                  *     -76.06045836   HF TOTAL ENERGY
                             mp2 / aug-cc-pvtz                  *     -76.34443685   MP2 TOTAL ENERGY
                              hf / aug-cc-pvqz                  *     -76.06580397   HF TOTAL ENERGY
                             mp2 / aug-cc-pvqz                  *     -76.38288710   MP2 TOTAL ENERGY
  ---------------------------------------------------------------------------------------------------------

   ==> Stages <==

  ---------------------------------------------------------------------------------------------------------
      Stage               Method / Basis                       Wt      Energy [Eh]   Scheme
  ---------------------------------------------------------------------------------------------------------
        scf                   hf / aug-cc-pvqz                  1     -76.06580397   xtpl_highest_1
       corl                  mp2 / aug-cc-pv[tq]z               1     -76.41094539   corl_xtpl_helgaker_2
       corl                   hf / aug-cc-pv[tq]z              -1     -76.06970482   corl_xtpl_helgaker_2
  ---------------------------------------------------------------------------------------------------------

   ==> CBS <==

  ---------------------------------------------------------------------------------------------------------
      Stage               Method / Basis                               Energy [Eh]   Scheme
  ---------------------------------------------------------------------------------------------------------
        scf                   hf / aug-cc-pvqz                        -76.06580397   xtpl_highest_1
       corl                  mp2 / aug-cc-pv[tq]z                      -0.34124057   corl_xtpl_helgaker_2
      total                  CBS                                      -76.40704454   
  ---------------------------------------------------------------------------------------------------------
   => Loading Basis Set <=

    Name: DEF2-SVP
    Role: ORBITAL
    Keyword: BASIS
    atoms 1, 7        entry O          line   130 file /home/liuchw/anaconda3/envs/psi4env/share/psi4/basis/def2-svp.gbs 
    atoms 2, 4-6, 8-9 entry H          line    15 file /home/liuchw/anaconda3/envs/psi4env/share/psi4/basis/def2-svp.gbs 
    atoms 3           entry C          line    90 file /home/liuchw/anaconda3/envs/psi4env/share/psi4/basis/def2-svp.gbs 


       N-Body: Complex Energy (fragments = (2,), basis = (1, 2):   -76.40704453703958)

       N-Body: Computing complex (3/4) with fragments (1,) in the basis of fragments (1, 2).


Scratch directory: /scratch/liuchw/

  //>>>>>>>>>>>>>>>>>>>>>>>>>>>>>>>>>>>//
  //   CBS Setup: mp2/aug-cc-pv[tq]z   //
  //<<<<<<<<<<<<<<<<<<<<<<<<<<<<<<<<<<<//

    Naive listing of computations required.
             hf / aug-cc-pvqz              for  HF TOTAL ENERGY
            mp2 / aug-cc-pvtz              for  MP2 TOTAL ENERGY
            mp2 / aug-cc-pvqz              for  MP2 TOTAL ENERGY
             hf / aug-cc-pvtz              for  HF TOTAL ENERGY
             hf / aug-cc-pvqz              for  HF TOTAL ENERGY

    Enlightened listing of computations required.
            mp2 / aug-cc-pvtz              for  MP2 TOTAL ENERGY
            mp2 / aug-cc-pvqz              for  MP2 TOTAL ENERGY

    Full listing of computations to be obtained (required and bonus).
             hf / aug-cc-pvtz              for  HF TOTAL ENERGY
            mp2 / aug-cc-pvtz              for  MP2 TOTAL ENERGY
             hf / aug-cc-pvqz              for  HF TOTAL ENERGY
            mp2 / aug-cc-pvqz              for  MP2 TOTAL ENERGY

  //>>>>>>>>>>>>>>>>>>>>>>>>>>>>>>>>>>>>//
  // CBS Computation: MP2 / AUG-CC-PVTZ //
  //<<<<<<<<<<<<<<<<<<<<<<<<<<<<<<<<<<<<//


Scratch directory: /scratch/liuchw/

*** tstart() called on node98.bme.utexas.edu
*** at Thu Apr 23 18:28:28 2020

   => Loading Basis Set <=

    Name: AUG-CC-PVTZ
    Role: ORBITAL
    Keyword: BASIS
    atoms 1, 7        entry O          line   331 file /home/liuchw/anaconda3/envs/psi4env/share/psi4/basis/aug-cc-pvtz.gbs 
    atoms 2, 4-6, 8-9 entry H          line    40 file /home/liuchw/anaconda3/envs/psi4env/share/psi4/basis/aug-cc-pvtz.gbs 
    atoms 3           entry C          line   239 file /home/liuchw/anaconda3/envs/psi4env/share/psi4/basis/aug-cc-pvtz.gbs 


         ---------------------------------------------------------
                                   SCF
               by Justin Turney, Rob Parrish, Andy Simmonett
                          and Daniel G. A. Smith
                              RHF Reference
                        8 Threads,  19073 MiB Core
         ---------------------------------------------------------

  ==> Geometry <==

    Molecular point group: c1
    Full point group: C1

    Geometry (in Angstrom), charge = 0, multiplicity = 1:

       Center              X                  Y                   Z               Mass       
    ------------   -----------------  -----------------  -----------------  -----------------
         O           -1.165175835309     0.449532439866    -0.003609916339    15.994914619570
         H           -0.200905835309     0.417062439866    -0.003249916339     1.007825032230
         C           -1.626605835309    -0.885917560134     0.004660083661    12.000000000000
         H           -2.712895835309    -0.854537560134     0.003800083661     1.007825032230
         H           -1.304585835309    -1.445407560134    -0.876869916339     1.007825032230
         H           -1.305645835309    -1.434097560134     0.893660083661     1.007825032230
[...]
      48A      0.330244    49A      0.330662    50A      0.351162  
      51A      0.356786    52A      0.371206    53A      0.375039  
      54A      0.377181    55A      0.384914    56A      0.389017  
      57A      0.405907    58A      0.420323    59A      0.433121  
      60A      0.437655    61A      0.449064    62A      0.476170  
      63A      0.495136    64A      0.508224    65A      0.550986  
      66A      0.553218    67A      0.555571    68A      0.570239  
      69A      0.581736    70A      0.583220    71A      0.592155  
      72A      0.610030    73A      0.621684    74A      0.625103  
      75A      0.632103    76A      0.641585    77A      0.643119  
      78A      0.658113    79A      0.688278    80A      0.697850  
      81A      0.717114    82A      0.717254    83A      0.723976  
      84A      0.726331    85A      0.738161    86A      0.746359  
      87A      0.751710    88A      0.751910    89A      0.757858  
      90A      0.768243    91A      0.781512    92A      0.786027  
      93A      0.793747    94A      0.799110    95A      0.805304  
      96A      0.820524    97A      0.821562    98A      0.835137  
      99A      0.847603   100A      0.855020   101A      0.859432  
     102A      0.866434   103A      0.880656   104A      0.891711  
     105A      0.899830   106A      0.902897   107A      0.940653  
     108A      0.944866   109A      0.949790   110A      0.954881  
     111A      0.962935   112A      0.989598   113A      0.998106  
     114A      1.028785   115A      1.038571   116A      1.073458  
     117A      1.078908   118A      1.100143   119A      1.111777  
     120A      1.151872   121A      1.155754   122A      1.164198  
     123A      1.178334   124A      1.189563   125A      1.195665  
     126A      1.206496   127A      1.215500   128A      1.228789  
     129A      1.255235   130A      1.257112   131A      1.270411  
     132A      1.332031   133A      1.340186   134A      1.361819  
     135A      1.398077   136A      1.413113   137A      1.418146  
     138A      1.442462   139A      1.476028   140A      1.476547  
     141A      1.495358   142A      1.513777   143A      1.513859  
     144A      1.536907   145A      1.540273   146A      1.558427  
     147A      1.590666   148A      1.600195   149A      1.608222  
     150A      1.611673   151A      1.626619   152A      1.649632  
     153A      1.661192   154A      1.668101   155A      1.674089  
     156A      1.685137   157A      1.712396   158A      1.727209  
     159A      1.747481   160A      1.751022   161A      1.754205  
     162A      1.761790   163A      1.774330   164A      1.790089  
     165A      1.794911   166A      1.805986   167A      1.823608  
     168A      1.838812   169A      1.854324   170A      1.859851  
     171A      1.864084   172A      1.867398   173A      1.868233  
     174A      1.916099   175A      1.916259   176A      1.918080  
     177A      1.927447   178A      1.928669   179A      1.942033  
     180A      1.966461   181A      1.972341   182A      1.977167  
     183A      1.995023   184A      1.999876   185A      2.016124  
     186A      2.022599   187A      2.028441   188A      2.032854  
     189A      2.054123   190A      2.055970   191A      2.075544  
     192A      2.087771   193A      2.097760   194A      2.102457  
     195A      2.108978   196A      2.124767   197A      2.157217  
     198A      2.159711   199A      2.162117   200A      2.185755  
     201A      2.194512   202A      2.208888   203A      2.209138  
     204A      2.231771   205A      2.247917   206A      2.254563  
     207A      2.276142   208A      2.293186   209A      2.296610  
     210A      2.315748   211A      2.318611   212A      2.350394  
     213A      2.364512   214A      2.371409   215A      2.398513  
     216A      2.443823   217A      2.464298   218A      2.525722  
     219A      2.540198   220A      2.594496   221A      2.604813  
     222A      2.612672   223A      2.659921   224A      2.681608  
     225A      2.684233   226A      2.727872   227A      2.757090  
     228A      2.766733   229A      2.791743   230A      2.793523  
     231A      2.799360   232A      2.803580   233A      2.814680  
     234A      2.875996   235A      2.878826   236A      2.907906  
     237A      2.942738   238A      2.978018   239A      2.996178  
     240A      3.028768   241A      3.045257   242A      3.054416  
     243A      3.061011   244A      3.063907   245A      3.088538  
     246A      3.106196   247A      3.106258   248A      3.126492  
     249A      3.189290   250A      3.209303   251A      3.255759  
     252A      3.261809   253A      3.297852   254A      3.313437  
     255A      3.336942   256A      3.352130   257A      3.356713  
     258A      3.393444   259A      3.418574   260A      3.510629  
     261A      3.521804   262A      3.567313   263A      3.626008  
     264A      3.653960   265A      3.661817   266A      3.671652  
     267A      3.708895   268A      3.730246   269A      3.751746  
     270A      3.754012   271A      3.786703   272A      3.797433  
     273A      3.816277   274A      3.824299   275A      3.842788  
     276A      3.901385   277A      3.908862   278A      3.960403  
     279A      3.960853   280A      4.013257   281A      4.032094  
     282A      4.095315   283A      4.111391   284A      4.111680  
     285A      4.149229   286A      4.153821   287A      4.160252  
     288A      4.170041   289A      4.203170   290A      4.219192  
     291A      4.223435   292A      4.271082   293A      4.279193  
     294A      4.296310   295A      4.321672   296A      4.374487  
     297A      4.377983   298A      4.413245   299A      4.450106  
     300A      4.461402   301A      4.461813   302A      4.517795  
     303A      4.543535   304A      4.561073   305A      4.586171  
     306A      4.622160   307A      4.675400   308A      4.731278  
     309A      4.733345   310A      4.751312   311A      4.760276  
     312A      4.771768   313A      4.776712   314A      4.792362  
     315A      4.800397   316A      4.829887   317A      4.886741  
     318A      4.926162   319A      4.971962   320A      4.979201  
     321A      5.043455   322A      5.043935   323A      5.053307  
     324A      5.137217   325A      5.200913   326A      5.261818  
     327A      5.297839   328A      5.303785   329A      5.358759  
     330A      5.361344   331A      5.398956   332A      5.428770  
     333A      5.501286   334A      5.501985   335A      5.558170  
     336A      5.635144   337A      5.733714   338A      5.830296  
     339A      5.890074   340A      5.906809   341A      5.975589  
     342A      6.069039   343A      6.094711   344A      6.186483  
     345A      6.219487   346A      6.260530   347A      6.322843  
     348A      6.356269   349A      6.495667   350A      6.531498  
     351A      6.583599   352A      6.700390   353A      6.716291  
     354A      6.751559   355A      6.815397   356A      6.869009  
     357A      6.871743   358A      6.886631   359A      6.899461  
     360A      6.902847   361A      6.918144   362A      6.968475  
     363A      6.981508   364A      6.993595   365A      7.003586  
     366A      7.032498   367A      7.162301   368A      7.177265  
     369A      7.216650   370A      7.275872   371A      7.414610  
     372A      7.442720   373A      7.498631   374A      7.597777  
     375A      7.611612   376A      7.628279   377A      7.668380  
     378A      7.704091   379A      7.727384   380A      7.778846  
     381A      7.827702   382A      7.831255   383A      7.855285  
     384A      7.894791   385A      7.904461   386A      7.919566  
     387A      7.950039   388A      7.953193   389A      7.966662  
     390A      7.969195   391A      8.036311   392A      8.038724  
     393A      8.056733   394A      8.073220   395A      8.195139  
     396A      8.233949   397A      8.246810   398A      8.274855  
     399A      8.377667   400A      8.419642   401A      8.434084  
     402A      8.545413   403A      8.546127   404A      8.558263  
     405A      8.648678   406A      8.648946   407A      8.700907  
     408A      8.724545   409A      8.732283   410A      8.768815  
     411A      8.806112   412A      8.821412   413A      8.856973  
     414A      8.865500   415A      8.889091   416A      8.945319  
     417A      9.005838   418A      9.014125   419A      9.070068  
     420A      9.110578   421A      9.158973   422A      9.198633  
     423A      9.220559   424A      9.233655   425A      9.254685  
     426A      9.264800   427A      9.341150   428A      9.396898  
     429A      9.497992   430A      9.506192   431A      9.625797  
     432A      9.646325   433A      9.656054   434A      9.735832  
     435A      9.759480   436A      9.830113   437A      9.912580  
     438A      9.935204   439A      9.935620   440A     10.013673  
     441A     10.043482   442A     10.045312   443A     10.068591  
     444A     10.119125   445A     10.141246   446A     10.212600  
     447A     10.225015   448A     10.356638   449A     10.417009  
     450A     10.461907   451A     10.485486   452A     10.523812  
     453A     10.582742   454A     10.748604   455A     10.817193  
     456A     10.920899   457A     11.005695   458A     11.018023  
     459A     11.064042   460A     11.083747   461A     11.094393  
     462A     11.139697   463A     11.169994   464A     11.225516  
     465A     11.291549   466A     11.316095   467A     11.318037  
     468A     11.345417   469A     11.442499   470A     11.493123  
     471A     11.523961   472A     11.567351   473A     11.724090  
     474A     11.753457   475A     11.818802   476A     11.842722  
     477A     11.934466   478A     11.945828   479A     12.048181  
     480A     12.113450   481A     12.230232   482A     12.239670  
     483A     12.254095   484A     12.486266   485A     12.507899  
     486A     12.612992   487A     12.632950   488A     12.750399  
     489A     12.857165   490A     12.904951   491A     12.955765  
     492A     12.988865   493A     13.134388   494A     13.171888  
     495A     13.253024   496A     13.338315   497A     13.366556  
     498A     13.623413   499A     13.678232   500A     13.775977  
     501A     13.990074   502A     14.079514   503A     14.159856  
     504A     14.502210   505A     14.700662   506A     14.798347  
     507A     14.893749   508A     14.922778   509A     15.101343  
     510A     15.265376   511A     16.952688   512A     17.308378  
     513A     17.342191   514A     29.212317   515A     45.590968  
     516A     45.722388  

    Final Occupation by Irrep:
              A 
    DOCC [    14 ]

  @DF-RHF Final Energy:  -191.16973672111277

   => Energetics <=

    Nuclear Repulsion Energy =             74.0616149482851682
    One-Electron Energy =                -409.1497536993712743
    Two-Electron Energy =                 143.9184020299733220
    Total Energy =                       -191.1697367211127698

Computation Completed


Properties will be evaluated at   0.000000,   0.000000,   0.000000 [a0]

Properties computed using the SCF density matrix

  Nuclear Dipole Moment: [e a0]
     X:     0.1091      Y:    -1.7413      Z:     0.0090

  Electronic Dipole Moment: [e a0]
     X:     1.0050      Y:     1.7053      Z:    -0.0098

  Dipole Moment: [e a0]
     X:     1.1141      Y:    -0.0359      Z:    -0.0008     Total:     1.1147

  Dipole Moment: [D]
     X:     2.8318      Y:    -0.0913      Z:    -0.0021     Total:     2.8333


*** tstop() called on node98.bme.utexas.edu at Thu Apr 23 18:29:07 2020
Module time:
	user time   =      55.23 seconds =       0.92 minutes
	system time =       1.40 seconds =       0.02 minutes
	total time  =          8 seconds =       0.13 minutes
Total time:
	user time   =     372.01 seconds =       6.20 minutes
	system time =      10.06 seconds =       0.17 minutes
	total time  =         61 seconds =       1.02 minutes

*** tstart() called on node98.bme.utexas.edu
*** at Thu Apr 23 18:29:07 2020


  //>>>>>>>>>>>>>>>>>>>>>>>>>>>>>>>>>>>//
  //               DFMP2               //
  //<<<<<<<<<<<<<<<<<<<<<<<<<<<<<<<<<<<//

   => Loading Basis Set <=

    Name: (AUG-CC-PVQZ AUX)
    Role: RIFIT
    Keyword: DF_BASIS_MP2
    atoms 1, 7        entry O          line   332 file /home/liuchw/anaconda3/envs/psi4env/share/psi4/basis/aug-cc-pvqz-ri.gbs 
    atoms 2, 4-6, 8-9 entry H          line    30 file /home/liuchw/anaconda3/envs/psi4env/share/psi4/basis/aug-cc-pvqz-ri.gbs 
    atoms 3           entry C          line   184 file /home/liuchw/anaconda3/envs/psi4env/share/psi4/basis/aug-cc-pvqz-ri.gbs 

	 --------------------------------------------------------
	                          DF-MP2                         
	      2nd-Order Density-Fitted Moller-Plesset Theory     
	              RMP2 Wavefunction,   8 Threads             
	                                                         
	        Rob Parrish, Justin Turney, Andy Simmonett,      
	           Ed Hohenstein, and C. David Sherrill          
	 --------------------------------------------------------

   => Auxiliary Basis Set <=

  Basis Set: (AUG-CC-PVQZ AUX)
    Blend: AUG-CC-PVQZ-RI
    Number of shells: 228
    Number of basis function: 984
    Number of Cartesian functions: 1341
    Spherical Harmonics?: true
    Max angular momentum: 5

	 --------------------------------------------------------
	                 NBF =   516, NAUX =   984
	 --------------------------------------------------------
	   CLASS    FOCC     OCC    AOCC    AVIR     VIR    FVIR
	   PAIRS       0      14      14     502     502       0
	 --------------------------------------------------------

	-----------------------------------------------------------
	 ==================> DF-MP2 Energies <==================== 
	-----------------------------------------------------------
	 Reference Energy          =    -191.1697367211127698 [Eh]
	 Singles Energy            =      -0.0000000000000000 [Eh]
	 Same-Spin Energy          =      -0.1857335010088469 [Eh]
	 Opposite-Spin Energy      =      -0.6552243398089443 [Eh]
	 Correlation Energy        =      -0.8409578408177912 [Eh]
	 Total Energy              =    -192.0106945619305634 [Eh]
	-----------------------------------------------------------
	 ================> DF-SCS-MP2 Energies <================== 
	-----------------------------------------------------------
	 SCS Same-Spin Scale       =       0.3333333333333333 [-]
	 SCS Opposite-Spin Scale   =       1.2000000000000000 [-]
	 SCS Same-Spin Energy      =      -0.0619111670029490 [Eh]
	 SCS Opposite-Spin Energy  =      -0.7862692077707332 [Eh]
	 SCS Correlation Energy    =      -0.8481803747736821 [Eh]
	 SCS Total Energy          =    -192.0179170958864461 [Eh]
	-----------------------------------------------------------


*** tstop() called on node98.bme.utexas.edu at Thu Apr 23 18:29:12 2020
Module time:
	user time   =      27.22 seconds =       0.45 minutes
	system time =       0.75 seconds =       0.01 minutes
	total time  =          5 seconds =       0.08 minutes
Total time:
	user time   =     399.24 seconds =       6.65 minutes
	system time =      10.81 seconds =       0.18 minutes
	total time  =         66 seconds =       1.10 minutes

  //>>>>>>>>>>>>>>>>>>>>>>>>>>>>>>>>>>>//
  //  CBS Results: mp2/aug-cc-pv[tq]z  //
  //<<<<<<<<<<<<<<<<<<<<<<<<<<<<<<<<<<<//


   ==> HF <==

   HI-zeta (4) Energy:               -191.169736721113


   ==> Helgaker 2-point correlated extrapolation for method: MP2 <==

   LO-zeta (3) Energy:               -191.912362940608
   HI-zeta (4) Energy:               -192.010694561931
   Alpha (exponent) Value:             3.000000000000
   Extrapolated Energy:              -192.082450069382

   @Extrapolated MP2/(T,Q):          -192.082450069382



   ==> Helgaker 2-point correlated extrapolation for method: HF <==

   LO-zeta (3) Energy:               -191.156888191365
   HI-zeta (4) Energy:               -191.169736721113
   Alpha (exponent) Value:             3.000000000000
   Extrapolated Energy:              -191.179112675253

   @Extrapolated HF/(T,Q):           -191.179112675253


   ==> Components <==

  ---------------------------------------------------------------------------------------------------------
                          Method / Basis                      Rqd      Energy [Eh]   Variable
  ---------------------------------------------------------------------------------------------------------
                              hf / aug-cc-pvtz                  *    -191.15688819   HF TOTAL ENERGY
                             mp2 / aug-cc-pvtz                  *    -191.91236294   MP2 TOTAL ENERGY
                              hf / aug-cc-pvqz                  *    -191.16973672   HF TOTAL ENERGY
                             mp2 / aug-cc-pvqz                  *    -192.01069456   MP2 TOTAL ENERGY
  ---------------------------------------------------------------------------------------------------------

   ==> Stages <==

  ---------------------------------------------------------------------------------------------------------
      Stage               Method / Basis                       Wt      Energy [Eh]   Scheme
  ---------------------------------------------------------------------------------------------------------
        scf                   hf / aug-cc-pvqz                  1    -191.16973672   xtpl_highest_1
       corl                  mp2 / aug-cc-pv[tq]z               1    -192.08245007   corl_xtpl_helgaker_2
       corl                   hf / aug-cc-pv[tq]z              -1    -191.17911268   corl_xtpl_helgaker_2
  ---------------------------------------------------------------------------------------------------------

   ==> CBS <==

  ---------------------------------------------------------------------------------------------------------
      Stage               Method / Basis                               Energy [Eh]   Scheme
  ---------------------------------------------------------------------------------------------------------
        scf                   hf / aug-cc-pvqz                       -191.16973672   xtpl_highest_1
       corl                  mp2 / aug-cc-pv[tq]z                      -0.90333739   corl_xtpl_helgaker_2
      total                  CBS                                     -192.07307412   
  ---------------------------------------------------------------------------------------------------------
   => Loading Basis Set <=

    Name: DEF2-SVP
    Role: ORBITAL
    Keyword: BASIS
    atoms 1, 7        entry O          line   130 file /home/liuchw/anaconda3/envs/psi4env/share/psi4/basis/def2-svp.gbs 
    atoms 2, 4-6, 8-9 entry H          line    15 file /home/liuchw/anaconda3/envs/psi4env/share/psi4/basis/def2-svp.gbs 
    atoms 3           entry C          line    90 file /home/liuchw/anaconda3/envs/psi4env/share/psi4/basis/def2-svp.gbs 


       N-Body: Complex Energy (fragments = (1, 2), basis = (1, 2):  -192.07307411524229)

   ==> N-Body: Counterpoise Corrected (CP) energies <==

   n-Body     Total Energy [Eh]       I.E. [kcal/mol]      Delta [kcal/mol]
        1     -192.068006829066        0.000000000000        0.000000000000
        2     -192.073208236125       -3.263932206151       -3.263932206151

   => Loading Basis Set <=

    Name: DEF2-SVP
    Role: ORBITAL
    Keyword: BASIS
    atoms 1, 7        entry O          line   130 file /home/liuchw/anaconda3/envs/psi4env/share/psi4/basis/def2-svp.gbs 
    atoms 2, 4-6, 8-9 entry H          line    15 file /home/liuchw/anaconda3/envs/psi4env/share/psi4/basis/def2-svp.gbs 
    atoms 3           entry C          line    90 file /home/liuchw/anaconda3/envs/psi4env/share/psi4/basis/def2-svp.gbs 


    Psi4 stopped on: Thursday, 23 April 2020 06:29PM
    Psi4 wall time for execution: 0:01:06.24

*** Psi4 exiting successfully. Buy a developer a beer!
