
    -----------------------------------------------------------------------
          Psi4: An Open-Source Ab Initio Electronic Structure Package
                               Psi4 1.4a2.dev224 

                         Git: Rev {master} e453b16 


    R. M. Parrish, L. A. Burns, D. G. A. Smith, A. C. Simmonett,
    A. E. DePrince III, E. G. Hohenstein, U. Bozkaya, A. Yu. Sokolov,
    R. Di Remigio, R. M. Richard, J. F. Gonthier, A. M. James,
    H. R. McAlexander, A. Kumar, M. Saitow, X. Wang, B. P. Pritchard,
    P. Verma, H. F. Schaefer III, K. Patkowski, R. A. King, E. F. Valeev,
    F. A. Evangelista, J. M. Turney, T. D. Crawford, and C. D. Sherrill,
    J. Chem. Theory Comput. 13(7) pp 3185--3197 (2017).
    (doi: 10.1021/acs.jctc.7b00174)


                         Additional Contributions by
    P. Kraus, H. Kruse, M. H. Lechner, M. C. Schieber, R. A. Shaw,
    A. Alenaizan, R. Galvelis, Z. L. Glick, S. Lehtola, and J. P. Misiewicz

    -----------------------------------------------------------------------


    Psi4 started on: Saturday, 11 April 2020 04:14PM

    Process ID: 86677
    Host:       node62.bme.utexas.edu
    PSIDATADIR: /home/liuchw/anaconda3/envs/psi4env/share/psi4
    Memory:     500.0 MiB
    Threads:    6
    
  ==> Input File <==

--------------------------------------------------------------------------
#Generated by lconvert.py for cbs job

memory 40 GB

molecule  {
0 1
  N       -0.5334640    -0.2795940     0.1069960
  H       -0.6291510    -1.2484250     0.3828490
  H       -1.1226040    -0.1661590    -0.7077640
  C       -1.0169090     0.5884860     1.1873730
  H       -0.9127600     1.6255520     0.8795210
  H       -2.0547370     0.4150820     1.4785040
  H       -0.3850230     0.4488010     2.0606140
--
0 1
  O        2.3135180     1.0026050     0.2038130
  H        1.4960010     0.5063320     0.0306600
  H        2.8954190     0.7441070    -0.5119330
units angstrom
no_reorient
symmetry c1
}

set {
scf_type DF
mp2_type DF
e_convergence 7
reference rhf
}

energy('mp2/aug-cc-pv[tq]z', bsse_type='cp')
--------------------------------------------------------------------------

  Memory set to  37.253 GiB by Python driver.

Scratch directory: /scratch//


   ===> N-Body Interaction Abacus <===
        BSSE Treatment:                     cp
        Number of 1-body computations:     4
        Number of 2-body computations:     1

   ==> N-Body: Now computing 1-body complexes <==


       N-Body: Computing complex (1/4) with fragments (2,) in the basis of fragments (2,).


Scratch directory: /scratch//

  //>>>>>>>>>>>>>>>>>>>>>>>>>>>>>>>>>>>//
  //   CBS Setup: mp2/aug-cc-pv[tq]z   //
  //<<<<<<<<<<<<<<<<<<<<<<<<<<<<<<<<<<<//

    Naive listing of computations required.
             hf / aug-cc-pvqz              for  HF TOTAL ENERGY
            mp2 / aug-cc-pvtz              for  MP2 TOTAL ENERGY
            mp2 / aug-cc-pvqz              for  MP2 TOTAL ENERGY
             hf / aug-cc-pvtz              for  HF TOTAL ENERGY
             hf / aug-cc-pvqz              for  HF TOTAL ENERGY

    Enlightened listing of computations required.
            mp2 / aug-cc-pvtz              for  MP2 TOTAL ENERGY
            mp2 / aug-cc-pvqz              for  MP2 TOTAL ENERGY

    Full listing of computations to be obtained (required and bonus).
             hf / aug-cc-pvtz              for  HF TOTAL ENERGY
            mp2 / aug-cc-pvtz              for  MP2 TOTAL ENERGY
             hf / aug-cc-pvqz              for  HF TOTAL ENERGY
            mp2 / aug-cc-pvqz              for  MP2 TOTAL ENERGY

  //>>>>>>>>>>>>>>>>>>>>>>>>>>>>>>>>>>>>//
  // CBS Computation: MP2 / AUG-CC-PVTZ //
  //<<<<<<<<<<<<<<<<<<<<<<<<<<<<<<<<<<<<//


Scratch directory: /scratch//

*** tstart() called on node62.bme.utexas.edu
*** at Sat Apr 11 16:14:50 2020

   => Loading Basis Set <=

    Name: AUG-CC-PVTZ
    Role: ORBITAL
    Keyword: BASIS
    atoms 1   entry O          line   331 file /home/liuchw/anaconda3/envs/psi4env/share/psi4/basis/aug-cc-pvtz.gbs 
    atoms 2-3 entry H          line    40 file /home/liuchw/anaconda3/envs/psi4env/share/psi4/basis/aug-cc-pvtz.gbs 


         ---------------------------------------------------------
                                   SCF
               by Justin Turney, Rob Parrish, Andy Simmonett
                          and Daniel G. A. Smith
                              RHF Reference
                        6 Threads,  38146 MiB Core
         ---------------------------------------------------------

  ==> Geometry <==

    Molecular point group: c1
    Full point group: C1

    Geometry (in Angstrom), charge = 0, multiplicity = 1:

       Center              X                  Y                   Z               Mass       
    ------------   -----------------  -----------------  -----------------  -----------------
         O            1.974840938954     0.563756672633    -0.257882472542    15.994914619570
         H            1.157323938954     0.067483672633    -0.431035472542     1.007825032230
         H            2.556741938954     0.305258672633    -0.973628472542     1.007825032230

  Running in c1 symmetry.

  Rotational constants: A =     25.58930  B =      0.21879  C =      0.21695 [cm^-1]
  Rotational constants: A = 767147.83349  B =   6559.04383  C =   6503.95104 [MHz]
  Nuclear repulsion =    9.123126876455492

  Charge       = 0
  Multiplicity = 1
  Electrons    = 10
  Nalpha       = 5
  Nbeta        = 5

  ==> Algorithm <==

  SCF Algorithm Type is DF.
  DIIS enabled.
  MOM disabled.
  Fractional occupation disabled.
  Guess Type is SAD.
  Energy threshold   = 1.00e-07
  Density threshold  = 1.00e-08
  Integral threshold = 0.00e+00

  ==> Primary Basis <==

  Basis Set: AUG-CC-PVTZ
    Blend: AUG-CC-PVTZ
    Number of shells: 32
    Number of basis function: 92
    Number of Cartesian functions: 105
    Spherical Harmonics?: true
    Max angular momentum: 3

   => Loading Basis Set <=

    Name: (AUG-CC-PVTZ AUX)
    Role: JKFIT
    Keyword: DF_BASIS_SCF
    atoms 1   entry O          line   286 file /home/liuchw/anaconda3/envs/psi4env/share/psi4/basis/aug-cc-pvtz-jkfit.gbs 
    atoms 2-3 entry H          line    70 file /home/liuchw/anaconda3/envs/psi4env/share/psi4/basis/aug-cc-pvtz-jkfit.gbs 

  ==> Pre-Iterations <==

   -------------------------------------------------------
    Irrep   Nso     Nmo     Nalpha   Nbeta   Ndocc  Nsocc
   -------------------------------------------------------
     A         92      92       0       0       0       0
   -------------------------------------------------------
    Total      92      92       5       5       5       0
   -------------------------------------------------------

  ==> Integral Setup <==

  DFHelper Memory: AOs need 0.015 GiB; user supplied 27.940 GiB. Using in-core AOs.

  ==> MemDFJK: Density-Fitted J/K Matrices <==

    J tasked:                   Yes
    K tasked:                   Yes
    wK tasked:                   No
    OpenMP threads:               6
    Memory [MiB]:             28610
    Algorithm:                 Core
    Schwarz Cutoff:           1E-12
    Mask sparsity (%):       0.0000
    Fitting Condition:        1E-10

   => Auxiliary Basis Set <=

  Basis Set: (AUG-CC-PVTZ AUX)
    Blend: AUG-CC-PVTZ-JKFIT
    Number of shells: 58
    Number of basis function: 196
    Number of Cartesian functions: 241
    Spherical Harmonics?: true
    Max angular momentum: 4

  Minimum eigenvalue in the overlap matrix is 3.9055466086E-04.
  Using Symmetric Orthogonalization.

  SCF Guess: Superposition of Atomic Densities via on-the-fly atomic UHF.

  ==> Iterations <==

                           Total Energy        Delta E     RMS |[F,P]|

   @DF-RHF iter SAD:   -75.46975433117498   -7.54698e+01   0.00000e+00 
   @DF-RHF iter   1:   -75.97520052350195   -5.05446e-01   5.08734e-03 DIIS
   @DF-RHF iter   2:   -76.02753529464523   -5.23348e-02   3.49093e-03 DIIS
   @DF-RHF iter   3:   -76.05943047840746   -3.18952e-02   2.37388e-04 DIIS
   @DF-RHF iter   4:   -76.05982692378305   -3.96445e-04   5.75336e-05 DIIS
   @DF-RHF iter   5:   -76.05985243306360   -2.55093e-05   1.31482e-05 DIIS
   @DF-RHF iter   6:   -76.05985454143524   -2.10837e-06   2.88070e-06 DIIS
   @DF-RHF iter   7:   -76.05985465228802   -1.10853e-07   5.14523e-07 DIIS
   @DF-RHF iter   8:   -76.05985465538318   -3.09515e-09   8.68310e-08 DIIS
   @DF-RHF iter   9:   -76.05985465545241   -6.92353e-11   2.15260e-08 DIIS
   @DF-RHF iter  10:   -76.05985465545646   -4.05009e-12   3.20086e-09 DIIS
  Energy and wave function converged.


  ==> Post-Iterations <==

    Orbital Energies [Eh]
    ---------------------

    Doubly Occupied:                                                      

       1A    -20.568822     2A     -1.350146     3A     -0.712453  
       4A     -0.584673     5A     -0.509916  

    Virtual:                                                              

       6A      0.029298     7A      0.047693     8A      0.135826  
       9A      0.158994    10A      0.175062    11A      0.183147  
      12A      0.226698    13A      0.244791    14A      0.265466  
      15A      0.299617    16A      0.309866    17A      0.365691  
      18A      0.436480    19A      0.465438    20A      0.598837  
      21A      0.658370    22A      0.707676    23A      0.722949  
      24A      0.731856    25A      0.829574    26A      0.846210  
      27A      0.892970    28A      0.911724    29A      0.918461  
      30A      0.922112    31A      0.930636    32A      0.960702  
      33A      1.019018    34A      1.042271    35A      1.081952  
      36A      1.107477    37A      1.175596    38A      1.180886  
      39A      1.262554    40A      1.508686    41A      1.534206  
      42A      1.580141    43A      1.807232    44A      1.819334  
      45A      1.977802    46A      2.114887    47A      2.262592  
      48A      2.315034    49A      2.327751    50A      2.417716  
      51A      2.420402    52A      2.442617    53A      2.481714  
      54A      2.679877    55A      2.698986    56A      2.767612  
      57A      2.813013    58A      2.882043    59A      3.646004  
      60A      3.735077    61A      4.016089    62A      4.078829  
      63A      4.158904    64A      4.243562    65A      4.283157  
      66A      4.372855    67A      4.375489    68A      4.401961  
      69A      4.515594    70A      4.720537    71A      4.832947  
      72A      5.137570    73A      5.142059    74A      5.240748  
      75A      5.310759    76A      5.512311    77A      5.654558  
      78A      6.175007    79A      6.516607    80A      6.713292  
      81A      6.897252    82A      7.130512    83A      7.253001  
      84A      7.289543    85A      7.311165    86A      7.336893  
      87A      7.359714    88A      7.523870    89A      7.888683  
      90A      7.919013    91A      8.786821    92A     15.597902  

    Final Occupation by Irrep:
              A 
    DOCC [     5 ]

  @DF-RHF Final Energy:   -76.05985465545646

   => Energetics <=

    Nuclear Repulsion Energy =              9.1231268764554923
    One-Electron Energy =                -122.9139420494187789
    Two-Electron Energy =                  37.7309605175068157
    Total Energy =                        -76.0598546554564763

Computation Completed


Properties will be evaluated at   0.000000,   0.000000,   0.000000 [a0]

Properties computed using the SCF density matrix

  Nuclear Dipole Moment: [e a0]
     X:    36.8738      Y:     9.2271      Z:    -6.5530

  Electronic Dipole Moment: [e a0]
     X:   -37.0274      Y:    -9.7258      Z:     5.9644

  Dipole Moment: [e a0]
     X:    -0.1535      Y:    -0.4987      Z:    -0.5886     Total:     0.7866

  Dipole Moment: [D]
     X:    -0.3902      Y:    -1.2675      Z:    -1.4961     Total:     1.9993


*** tstop() called on node62.bme.utexas.edu at Sat Apr 11 16:14:51 2020
Module time:
	user time   =       5.33 seconds =       0.09 minutes
	system time =       0.34 seconds =       0.01 minutes
	total time  =          1 seconds =       0.02 minutes
Total time:
	user time   =       5.33 seconds =       0.09 minutes
	system time =       0.34 seconds =       0.01 minutes
	total time  =          1 seconds =       0.02 minutes

*** tstart() called on node62.bme.utexas.edu
*** at Sat Apr 11 16:14:51 2020


  //>>>>>>>>>>>>>>>>>>>>>>>>>>>>>>>>>>>//
  //               DFMP2               //
  //<<<<<<<<<<<<<<<<<<<<<<<<<<<<<<<<<<<//

   => Loading Basis Set <=

    Name: (AUG-CC-PVTZ AUX)
    Role: RIFIT
    Keyword: DF_BASIS_MP2
    atoms 1   entry O          line   264 file /home/liuchw/anaconda3/envs/psi4env/share/psi4/basis/aug-cc-pvtz-ri.gbs 
    atoms 2-3 entry H          line    30 file /home/liuchw/anaconda3/envs/psi4env/share/psi4/basis/aug-cc-pvtz-ri.gbs 

	 --------------------------------------------------------
	                          DF-MP2                         
	      2nd-Order Density-Fitted Moller-Plesset Theory     
	              RMP2 Wavefunction,   6 Threads             
	                                                         
	        Rob Parrish, Justin Turney, Andy Simmonett,      
	           Ed Hohenstein, and C. David Sherrill          
	 --------------------------------------------------------

   => Auxiliary Basis Set <=

  Basis Set: (AUG-CC-PVTZ AUX)
    Blend: AUG-CC-PVTZ-RI
    Number of shells: 56
    Number of basis function: 198
    Number of Cartesian functions: 246
    Spherical Harmonics?: true
    Max angular momentum: 4

	 --------------------------------------------------------
	                 NBF =    92, NAUX =   198
	 --------------------------------------------------------
	   CLASS    FOCC     OCC    AOCC    AVIR     VIR    FVIR
	   PAIRS       0       5       5      87      87       0
	 --------------------------------------------------------

	-----------------------------------------------------------
	 ==================> DF-MP2 Energies <==================== 
	-----------------------------------------------------------
	 Reference Energy          =     -76.0598546554564621 [Eh]
	 Singles Energy            =      -0.0000000000000000 [Eh]
	 Same-Spin Energy          =      -0.0684807416248253 [Eh]
	 Opposite-Spin Energy      =      -0.2155935463531739 [Eh]
	 Correlation Energy        =      -0.2840742879779992 [Eh]
	 Total Energy              =     -76.3439289434344630 [Eh]
	-----------------------------------------------------------
	 ================> DF-SCS-MP2 Energies <================== 
	-----------------------------------------------------------
	 SCS Same-Spin Scale       =       0.3333333333333333 [-]
	 SCS Opposite-Spin Scale   =       1.2000000000000000 [-]
	 SCS Same-Spin Energy      =      -0.0228269138749418 [Eh]
	 SCS Opposite-Spin Energy  =      -0.2587122556238087 [Eh]
	 SCS Correlation Energy    =      -0.2815391694987505 [Eh]
	 SCS Total Energy          =     -76.3413938249552189 [Eh]
	-----------------------------------------------------------


*** tstop() called on node62.bme.utexas.edu at Sat Apr 11 16:14:52 2020
Module time:
	user time   =       2.41 seconds =       0.04 minutes
	system time =       0.14 seconds =       0.00 minutes
	total time  =          1 seconds =       0.02 minutes
Total time:
	user time   =       7.75 seconds =       0.13 minutes
	system time =       0.48 seconds =       0.01 minutes
	total time  =          2 seconds =       0.03 minutes

  //>>>>>>>>>>>>>>>>>>>>>>>>>>>>>>>>>>>>//
  // CBS Computation: MP2 / AUG-CC-PVQZ //
  //<<<<<<<<<<<<<<<<<<<<<<<<<<<<<<<<<<<<//


Scratch directory: /scratch//

*** tstart() called on node62.bme.utexas.edu
*** at Sat Apr 11 16:14:52 2020

   => Loading Basis Set <=

    Name: AUG-CC-PVQZ
    Role: ORBITAL
    Keyword: BASIS
    atoms 1   entry O          line   423 file /home/liuchw/anaconda3/envs/psi4env/share/psi4/basis/aug-cc-pvqz.gbs 
    atoms 2-3 entry H          line    40 file /home/liuchw/anaconda3/envs/psi4env/share/psi4/basis/aug-cc-pvqz.gbs 


         ---------------------------------------------------------
                                   SCF
               by Justin Turney, Rob Parrish, Andy Simmonett
                          and Daniel G. A. Smith
                              RHF Reference
                        6 Threads,  38146 MiB Core
         ---------------------------------------------------------

  ==> Geometry <==

    Molecular point group: c1
    Full point group: C1

    Geometry (in Angstrom), charge = 0, multiplicity = 1:

       Center              X                  Y                   Z               Mass       
    ------------   -----------------  -----------------  -----------------  -----------------
         O            1.974840938954     0.563756672633    -0.257882472542    15.994914619570
         H            1.157323938954     0.067483672633    -0.431035472542     1.007825032230
         H            2.556741938954     0.305258672633    -0.973628472542     1.007825032230

  Running in c1 symmetry.

  Rotational constants: A =     25.58930  B =      0.21879  C =      0.21695 [cm^-1]
  Rotational constants: A = 767147.83349  B =   6559.04383  C =   6503.95104 [MHz]
  Nuclear repulsion =    9.123126876455492

  Charge       = 0
  Multiplicity = 1
  Electrons    = 10
  Nalpha       = 5
  Nbeta        = 5

  ==> Algorithm <==

  SCF Algorithm Type is DF.
  DIIS enabled.
  MOM disabled.
  Fractional occupation disabled.
  Guess Type is SAD.
  Energy threshold   = 1.00e-07
  Density threshold  = 1.00e-08
  Integral threshold = 0.00e+00

  ==> Primary Basis <==

  Basis Set: AUG-CC-PVQZ
    Blend: AUG-CC-PVQZ
    Number of shells: 48
    Number of basis function: 172
    Number of Cartesian functions: 215
    Spherical Harmonics?: true
    Max angular momentum: 4

   => Loading Basis Set <=

    Name: (AUG-CC-PVQZ AUX)
    Role: JKFIT
    Keyword: DF_BASIS_SCF
    atoms 1   entry O          line   318 file /home/liuchw/anaconda3/envs/psi4env/share/psi4/basis/aug-cc-pvqz-jkfit.gbs 
    atoms 2-3 entry H          line    70 file /home/liuchw/anaconda3/envs/psi4env/share/psi4/basis/aug-cc-pvqz-jkfit.gbs 

  ==> Pre-Iterations <==

   -------------------------------------------------------
    Irrep   Nso     Nmo     Nalpha   Nbeta   Ndocc  Nsocc
   -------------------------------------------------------
     A        172     172       0       0       0       0
   -------------------------------------------------------
    Total     172     172       5       5       5       0
   -------------------------------------------------------

  ==> Integral Setup <==

  DFHelper Memory: AOs need 0.074 GiB; user supplied 27.940 GiB. Using in-core AOs.

  ==> MemDFJK: Density-Fitted J/K Matrices <==

    J tasked:                   Yes
    K tasked:                   Yes
    wK tasked:                   No
    OpenMP threads:               6
    Memory [MiB]:             28610
    Algorithm:                 Core
    Schwarz Cutoff:           1E-12
    Mask sparsity (%):       0.0000
    Fitting Condition:        1E-10

   => Auxiliary Basis Set <=

  Basis Set: (AUG-CC-PVQZ AUX)
    Blend: AUG-CC-PVQZ-JKFIT
    Number of shells: 70
    Number of basis function: 294
    Number of Cartesian functions: 400
    Spherical Harmonics?: true
    Max angular momentum: 5

  Minimum eigenvalue in the overlap matrix is 8.8614839602E-05.
  Using Symmetric Orthogonalization.

  SCF Guess: Superposition of Atomic Densities via on-the-fly atomic UHF.

  ==> Iterations <==

                           Total Energy        Delta E     RMS |[F,P]|

   @DF-RHF iter SAD:   -75.47488697784725   -7.54749e+01   0.00000e+00 
   @DF-RHF iter   1:   -75.98025614056770   -5.05369e-01   2.72705e-03 DIIS
   @DF-RHF iter   2:   -76.03268860878752   -5.24325e-02   1.87541e-03 DIIS
   @DF-RHF iter   3:   -76.06478282829036   -3.20942e-02   1.27946e-04 DIIS
   @DF-RHF iter   4:   -76.06518141023950   -3.98582e-04   3.17002e-05 DIIS
   @DF-RHF iter   5:   -76.06520785588602   -2.64456e-05   7.21871e-06 DIIS
   @DF-RHF iter   6:   -76.06521005025355   -2.19437e-06   1.62558e-06 DIIS
   @DF-RHF iter   7:   -76.06521017326062   -1.23007e-07   3.00231e-07 DIIS
   @DF-RHF iter   8:   -76.06521017693176   -3.67113e-09   4.86658e-08 DIIS
   @DF-RHF iter   9:   -76.06521017700989   -7.81313e-11   1.17854e-08 DIIS
   @DF-RHF iter  10:   -76.06521017701407   -4.17799e-12   1.78863e-09 DIIS
  Energy and wave function converged.


  ==> Post-Iterations <==

    Orbital Energies [Eh]
    ---------------------

    Doubly Occupied:                                                      

       1A    -20.566361     2A     -1.349414     3A     -0.712418  
       4A     -0.584719     5A     -0.510050  

    Virtual:                                                              

       6A      0.026828     7A      0.043087     8A      0.114068  
       9A      0.133702    10A      0.151007    11A      0.158691  
      12A      0.184735    13A      0.196946    14A      0.209318  
      15A      0.237120    16A      0.257010    17A      0.291462  
      18A      0.356643    19A      0.389136    20A      0.469594  
      21A      0.508609    22A      0.541971    23A      0.547398  
      24A      0.556398    25A      0.614155    26A      0.632796  
      27A      0.647160    28A      0.663504    29A      0.666270  
      30A      0.684662    31A      0.706662    32A      0.718440  
      33A      0.769252    34A      0.786347    35A      0.801413  
      36A      0.802736    37A      0.843396    38A      0.854445  
      39A      0.968888    40A      1.123782    41A      1.135836  
      42A      1.206980    43A      1.331472    44A      1.437768  
      45A      1.480314    46A      1.509211    47A      1.511047  
      48A      1.527329    49A      1.553840    50A      1.591752  
      51A      1.619905    52A      1.635817    53A      1.662365  
      54A      1.664736    55A      1.689844    56A      1.702810  
      57A      1.736100    58A      1.752585    59A      1.766812  
      60A      1.775156    61A      1.841471    62A      1.865545  
      63A      1.893180    64A      1.914752    65A      1.979913  
      66A      2.009445    67A      2.034682    68A      2.039549  
      69A      2.102183    70A      2.205631    71A      2.217092  
      72A      2.311267    73A      2.435219    74A      2.620968  
      75A      2.626705    76A      2.881231    77A      2.951470  
      78A      2.991971    79A      3.039049    80A      3.052432  
      81A      3.081915    82A      3.264294    83A      3.294577  
      84A      3.306448    85A      3.488284    86A      3.588162  
      87A      3.640451    88A      3.686656    89A      3.714076  
      90A      3.770951    91A      3.924358    92A      4.078395  
      93A      4.166248    94A      4.169776    95A      4.177832  
      96A      4.180089    97A      4.236290    98A      4.326793  
      99A      4.433480   100A      4.574034   101A      4.715614  
     102A      4.741768   103A      4.777995   104A      4.778167  
     105A      4.807813   106A      4.873424   107A      4.993474  
     108A      5.235531   109A      5.312843   110A      5.509393  
     111A      5.520295   112A      5.846173   113A      5.877648  
     114A      6.066034   115A      6.220304   116A      6.820257  
     117A      6.876062   118A      6.877688   119A      6.906934  
     120A      7.713621   121A      7.759686   122A      7.784662  
     123A      7.814738   124A      7.822015   125A      7.894873  
     126A      7.923112   127A      8.016759   128A      8.175466  
     129A      8.190530   130A      8.520883   131A      8.624770  
     132A      8.646181   133A      8.699936   134A      8.767181  
     135A      8.837706   136A      8.989466   137A      9.034150  
     138A      9.204853   139A      9.656072   140A      9.880446  
     141A      9.890491   142A      9.906157   143A      9.984101  
     144A     10.309211   145A     10.437406   146A     10.703172  
     147A     11.013503   148A     11.077266   149A     11.100240  
     150A     11.270082   151A     11.304608   152A     11.406623  
     153A     11.704794   154A     11.786568   155A     11.834031  
     156A     11.981139   157A     12.184520   158A     12.200656  
     159A     12.598509   160A     12.716374   161A     12.798839  
     162A     12.896018   163A     13.178795   164A     13.941252  
     165A     13.994646   166A     14.456352   167A     14.775019  
     168A     14.863049   169A     15.203582   170A     16.796349  
     171A     17.252876   172A     45.444759  

    Final Occupation by Irrep:
              A 
    DOCC [     5 ]

  @DF-RHF Final Energy:   -76.06521017701407

   => Energetics <=

    Nuclear Repulsion Energy =              9.1231268764554923
    One-Electron Energy =                -122.9307485296923801
    Two-Electron Energy =                  37.7424114762228271
    Total Energy =                        -76.0652101770140661

Computation Completed


Properties will be evaluated at   0.000000,   0.000000,   0.000000 [a0]

Properties computed using the SCF density matrix

  Nuclear Dipole Moment: [e a0]
     X:    36.8738      Y:     9.2271      Z:    -6.5530

  Electronic Dipole Moment: [e a0]
     X:   -37.0272      Y:    -9.7253      Z:     5.9651

  Dipole Moment: [e a0]
     X:    -0.1534      Y:    -0.4981      Z:    -0.5880     Total:     0.7857

  Dipole Moment: [D]
     X:    -0.3898      Y:    -1.2661      Z:    -1.4945     Total:     1.9971


*** tstop() called on node62.bme.utexas.edu at Sat Apr 11 16:14:53 2020
Module time:
	user time   =       8.53 seconds =       0.14 minutes
	system time =       0.46 seconds =       0.01 minutes
	total time  =          1 seconds =       0.02 minutes
Total time:
	user time   =      16.31 seconds =       0.27 minutes
	system time =       0.94 seconds =       0.02 minutes
	total time  =          3 seconds =       0.05 minutes

*** tstart() called on node62.bme.utexas.edu
*** at Sat Apr 11 16:14:53 2020


  //>>>>>>>>>>>>>>>>>>>>>>>>>>>>>>>>>>>//
  //               DFMP2               //
  //<<<<<<<<<<<<<<<<<<<<<<<<<<<<<<<<<<<//

   => Loading Basis Set <=

    Name: (AUG-CC-PVQZ AUX)
    Role: RIFIT
    Keyword: DF_BASIS_MP2
    atoms 1   entry O          line   332 file /home/liuchw/anaconda3/envs/psi4env/share/psi4/basis/aug-cc-pvqz-ri.gbs 
    atoms 2-3 entry H          line    30 file /home/liuchw/anaconda3/envs/psi4env/share/psi4/basis/aug-cc-pvqz-ri.gbs 

	 --------------------------------------------------------
	                          DF-MP2                         
	      2nd-Order Density-Fitted Moller-Plesset Theory     
	              RMP2 Wavefunction,   6 Threads             
	                                                         
	        Rob Parrish, Justin Turney, Andy Simmonett,      
	           Ed Hohenstein, and C. David Sherrill          
	 --------------------------------------------------------

   => Auxiliary Basis Set <=

  Basis Set: (AUG-CC-PVQZ AUX)
    Blend: AUG-CC-PVQZ-RI
    Number of shells: 76
    Number of basis function: 328
    Number of Cartesian functions: 447
    Spherical Harmonics?: true
    Max angular momentum: 5

	 --------------------------------------------------------
	                 NBF =   172, NAUX =   328
	 --------------------------------------------------------
	   CLASS    FOCC     OCC    AOCC    AVIR     VIR    FVIR
	   PAIRS       0       5       5     167     167       0
	 --------------------------------------------------------

	-----------------------------------------------------------
	 ==================> DF-MP2 Energies <==================== 
	-----------------------------------------------------------
	 Reference Energy          =     -76.0652101770140661 [Eh]
	 Singles Energy            =      -0.0000000000000000 [Eh]
	 Same-Spin Energy          =      -0.0728003311414485 [Eh]
	 Opposite-Spin Energy      =      -0.2445413119309469 [Eh]
	 Correlation Energy        =      -0.3173416430723955 [Eh]
	 Total Energy              =     -76.3825518200864622 [Eh]
	-----------------------------------------------------------
	 ================> DF-SCS-MP2 Energies <================== 
	-----------------------------------------------------------
	 SCS Same-Spin Scale       =       0.3333333333333333 [-]
	 SCS Opposite-Spin Scale   =       1.2000000000000000 [-]
	 SCS Same-Spin Energy      =      -0.0242667770471495 [Eh]
	 SCS Opposite-Spin Energy  =      -0.2934495743171363 [Eh]
	 SCS Correlation Energy    =      -0.3177163513642858 [Eh]
	 SCS Total Energy          =     -76.3829265283783485 [Eh]
	-----------------------------------------------------------


*** tstop() called on node62.bme.utexas.edu at Sat Apr 11 16:14:54 2020
Module time:
	user time   =       4.20 seconds =       0.07 minutes
	system time =       0.27 seconds =       0.00 minutes
	total time  =          1 seconds =       0.02 minutes
Total time:
	user time   =      20.51 seconds =       0.34 minutes
	system time =       1.21 seconds =       0.02 minutes
	total time  =          4 seconds =       0.07 minutes

  //>>>>>>>>>>>>>>>>>>>>>>>>>>>>>>>>>>>//
  //  CBS Results: mp2/aug-cc-pv[tq]z  //
  //<<<<<<<<<<<<<<<<<<<<<<<<<<<<<<<<<<<//


   ==> HF <==

   HI-zeta (4) Energy:               -76.065210177014


   ==> Helgaker 2-point correlated extrapolation for method: MP2 <==

   LO-zeta (3) Energy:               -76.343928943434
   HI-zeta (4) Energy:               -76.382551820086
   Alpha (exponent) Value:             3.000000000000
   Extrapolated Energy:              -76.410736081427

   @Extrapolated MP2/(T,Q):          -76.410736081427



   ==> Helgaker 2-point correlated extrapolation for method: HF <==

   LO-zeta (3) Energy:               -76.059854655456
   HI-zeta (4) Energy:               -76.065210177014
   Alpha (exponent) Value:             3.000000000000
   Extrapolated Energy:              -76.069118260313

   @Extrapolated HF/(T,Q):           -76.069118260313


   ==> Components <==

  ---------------------------------------------------------------------------------------------------------
                          Method / Basis                      Rqd      Energy [Eh]   Variable
  ---------------------------------------------------------------------------------------------------------
                              hf / aug-cc-pvtz                  *     -76.05985466   HF TOTAL ENERGY
                             mp2 / aug-cc-pvtz                  *     -76.34392894   MP2 TOTAL ENERGY
                              hf / aug-cc-pvqz                  *     -76.06521018   HF TOTAL ENERGY
                             mp2 / aug-cc-pvqz                  *     -76.38255182   MP2 TOTAL ENERGY
  ---------------------------------------------------------------------------------------------------------

   ==> Stages <==

  ---------------------------------------------------------------------------------------------------------
      Stage               Method / Basis                       Wt      Energy [Eh]   Scheme
  ---------------------------------------------------------------------------------------------------------
        scf                   hf / aug-cc-pvqz                  1     -76.06521018   xtpl_highest_1
       corl                  mp2 / aug-cc-pv[tq]z               1     -76.41073608   corl_xtpl_helgaker_2
       corl                   hf / aug-cc-pv[tq]z              -1     -76.06911826   corl_xtpl_helgaker_2
  ---------------------------------------------------------------------------------------------------------

   ==> CBS <==

  ---------------------------------------------------------------------------------------------------------
      Stage               Method / Basis                               Energy [Eh]   Scheme
  ---------------------------------------------------------------------------------------------------------
        scf                   hf / aug-cc-pvqz                        -76.06521018   xtpl_highest_1
       corl                  mp2 / aug-cc-pv[tq]z                      -0.34161782   corl_xtpl_helgaker_2
      total                  CBS                                      -76.40682800   
  ---------------------------------------------------------------------------------------------------------
   => Loading Basis Set <=

    Name: DEF2-SVP
    Role: ORBITAL
    Keyword: BASIS
    atoms 1   entry O          line   130 file /home/liuchw/anaconda3/envs/psi4env/share/psi4/basis/def2-svp.gbs 
    atoms 2-3 entry H          line    15 file /home/liuchw/anaconda3/envs/psi4env/share/psi4/basis/def2-svp.gbs 


       N-Body: Complex Energy (fragments = (2,), basis = (2,):   -76.40682799812834)

       N-Body: Computing complex (2/4) with fragments (2,) in the basis of fragments (1, 2).


Scratch directory: /scratch//

  //>>>>>>>>>>>>>>>>>>>>>>>>>>>>>>>>>>>//
  //   CBS Setup: mp2/aug-cc-pv[tq]z   //
  //<<<<<<<<<<<<<<<<<<<<<<<<<<<<<<<<<<<//

    Naive listing of computations required.
             hf / aug-cc-pvqz              for  HF TOTAL ENERGY
            mp2 / aug-cc-pvtz              for  MP2 TOTAL ENERGY
            mp2 / aug-cc-pvqz              for  MP2 TOTAL ENERGY
             hf / aug-cc-pvtz              for  HF TOTAL ENERGY
             hf / aug-cc-pvqz              for  HF TOTAL ENERGY

    Enlightened listing of computations required.
            mp2 / aug-cc-pvtz              for  MP2 TOTAL ENERGY
            mp2 / aug-cc-pvqz              for  MP2 TOTAL ENERGY

    Full listing of computations to be obtained (required and bonus).
             hf / aug-cc-pvtz              for  HF TOTAL ENERGY
            mp2 / aug-cc-pvtz              for  MP2 TOTAL ENERGY
             hf / aug-cc-pvqz              for  HF TOTAL ENERGY
            mp2 / aug-cc-pvqz              for  MP2 TOTAL ENERGY

  //>>>>>>>>>>>>>>>>>>>>>>>>>>>>>>>>>>>>//
  // CBS Computation: MP2 / AUG-CC-PVTZ //
  //<<<<<<<<<<<<<<<<<<<<<<<<<<<<<<<<<<<<//


Scratch directory: /scratch//

*** tstart() called on node62.bme.utexas.edu
*** at Sat Apr 11 16:14:55 2020

   => Loading Basis Set <=

    Name: AUG-CC-PVTZ
    Role: ORBITAL
    Keyword: BASIS
    atoms 1              entry N          line   285 file /home/liuchw/anaconda3/envs/psi4env/share/psi4/basis/aug-cc-pvtz.gbs 
    atoms 2-3, 5-7, 9-10 entry H          line    40 file /home/liuchw/anaconda3/envs/psi4env/share/psi4/basis/aug-cc-pvtz.gbs 
    atoms 4              entry C          line   239 file /home/liuchw/anaconda3/envs/psi4env/share/psi4/basis/aug-cc-pvtz.gbs 
    atoms 8              entry O          line   331 file /home/liuchw/anaconda3/envs/psi4env/share/psi4/basis/aug-cc-pvtz.gbs 


         ---------------------------------------------------------
                                   SCF
               by Justin Turney, Rob Parrish, Andy Simmonett
                          and Daniel G. A. Smith
                              RHF Reference
                        6 Threads,  38146 MiB Core
         ---------------------------------------------------------

  ==> Geometry <==

    Molecular point group: c1
    Full point group: C1

    Geometry (in Angstrom), charge = 0, multiplicity = 1:

       Center              X                  Y                   Z               Mass       
    ------------   -----------------  -----------------  -----------------  -----------------
      Gh(N)          -0.872141061046    -0.718442327367    -0.354699472542    14.003074004430
      Gh(H)          -0.967828061046    -1.687273327367    -0.078846472542     1.007825032230
      Gh(H)          -1.461281061046    -0.605007327367    -1.169459472542     1.007825032230
      Gh(C)          -1.355586061046     0.149637672633     0.725677527458    12.000000000000
      Gh(H)          -1.251437061046     1.186703672633     0.417825527458     1.007825032230
      Gh(H)          -2.393414061046    -0.023766327367     1.016808527458     1.007825032230
      Gh(H)          -0.723700061046     0.009952672633     1.598918527458     1.007825032230
         O            1.974840938954     0.563756672633    -0.257882472542    15.994914619570
         H            1.157323938954     0.067483672633    -0.431035472542     1.007825032230
         H            2.556741938954     0.305258672633    -0.973628472542     1.007825032230

  Running in c1 symmetry.

  Rotational constants: A =      0.74277  B =      0.13276  C =      0.11713 [cm^-1]
  Rotational constants: A =  22267.80281  B =   3980.14708  C =   3511.33655 [MHz]
  Nuclear repulsion =    9.123126876455492

  Charge       = 0
  Multiplicity = 1
  Electrons    = 10
  Nalpha       = 5
  Nbeta        = 5

  ==> Algorithm <==

  SCF Algorithm Type is DF.
  DIIS enabled.
  MOM disabled.
  Fractional occupation disabled.
  Guess Type is SAD.
  Energy threshold   = 1.00e-07
  Density threshold  = 1.00e-08
  Integral threshold = 0.00e+00

  ==> Primary Basis <==

  Basis Set: AUG-CC-PVTZ
    Blend: AUG-CC-PVTZ
    Number of shells: 105
    Number of basis function: 299
    Number of Cartesian functions: 340
    Spherical Harmonics?: true
    Max angular momentum: 3

   => Loading Basis Set <=

    Name: (AUG-CC-PVTZ AUX)
    Role: JKFIT
    Keyword: DF_BASIS_SCF
    atoms 1              entry N          line   224 file /home/liuchw/anaconda3/envs/psi4env/share/psi4/basis/aug-cc-pvtz-jkfit.gbs 
    atoms 2-3, 5-7, 9-10 entry H          line    70 file /home/liuchw/anaconda3/envs/psi4env/share/psi4/basis/aug-cc-pvtz-jkfit.gbs 
    atoms 4              entry C          line   162 file /home/liuchw/anaconda3/envs/psi4env/share/psi4/basis/aug-cc-pvtz-jkfit.gbs 
    atoms 8              entry O          line   286 file /home/liuchw/anaconda3/envs/psi4env/share/psi4/basis/aug-cc-pvtz-jkfit.gbs 

  ==> Pre-Iterations <==

   -------------------------------------------------------
    Irrep   Nso     Nmo     Nalpha   Nbeta   Ndocc  Nsocc
   -------------------------------------------------------
     A        299     299       0       0       0       0
   -------------------------------------------------------
    Total     299     299       5       5       5       0
   -------------------------------------------------------

  ==> Integral Setup <==

  DFHelper Memory: AOs need 0.437 GiB; user supplied 27.940 GiB. Using in-core AOs.

  ==> MemDFJK: Density-Fitted J/K Matrices <==

    J tasked:                   Yes
    K tasked:                   Yes
    wK tasked:                   No
    OpenMP threads:               6
    Memory [MiB]:             28610
    Algorithm:                 Core
    Schwarz Cutoff:           1E-12
    Mask sparsity (%):       2.4317
    Fitting Condition:        1E-10

   => Auxiliary Basis Set <=

  Basis Set: (AUG-CC-PVTZ AUX)
    Blend: AUG-CC-PVTZ-JKFIT
    Number of shells: 188
    Number of basis function: 634
    Number of Cartesian functions: 778
    Spherical Harmonics?: true
    Max angular momentum: 4

  Minimum eigenvalue in the overlap matrix is 2.9697634437E-05.
  Using Symmetric Orthogonalization.

  SCF Guess: Superposition of Atomic Densities via on-the-fly atomic UHF.

  ==> Iterations <==

                           Total Energy        Delta E     RMS |[F,P]|

   @DF-RHF iter SAD:   -75.46975429605388   -7.54698e+01   0.00000e+00 
   @DF-RHF iter   1:   -75.97524388589319   -5.05490e-01   1.56548e-03 DIIS
   @DF-RHF iter   2:   -76.02758756086961   -5.23437e-02   1.07435e-03 DIIS
   @DF-RHF iter   3:   -76.05948685767510   -3.18993e-02   7.30584e-05 DIIS
   @DF-RHF iter   4:   -76.05988340728176   -3.96550e-04   1.77120e-05 DIIS
   @DF-RHF iter   5:   -76.05990894959062   -2.55423e-05   4.04909e-06 DIIS
   @DF-RHF iter   6:   -76.05991106243954   -2.11285e-06   8.88095e-07 DIIS
   @DF-RHF iter   7:   -76.05991117391453   -1.11475e-07   1.59082e-07 DIIS
   @DF-RHF iter   8:   -76.05991117704311   -3.12858e-09   2.67862e-08 DIIS
   @DF-RHF iter   9:   -76.05991117711316   -7.00595e-11   6.64421e-09 DIIS
  Energy and wave function converged.


  ==> Post-Iterations <==

    Orbital Energies [Eh]
    ---------------------

    Doubly Occupied:                                                      

       1A    -20.568796     2A     -1.350107     3A     -0.712419  
       4A     -0.584630     5A     -0.509905  

    Virtual:                                                              

       6A      0.018348     7A      0.035326     8A      0.042532  
       9A      0.043474    10A      0.056610    11A      0.070099  
      12A      0.081942    13A      0.097169    14A      0.107295  
      15A      0.119899    16A      0.129326    17A      0.136714  
      18A      0.140803    19A      0.145015    20A      0.170380  
      21A      0.181455    22A      0.192651    23A      0.194585  
      24A      0.230885    25A      0.242769    26A      0.259219  
      27A      0.268792    28A      0.282337    29A      0.287525  
      30A      0.292307    31A      0.295153    32A      0.303110  
      33A      0.308692    34A      0.312026    35A      0.325329  
      36A      0.330689    37A      0.343757    38A      0.355427  
      39A      0.368920    40A      0.374285    41A      0.391059  
      42A      0.411296    43A      0.412221    44A      0.420462  
      45A      0.439752    46A      0.443366    47A      0.448348  
      48A      0.465173    49A      0.476019    50A      0.488123  
      51A      0.491841    52A      0.510611    53A      0.529474  
      54A      0.534506    55A      0.563303    56A      0.582427  
      57A      0.584622    58A      0.591232    59A      0.642653  
      60A      0.648755    61A      0.661458    62A      0.686250  
      63A      0.695609    64A      0.701441    65A      0.719038  
      66A      0.725351    67A      0.735412    68A      0.761932  
      69A      0.770740    70A      0.776990    71A      0.801846  
      72A      0.805708    73A      0.838439    74A      0.872133  
      75A      0.897802    76A      0.903820    77A      0.929110  
      78A      0.949332    79A      0.949806    80A      0.953025  
      81A      0.968763    82A      0.992792    83A      1.001529  
      84A      1.004333    85A      1.018767    86A      1.023744  
      87A      1.031019    88A      1.038820    89A      1.050468  
      90A      1.068518    91A      1.078185    92A      1.092573  
      93A      1.106384    94A      1.115669    95A      1.120634  
      96A      1.133653    97A      1.145263    98A      1.156775  
      99A      1.162283   100A      1.175468   101A      1.205950  
     102A      1.211704   103A      1.221424   104A      1.235685  
     105A      1.244946   106A      1.260493   107A      1.283409  
     108A      1.288030   109A      1.303248   110A      1.322025  
     111A      1.333187   112A      1.357938   113A      1.382205  
     114A      1.391955   115A      1.416005   116A      1.421283  
     117A      1.440930   118A      1.452121   119A      1.488109  
     120A      1.502149   121A      1.516053   122A      1.536436  
     123A      1.549189   124A      1.588725   125A      1.604373  
     126A      1.627774   127A      1.639204   128A      1.658687  
     129A      1.663382   130A      1.676300   131A      1.732953  
     132A      1.761408   133A      1.785514   134A      1.799255  
     135A      1.819313   136A      1.827290   137A      1.833992  
     138A      1.851562   139A      1.909876   140A      1.978845  
     141A      2.011207   142A      2.026586   143A      2.047513  
     144A      2.064716   145A      2.104249   146A      2.133269  
     147A      2.136606   148A      2.176429   149A      2.188062  
     150A      2.202757   151A      2.231315   152A      2.258078  
     153A      2.294686   154A      2.335564   155A      2.355587  
     156A      2.376972   157A      2.406432   158A      2.421625  
     159A      2.425512   160A      2.443692   161A      2.476655  
     162A      2.490680   163A      2.512332   164A      2.522468  
     165A      2.555608   166A      2.570010   167A      2.616354  
     168A      2.677595   169A      2.679461   170A      2.725785  
     171A      2.754775   172A      2.804731   173A      2.815621  
     174A      2.870169   175A      2.874872   176A      2.879434  
     177A      2.937967   178A      2.980072   179A      3.003915  
     180A      3.032531   181A      3.056298   182A      3.092516  
     183A      3.140732   184A      3.280395   185A      3.345823  
     186A      3.455484   187A      3.773410   188A      3.965406  
     189A      4.038523   190A      4.062930   191A      4.116839  
     192A      4.154188   193A      4.157674   194A      4.163593  
     195A      4.178381   196A      4.239805   197A      4.243459  
     198A      4.296564   199A      4.330557   200A      4.349641  
     201A      4.391616   202A      4.401346   203A      4.415089  
     204A      4.447445   205A      4.465425   206A      4.480237  
     207A      4.489002   208A      4.525501   209A      4.537086  
     210A      4.587682   211A      4.636248   212A      4.663867  
     213A      4.731999   214A      4.735793   215A      4.768938  
     216A      4.776570   217A      4.805323   218A      4.819654  
     219A      4.850967   220A      4.916720   221A      4.934485  
     222A      4.980598   223A      4.995671   224A      5.037406  
     225A      5.040762   226A      5.061814   227A      5.098576  
     228A      5.134798   229A      5.147614   230A      5.201542  
     231A      5.222219   232A      5.251261   233A      5.310331  
     234A      5.315095   235A      5.320427   236A      5.358605  
     237A      5.374889   238A      5.456371   239A      5.464128  
     240A      5.483878   241A      5.486376   242A      5.496735  
     243A      5.548552   244A      5.583707   245A      5.658681  
     246A      5.685531   247A      5.762323   248A      5.782177  
     249A      5.791125   250A      5.865266   251A      5.945576  
     252A      5.984145   253A      5.990799   254A      6.174815  
     255A      6.187436   256A      6.289132   257A      6.313162  
     258A      6.423380   259A      6.489582   260A      6.568099  
     261A      6.663631   262A      6.713667   263A      6.779956  
     264A      6.908284   265A      6.953848   266A      7.004421  
     267A      7.151807   268A      7.167190   269A      7.168041  
     270A      7.284474   271A      7.298481   272A      7.335557  
     273A      7.342661   274A      7.414683   275A      7.495737  
     276A      7.571258   277A      7.574065   278A      7.617046  
     279A      7.750358   280A      7.829355   281A      7.862318  
     282A      7.863187   283A      7.976852   284A      7.992194  
     285A      8.058586   286A      8.088264   287A      8.216771  
     288A      8.244463   289A      8.696310   290A      8.834704  
     291A      9.351102   292A     10.041032   293A     10.562650  
     294A     11.010313   295A     11.263447   296A     11.999931  
     297A     16.472361   298A     53.266456   299A     59.414639  

    Final Occupation by Irrep:
              A 
    DOCC [     5 ]

  @DF-RHF Final Energy:   -76.05991117711316

   => Energetics <=

    Nuclear Repulsion Energy =              9.1231268764554923
    One-Electron Energy =                -122.9143609306353966
    Two-Electron Energy =                  37.7313228770667521
    Total Energy =                        -76.0599111771131504

Computation Completed


Properties will be evaluated at   0.000000,   0.000000,   0.000000 [a0]

Properties computed using the SCF density matrix

  Nuclear Dipole Moment: [e a0]
     X:    36.8738      Y:     9.2271      Z:    -6.5530

  Electronic Dipole Moment: [e a0]
     X:   -37.0276      Y:    -9.7260      Z:     5.9643

  Dipole Moment: [e a0]
     X:    -0.1537      Y:    -0.4989      Z:    -0.5887     Total:     0.7868

  Dipole Moment: [D]
     X:    -0.3907      Y:    -1.2680      Z:    -1.4963     Total:     1.9998


*** tstop() called on node62.bme.utexas.edu at Sat Apr 11 16:14:58 2020
Module time:
	user time   =      14.85 seconds =       0.25 minutes
	system time =       0.51 seconds =       0.01 minutes
	total time  =          3 seconds =       0.05 minutes
Total time:
	user time   =      36.78 seconds =       0.61 minutes
	system time =       1.77 seconds =       0.03 minutes
	total time  =          8 seconds =       0.13 minutes

*** tstart() called on node62.bme.utexas.edu
*** at Sat Apr 11 16:14:58 2020


  //>>>>>>>>>>>>>>>>>>>>>>>>>>>>>>>>>>>//
  //               DFMP2               //
  //<<<<<<<<<<<<<<<<<<<<<<<<<<<<<<<<<<<//

   => Loading Basis Set <=

    Name: (AUG-CC-PVTZ AUX)
    Role: RIFIT
    Keyword: DF_BASIS_MP2
    atoms 1              entry N          line   206 file /home/liuchw/anaconda3/envs/psi4env/share/psi4/basis/aug-cc-pvtz-ri.gbs 
    atoms 2-3, 5-7, 9-10 entry H          line    30 file /home/liuchw/anaconda3/envs/psi4env/share/psi4/basis/aug-cc-pvtz-ri.gbs 
    atoms 4              entry C          line   148 file /home/liuchw/anaconda3/envs/psi4env/share/psi4/basis/aug-cc-pvtz-ri.gbs 
    atoms 8              entry O          line   264 file /home/liuchw/anaconda3/envs/psi4env/share/psi4/basis/aug-cc-pvtz-ri.gbs 

	 --------------------------------------------------------
	                          DF-MP2                         
	      2nd-Order Density-Fitted Moller-Plesset Theory     
	              RMP2 Wavefunction,   6 Threads             
	                                                         
	        Rob Parrish, Justin Turney, Andy Simmonett,      
	           Ed Hohenstein, and C. David Sherrill          
	 --------------------------------------------------------

   => Auxiliary Basis Set <=

  Basis Set: (AUG-CC-PVTZ AUX)
    Blend: AUG-CC-PVTZ-RI
    Number of shells: 182
    Number of basis function: 640
    Number of Cartesian functions: 793
    Spherical Harmonics?: true
    Max angular momentum: 4

	 --------------------------------------------------------
	                 NBF =   299, NAUX =   640
	 --------------------------------------------------------
	   CLASS    FOCC     OCC    AOCC    AVIR     VIR    FVIR
	   PAIRS       0       5       5     294     294       0
	 --------------------------------------------------------

	-----------------------------------------------------------
	 ==================> DF-MP2 Energies <==================== 
	-----------------------------------------------------------
	 Reference Energy          =     -76.0599111771131646 [Eh]
	 Singles Energy            =      -0.0000000000000000 [Eh]
	 Same-Spin Energy          =      -0.0685383283799335 [Eh]
	 Opposite-Spin Energy      =      -0.2162815178620512 [Eh]
	 Correlation Energy        =      -0.2848198462419846 [Eh]
	 Total Energy              =     -76.3447310233551519 [Eh]
	-----------------------------------------------------------
	 ================> DF-SCS-MP2 Energies <================== 
	-----------------------------------------------------------
	 SCS Same-Spin Scale       =       0.3333333333333333 [-]
	 SCS Opposite-Spin Scale   =       1.2000000000000000 [-]
	 SCS Same-Spin Energy      =      -0.0228461094599778 [Eh]
	 SCS Opposite-Spin Energy  =      -0.2595378214344614 [Eh]
	 SCS Correlation Energy    =      -0.2823839308944393 [Eh]
	 SCS Total Energy          =     -76.3422951080076047 [Eh]
	-----------------------------------------------------------


*** tstop() called on node62.bme.utexas.edu at Sat Apr 11 16:15:00 2020
Module time:
	user time   =       6.99 seconds =       0.12 minutes
	system time =       0.31 seconds =       0.01 minutes
	total time  =          2 seconds =       0.03 minutes
Total time:
	user time   =      43.77 seconds =       0.73 minutes
	system time =       2.08 seconds =       0.03 minutes
	total time  =         10 seconds =       0.17 minutes

  //>>>>>>>>>>>>>>>>>>>>>>>>>>>>>>>>>>>>//
  // CBS Computation: MP2 / AUG-CC-PVQZ //
  //<<<<<<<<<<<<<<<<<<<<<<<<<<<<<<<<<<<<//


Scratch directory: /scratch//

*** tstart() called on node62.bme.utexas.edu
*** at Sat Apr 11 16:15:00 2020

   => Loading Basis Set <=

    Name: AUG-CC-PVQZ
    Role: ORBITAL
    Keyword: BASIS
    atoms 1              entry N          line   363 file /home/liuchw/anaconda3/envs/psi4env/share/psi4/basis/aug-cc-pvqz.gbs 
    atoms 2-3, 5-7, 9-10 entry H          line    40 file /home/liuchw/anaconda3/envs/psi4env/share/psi4/basis/aug-cc-pvqz.gbs 
    atoms 4              entry C          line   303 file /home/liuchw/anaconda3/envs/psi4env/share/psi4/basis/aug-cc-pvqz.gbs 
    atoms 8              entry O          line   423 file /home/liuchw/anaconda3/envs/psi4env/share/psi4/basis/aug-cc-pvqz.gbs 


         ---------------------------------------------------------
                                   SCF
               by Justin Turney, Rob Parrish, Andy Simmonett
                          and Daniel G. A. Smith
                              RHF Reference
                        6 Threads,  38146 MiB Core
         ---------------------------------------------------------

  ==> Geometry <==

    Molecular point group: c1
    Full point group: C1

    Geometry (in Angstrom), charge = 0, multiplicity = 1:

       Center              X                  Y                   Z               Mass       
    ------------   -----------------  -----------------  -----------------  -----------------
      Gh(N)          -0.872141061046    -0.718442327367    -0.354699472542    14.003074004430
      Gh(H)          -0.967828061046    -1.687273327367    -0.078846472542     1.007825032230
      Gh(H)          -1.461281061046    -0.605007327367    -1.169459472542     1.007825032230
      Gh(C)          -1.355586061046     0.149637672633     0.725677527458    12.000000000000
      Gh(H)          -1.251437061046     1.186703672633     0.417825527458     1.007825032230
      Gh(H)          -2.393414061046    -0.023766327367     1.016808527458     1.007825032230
      Gh(H)          -0.723700061046     0.009952672633     1.598918527458     1.007825032230
         O            1.974840938954     0.563756672633    -0.257882472542    15.994914619570
         H            1.157323938954     0.067483672633    -0.431035472542     1.007825032230
         H            2.556741938954     0.305258672633    -0.973628472542     1.007825032230

  Running in c1 symmetry.

  Rotational constants: A =      0.74277  B =      0.13276  C =      0.11713 [cm^-1]
  Rotational constants: A =  22267.80281  B =   3980.14708  C =   3511.33655 [MHz]
  Nuclear repulsion =    9.123126876455492

  Charge       = 0
  Multiplicity = 1
  Electrons    = 10
  Nalpha       = 5
  Nbeta        = 5

  ==> Algorithm <==

  SCF Algorithm Type is DF.
  DIIS enabled.
  MOM disabled.
  Fractional occupation disabled.
  Guess Type is SAD.
  Energy threshold   = 1.00e-07
  Density threshold  = 1.00e-08
  Integral threshold = 0.00e+00

  ==> Primary Basis <==

  Basis Set: AUG-CC-PVQZ
    Blend: AUG-CC-PVQZ
    Number of shells: 158
    Number of basis function: 562
    Number of Cartesian functions: 700
    Spherical Harmonics?: true
    Max angular momentum: 4

   => Loading Basis Set <=

    Name: (AUG-CC-PVQZ AUX)
    Role: JKFIT
    Keyword: DF_BASIS_SCF
    atoms 1              entry N          line   248 file /home/liuchw/anaconda3/envs/psi4env/share/psi4/basis/aug-cc-pvqz-jkfit.gbs 
    atoms 2-3, 5-7, 9-10 entry H          line    70 file /home/liuchw/anaconda3/envs/psi4env/share/psi4/basis/aug-cc-pvqz-jkfit.gbs 
    atoms 4              entry C          line   178 file /home/liuchw/anaconda3/envs/psi4env/share/psi4/basis/aug-cc-pvqz-jkfit.gbs 
    atoms 8              entry O          line   318 file /home/liuchw/anaconda3/envs/psi4env/share/psi4/basis/aug-cc-pvqz-jkfit.gbs 

  ==> Pre-Iterations <==

   -------------------------------------------------------
    Irrep   Nso     Nmo     Nalpha   Nbeta   Ndocc  Nsocc
   -------------------------------------------------------
     A        562     562       0       0       0       0
   -------------------------------------------------------
    Total     562     562       5       5       5       0
   -------------------------------------------------------

  ==> Integral Setup <==

  DFHelper Memory: AOs need 2.241 GiB; user supplied 27.940 GiB. Using in-core AOs.

  ==> MemDFJK: Density-Fitted J/K Matrices <==

    J tasked:                   Yes
    K tasked:                   Yes
    wK tasked:                   No
    OpenMP threads:               6
    Memory [MiB]:             28610
    Algorithm:                 Core
    Schwarz Cutoff:           1E-12
    Mask sparsity (%):       4.9714
    Fitting Condition:        1E-10

   => Auxiliary Basis Set <=

  Basis Set: (AUG-CC-PVQZ AUX)
    Blend: AUG-CC-PVQZ-JKFIT
    Number of shells: 228
    Number of basis function: 958
    Number of Cartesian functions: 1301
    Spherical Harmonics?: true
    Max angular momentum: 5

  Minimum eigenvalue in the overlap matrix is 8.0663635234E-06.
  Using Symmetric Orthogonalization.

  SCF Guess: Superposition of Atomic Densities via on-the-fly atomic UHF.

  ==> Iterations <==

                           Total Energy        Delta E     RMS |[F,P]|

   @DF-RHF iter SAD:   -75.47488696670456   -7.54749e+01   0.00000e+00 
   @DF-RHF iter   1:   -75.98027603490715   -5.05389e-01   8.34635e-04 DIIS
   @DF-RHF iter   2:   -76.03271147360657   -5.24354e-02   5.73995e-04 DIIS
   @DF-RHF iter   3:   -76.06480564569728   -3.20942e-02   3.91614e-05 DIIS
   @DF-RHF iter   4:   -76.06520425546654   -3.98610e-04   9.70172e-06 DIIS
   @DF-RHF iter   5:   -76.06523069863049   -2.64432e-05   2.20994e-06 DIIS
   @DF-RHF iter   6:   -76.06523289414541   -2.19551e-06   4.97626e-07 DIIS
   @DF-RHF iter   7:   -76.06523301727275   -1.23127e-07   9.20550e-08 DIIS
   @DF-RHF iter   8:   -76.06523302096249   -3.68975e-09   1.49252e-08 DIIS
   @DF-RHF iter   9:   -76.06523302104158   -7.90834e-11   3.61304e-09 DIIS
  Energy and wave function converged.


  ==> Post-Iterations <==

    Orbital Energies [Eh]
    ---------------------

    Doubly Occupied:                                                      

       1A    -20.566341     2A     -1.349394     3A     -0.712403  
       4A     -0.584701     5A     -0.510041  

    Virtual:                                                              

       6A      0.016446     7A      0.031952     8A      0.038401  
       9A      0.039325    10A      0.051545    11A      0.063825  
      12A      0.074232    13A      0.086422    14A      0.094589  
      15A      0.102501    16A      0.114139    17A      0.115434  
      18A      0.122718    19A      0.126399    20A      0.148718  
      21A      0.154397    22A      0.165363    23A      0.170532  
      24A      0.198950    25A      0.202830    26A      0.214880  
      27A      0.223583    28A      0.232514    29A      0.236684  
      30A      0.236995    31A      0.250600    32A      0.254420  
      33A      0.260907    34A      0.268534    35A      0.269639  
      36A      0.282985    37A      0.296594    38A      0.298107  
      39A      0.304329    40A      0.309065    41A      0.323792  
      42A      0.332187    43A      0.337130    44A      0.349776  
      45A      0.356332    46A      0.358607    47A      0.368121  
      48A      0.369149    49A      0.383799    50A      0.401615  
      51A      0.403545    52A      0.422886    53A      0.425395  
      54A      0.432393    55A      0.442267    56A      0.447546  
      57A      0.468714    58A      0.483993    59A      0.513698  
      60A      0.514627    61A      0.527478    62A      0.542454  
      63A      0.554979    64A      0.558498    65A      0.565317  
      66A      0.580368    67A      0.587625    68A      0.589000  
      69A      0.601873    70A      0.605182    71A      0.615527  
      72A      0.637744    73A      0.657840    74A      0.676693  
      75A      0.680659    76A      0.683556    77A      0.685677  
      78A      0.707481    79A      0.713449    80A      0.722874  
      81A      0.736568    82A      0.746696    83A      0.757144  
      84A      0.765389    85A      0.769192    86A      0.772166  
      87A      0.774699    88A      0.775862    89A      0.784365  
      90A      0.811754    91A      0.813276    92A      0.831941  
      93A      0.837849    94A      0.854566    95A      0.859361  
      96A      0.863032    97A      0.871631    98A      0.877141  
      99A      0.884110   100A      0.909295   101A      0.911960  
     102A      0.916188   103A      0.923116   104A      0.944036  
     105A      0.949216   106A      0.971070   107A      0.975055  
     108A      0.983517   109A      0.990446   110A      1.002917  
     111A      1.017419   112A      1.019847   113A      1.029497  
     114A      1.034884   115A      1.070545   116A      1.082411  
     117A      1.087637   118A      1.123704   119A      1.133629  
     120A      1.143284   121A      1.145181   122A      1.152393  
     123A      1.164225   124A      1.182875   125A      1.205675  
     126A      1.209047   127A      1.222147   128A      1.225778  
     129A      1.244097   130A      1.251200   131A      1.261872  
     132A      1.286550   133A      1.292965   134A      1.306153  
     135A      1.349740   136A      1.358565   137A      1.362682  
     138A      1.393631   139A      1.437258   140A      1.457641  
     141A      1.486926   142A      1.496219   143A      1.507969  
     144A      1.515659   145A      1.529521   146A      1.536967  
     147A      1.550581   148A      1.573150   149A      1.575084  
     150A      1.576840   151A      1.583693   152A      1.610041  
     153A      1.616560   154A      1.629656   155A      1.639066  
     156A      1.655236   157A      1.662279   158A      1.683906  
     159A      1.698246   160A      1.706137   161A      1.721887  
     162A      1.727694   163A      1.731059   164A      1.742425  
     165A      1.775575   166A      1.779877   167A      1.788188  
     168A      1.791075   169A      1.805432   170A      1.814338  
     171A      1.821591   172A      1.840519   173A      1.847729  
     174A      1.852543   175A      1.873207   176A      1.888512  
     177A      1.896831   178A      1.907603   179A      1.916565  
     180A      1.926457   181A      1.937149   182A      1.952606  
     183A      1.968228   184A      1.979569   185A      1.996735  
     186A      2.006959   187A      2.021155   188A      2.031062  
     189A      2.047679   190A      2.058314   191A      2.063664  
     192A      2.089786   193A      2.096158   194A      2.096565  
     195A      2.119317   196A      2.127747   197A      2.142258  
     198A      2.143733   199A      2.162838   200A      2.179671  
     201A      2.184372   202A      2.192317   203A      2.205471  
     204A      2.218437   205A      2.224678   206A      2.239965  
     207A      2.249426   208A      2.262460   209A      2.278425  
     210A      2.289618   211A      2.306244   212A      2.320417  
     213A      2.334498   214A      2.350444   215A      2.364532  
     216A      2.367616   217A      2.379762   218A      2.388176  
     219A      2.392820   220A      2.413314   221A      2.433449  
     222A      2.455722   223A      2.460194   224A      2.464666  
     225A      2.483524   226A      2.511175   227A      2.544397  
     228A      2.602711   229A      2.610829   230A      2.624909  
     231A      2.643095   232A      2.671194   233A      2.701048  
     234A      2.711892   235A      2.722425   236A      2.738803  
     237A      2.770641   238A      2.803101   239A      2.807845  
     240A      2.870007   241A      2.890890   242A      2.899348  
     243A      2.922067   244A      2.942443   245A      2.976039  
     246A      2.998163   247A      3.017335   248A      3.033542  
     249A      3.054353   250A      3.074242   251A      3.081188  
     252A      3.094766   253A      3.105351   254A      3.123919  
     255A      3.130559   256A      3.170317   257A      3.193699  
     258A      3.213563   259A      3.223545   260A      3.255302  
     261A      3.272675   262A      3.277696   263A      3.301877  
     264A      3.315073   265A      3.333709   266A      3.367924  
     267A      3.377400   268A      3.393409   269A      3.410526  
     270A      3.434996   271A      3.443178   272A      3.465954  
     273A      3.479166   274A      3.483472   275A      3.493750  
     276A      3.520175   277A      3.532254   278A      3.588904  
     279A      3.606090   280A      3.612883   281A      3.633583  
     282A      3.651002   283A      3.696952   284A      3.714758  
     285A      3.740772   286A      3.787058   287A      3.790426  
     288A      3.829820   289A      3.847500   290A      3.874200  
     291A      3.888570   292A      3.905673   293A      3.918321  
     294A      3.946986   295A      3.951933   296A      3.981035  
     297A      4.000976   298A      4.010982   299A      4.053302  
     300A      4.066292   301A      4.083498   302A      4.087543  
     303A      4.133705   304A      4.142432   305A      4.146477  
     306A      4.180908   307A      4.198570   308A      4.207946  
     309A      4.222543   310A      4.261676   311A      4.272858  
     312A      4.290543   313A      4.307820   314A      4.330812  
     315A      4.363535   316A      4.380459   317A      4.424465  
     318A      4.435608   319A      4.448220   320A      4.481009  
     321A      4.499300   322A      4.517120   323A      4.582397  
     324A      4.599098   325A      4.641897   326A      4.642654  
     327A      4.666786   328A      4.733516   329A      4.803615  
     330A      4.839731   331A      4.848900   332A      4.873825  
     333A      4.886405   334A      4.887538   335A      4.916231  
     336A      4.930036   337A      4.965314   338A      4.989392  
     339A      5.028641   340A      5.031750   341A      5.071292  
     342A      5.136777   343A      5.144866   344A      5.170976  
     345A      5.224052   346A      5.265985   347A      5.289879  
     348A      5.324032   349A      5.340601   350A      5.397415  
     351A      5.404621   352A      5.477786   353A      5.509704  
     354A      5.578670   355A      5.581770   356A      5.617105  
     357A      5.637815   358A      5.681568   359A      5.731727  
     360A      5.761411   361A      5.827027   362A      5.834558  
     363A      5.973880   364A      5.981493   365A      6.043867  
     366A      6.125574   367A      6.169009   368A      6.185509  
     369A      6.245504   370A      6.268240   371A      6.489396  
     372A      6.579788   373A      6.605051   374A      6.820170  
     375A      6.843946   376A      6.876975   377A      6.916678  
     378A      6.928015   379A      6.965108   380A      6.983661  
     381A      7.037641   382A      7.058149   383A      7.118176  
     384A      7.129617   385A      7.204126   386A      7.239825  
     387A      7.261608   388A      7.303432   389A      7.354099  
     390A      7.363660   391A      7.457195   392A      7.518785  
     393A      7.568408   394A      7.651146   395A      7.661034  
     396A      7.675013   397A      7.682728   398A      7.767897  
     399A      7.777567   400A      7.815463   401A      7.827104  
     402A      7.842277   403A      7.848382   404A      7.863980  
     405A      7.919834   406A      7.928811   407A      7.947409  
     408A      7.995223   409A      8.010896   410A      8.067392  
     411A      8.087296   412A      8.100636   413A      8.147384  
     414A      8.203163   415A      8.218051   416A      8.233554  
     417A      8.308760   418A      8.333628   419A      8.368179  
     420A      8.386399   421A      8.408711   422A      8.467526  
     423A      8.542480   424A      8.548956   425A      8.605467  
     426A      8.614453   427A      8.661334   428A      8.743419  
     429A      8.749224   430A      8.757089   431A      8.781651  
     432A      8.791978   433A      8.805264   434A      8.869283  
     435A      8.881583   436A      8.908192   437A      8.933641  
     438A      8.946654   439A      9.022767   440A      9.041832  
     441A      9.097068   442A      9.150277   443A      9.190392  
     444A      9.267825   445A      9.315491   446A      9.323737  
     447A      9.345885   448A      9.404298   449A      9.449894  
     450A      9.510171   451A      9.516063   452A      9.548311  
     453A      9.584874   454A      9.589118   455A      9.672892  
     456A      9.691030   457A      9.716883   458A      9.759687  
     459A      9.790083   460A      9.831711   461A      9.843174  
     462A      9.847429   463A      9.851142   464A      9.906234  
     465A      9.923924   466A      9.960501   467A      9.974519  
     468A      9.989258   469A     10.013965   470A     10.036311  
     471A     10.057344   472A     10.063262   473A     10.088050  
     474A     10.131508   475A     10.150207   476A     10.232185  
     477A     10.344202   478A     10.357406   479A     10.378345  
     480A     10.464803   481A     10.516742   482A     10.527551  
     483A     10.540404   484A     10.556531   485A     10.627542  
     486A     10.720504   487A     10.735650   488A     10.789956  
     489A     10.815402   490A     10.828357   491A     10.901517  
     492A     10.946004   493A     10.965045   494A     10.993068  
     495A     11.060425   496A     11.085561   497A     11.155700  
     498A     11.161044   499A     11.199463   500A     11.275048  
     501A     11.349195   502A     11.353260   503A     11.373342  
     504A     11.382187   505A     11.456235   506A     11.473506  
     507A     11.512049   508A     11.571143   509A     11.804917  
     510A     11.854883   511A     11.913189   512A     11.948982  
     513A     11.965096   514A     12.061803   515A     12.119779  
     516A     12.136055   517A     12.208670   518A     12.284910  
     519A     12.315478   520A     12.321975   521A     12.345204  
     522A     12.383210   523A     12.402874   524A     12.752153  
     525A     12.778441   526A     12.799986   527A     12.803272  
     528A     12.843899   529A     12.860645   530A     12.961166  
     531A     13.226514   532A     13.268942   533A     13.290680  
     534A     13.510070   535A     13.585770   536A     13.977401  
     537A     14.044060   538A     14.212588   539A     14.487656  
     540A     14.500061   541A     14.643394   542A     14.687231  
     543A     14.765478   544A     14.803741   545A     14.812775  
     546A     14.916449   547A     15.253865   548A     15.794332  
     549A     16.057556   550A     16.286567   551A     16.670419  
     552A     16.986171   553A     17.375594   554A     17.399904  
     555A     17.424860   556A     18.200482   557A     19.049439  
     558A     20.899065   559A     21.938679   560A     45.688718  
     561A     72.394906   562A     96.143323  

    Final Occupation by Irrep:
              A 
    DOCC [     5 ]

  @DF-RHF Final Energy:   -76.06523302104158

   => Energetics <=

    Nuclear Repulsion Energy =              9.1231268764554923
    One-Electron Energy =                -122.9309559979258353
    Two-Electron Energy =                  37.7425961004287700
    Total Energy =                        -76.0652330210415784

Computation Completed


Properties will be evaluated at   0.000000,   0.000000,   0.000000 [a0]

Properties computed using the SCF density matrix

  Nuclear Dipole Moment: [e a0]
     X:    36.8738      Y:     9.2271      Z:    -6.5530

  Electronic Dipole Moment: [e a0]
     X:   -37.0273      Y:    -9.7253      Z:     5.9651

  Dipole Moment: [e a0]
     X:    -0.1534      Y:    -0.4982      Z:    -0.5880     Total:     0.7858

  Dipole Moment: [D]
     X:    -0.3900      Y:    -1.2662      Z:    -1.4945     Total:     1.9972


*** tstop() called on node62.bme.utexas.edu at Sat Apr 11 16:15:10 2020
Module time:
	user time   =      54.63 seconds =       0.91 minutes
	system time =       1.48 seconds =       0.02 minutes
	total time  =         10 seconds =       0.17 minutes
Total time:
	user time   =      98.44 seconds =       1.64 minutes
	system time =       3.57 seconds =       0.06 minutes
	total time  =         20 seconds =       0.33 minutes

*** tstart() called on node62.bme.utexas.edu
*** at Sat Apr 11 16:15:10 2020


  //>>>>>>>>>>>>>>>>>>>>>>>>>>>>>>>>>>>//
  //               DFMP2               //
  //<<<<<<<<<<<<<<<<<<<<<<<<<<<<<<<<<<<//

   => Loading Basis Set <=

    Name: (AUG-CC-PVQZ AUX)
    Role: RIFIT
    Keyword: DF_BASIS_MP2
    atoms 1              entry N          line   258 file /home/liuchw/anaconda3/envs/psi4env/share/psi4/basis/aug-cc-pvqz-ri.gbs 
    atoms 2-3, 5-7, 9-10 entry H          line    30 file /home/liuchw/anaconda3/envs/psi4env/share/psi4/basis/aug-cc-pvqz-ri.gbs 
    atoms 4              entry C          line   184 file /home/liuchw/anaconda3/envs/psi4env/share/psi4/basis/aug-cc-pvqz-ri.gbs 
    atoms 8              entry O          line   332 file /home/liuchw/anaconda3/envs/psi4env/share/psi4/basis/aug-cc-pvqz-ri.gbs 

	 --------------------------------------------------------
	                          DF-MP2                         
	      2nd-Order Density-Fitted Moller-Plesset Theory     
	              RMP2 Wavefunction,   6 Threads             
	                                                         
	        Rob Parrish, Justin Turney, Andy Simmonett,      
	           Ed Hohenstein, and C. David Sherrill          
	 --------------------------------------------------------

   => Auxiliary Basis Set <=

  Basis Set: (AUG-CC-PVQZ AUX)
    Blend: AUG-CC-PVQZ-RI
    Number of shells: 248
    Number of basis function: 1064
    Number of Cartesian functions: 1446
    Spherical Harmonics?: true
    Max angular momentum: 5

	 --------------------------------------------------------
	                 NBF =   562, NAUX =  1064
	 --------------------------------------------------------
	   CLASS    FOCC     OCC    AOCC    AVIR     VIR    FVIR
	   PAIRS       0       5       5     557     557       0
	 --------------------------------------------------------

	-----------------------------------------------------------
	 ==================> DF-MP2 Energies <==================== 
	-----------------------------------------------------------
	 Reference Energy          =     -76.0652330210415784 [Eh]
	 Singles Energy            =      -0.0000000000000000 [Eh]
	 Same-Spin Energy          =      -0.0728242082054362 [Eh]
	 Opposite-Spin Energy      =      -0.2447388405480901 [Eh]
	 Correlation Energy        =      -0.3175630487535263 [Eh]
	 Total Energy              =     -76.3827960697951056 [Eh]
	-----------------------------------------------------------
	 ================> DF-SCS-MP2 Energies <================== 
	-----------------------------------------------------------
	 SCS Same-Spin Scale       =       0.3333333333333333 [-]
	 SCS Opposite-Spin Scale   =       1.2000000000000000 [-]
	 SCS Same-Spin Energy      =      -0.0242747360684787 [Eh]
	 SCS Opposite-Spin Energy  =      -0.2936866086577081 [Eh]
	 SCS Correlation Energy    =      -0.3179613447261869 [Eh]
	 SCS Total Energy          =     -76.3831943657677641 [Eh]
	-----------------------------------------------------------


*** tstop() called on node62.bme.utexas.edu at Sat Apr 11 16:15:16 2020
Module time:
	user time   =      25.52 seconds =       0.43 minutes
	system time =       0.74 seconds =       0.01 minutes
	total time  =          6 seconds =       0.10 minutes
Total time:
	user time   =     123.96 seconds =       2.07 minutes
	system time =       4.31 seconds =       0.07 minutes
	total time  =         26 seconds =       0.43 minutes

  //>>>>>>>>>>>>>>>>>>>>>>>>>>>>>>>>>>>//
  //  CBS Results: mp2/aug-cc-pv[tq]z  //
  //<<<<<<<<<<<<<<<<<<<<<<<<<<<<<<<<<<<//


   ==> HF <==

   HI-zeta (4) Energy:               -76.065233021042


   ==> Helgaker 2-point correlated extrapolation for method: MP2 <==

   LO-zeta (3) Energy:               -76.344731023355
   HI-zeta (4) Energy:               -76.382796069795
   Alpha (exponent) Value:             3.000000000000
   Extrapolated Energy:              -76.410573265846

   @Extrapolated MP2/(T,Q):          -76.410573265846



   ==> Helgaker 2-point correlated extrapolation for method: HF <==

   LO-zeta (3) Energy:               -76.059911177113
   HI-zeta (4) Energy:               -76.065233021042
   Alpha (exponent) Value:             3.000000000000
   Extrapolated Energy:              -76.069116528773

   @Extrapolated HF/(T,Q):           -76.069116528773


   ==> Components <==

  ---------------------------------------------------------------------------------------------------------
                          Method / Basis                      Rqd      Energy [Eh]   Variable
  ---------------------------------------------------------------------------------------------------------
                              hf / aug-cc-pvtz                  *     -76.05991118   HF TOTAL ENERGY
                             mp2 / aug-cc-pvtz                  *     -76.34473102   MP2 TOTAL ENERGY
                              hf / aug-cc-pvqz                  *     -76.06523302   HF TOTAL ENERGY
                             mp2 / aug-cc-pvqz                  *     -76.38279607   MP2 TOTAL ENERGY
  ---------------------------------------------------------------------------------------------------------

   ==> Stages <==

  ---------------------------------------------------------------------------------------------------------
      Stage               Method / Basis                       Wt      Energy [Eh]   Scheme
  ---------------------------------------------------------------------------------------------------------
        scf                   hf / aug-cc-pvqz                  1     -76.06523302   xtpl_highest_1
       corl                  mp2 / aug-cc-pv[tq]z               1     -76.41057327   corl_xtpl_helgaker_2
       corl                   hf / aug-cc-pv[tq]z              -1     -76.06911653   corl_xtpl_helgaker_2
  ---------------------------------------------------------------------------------------------------------

   ==> CBS <==

  ---------------------------------------------------------------------------------------------------------
      Stage               Method / Basis                               Energy [Eh]   Scheme
  ---------------------------------------------------------------------------------------------------------
        scf                   hf / aug-cc-pvqz                        -76.06523302   xtpl_highest_1
       corl                  mp2 / aug-cc-pv[tq]z                      -0.34145674   corl_xtpl_helgaker_2
      total                  CBS                                      -76.40668976   
  ---------------------------------------------------------------------------------------------------------
   => Loading Basis Set <=

    Name: DEF2-SVP
    Role: ORBITAL
    Keyword: BASIS
    atoms 1              entry N          line   110 file /home/liuchw/anaconda3/envs/psi4env/share/psi4/basis/def2-svp.gbs 
    atoms 2-3, 5-7, 9-10 entry H          line    15 file /home/liuchw/anaconda3/envs/psi4env/share/psi4/basis/def2-svp.gbs 
    atoms 4              entry C          line    90 file /home/liuchw/anaconda3/envs/psi4env/share/psi4/basis/def2-svp.gbs 
    atoms 8              entry O          line   130 file /home/liuchw/anaconda3/envs/psi4env/share/psi4/basis/def2-svp.gbs 


       N-Body: Complex Energy (fragments = (2,), basis = (1, 2):   -76.40668975811433)

       N-Body: Computing complex (3/4) with fragments (1,) in the basis of fragments (1, 2).


Scratch directory: /scratch//

  //>>>>>>>>>>>>>>>>>>>>>>>>>>>>>>>>>>>//
  //   CBS Setup: mp2/aug-cc-pv[tq]z   //
  //<<<<<<<<<<<<<<<<<<<<<<<<<<<<<<<<<<<//

    Naive listing of computations required.
[...]
     111A      0.908157   112A      0.915155   113A      0.922674  
     114A      0.935629   115A      0.945202   116A      0.950694  
     117A      0.951921   118A      0.985728   119A      0.990524  
     120A      0.991302   121A      0.998597   122A      1.023753  
     123A      1.036575   124A      1.047438   125A      1.063857  
     126A      1.077604   127A      1.086848   128A      1.092125  
     129A      1.109807   130A      1.145020   131A      1.154728  
     132A      1.170875   133A      1.189870   134A      1.198600  
     135A      1.206910   136A      1.212150   137A      1.218898  
     138A      1.227593   139A      1.246571   140A      1.260928  
     141A      1.272266   142A      1.292266   143A      1.331491  
     144A      1.342986   145A      1.362973   146A      1.365447  
     147A      1.399810   148A      1.421522   149A      1.436314  
     150A      1.448071   151A      1.458813   152A      1.471040  
     153A      1.500126   154A      1.514368   155A      1.521075  
     156A      1.528683   157A      1.534640   158A      1.555131  
     159A      1.561448   160A      1.571690   161A      1.574572  
     162A      1.594680   163A      1.596882   164A      1.609771  
     165A      1.632100   166A      1.642601   167A      1.654798  
     168A      1.664482   169A      1.677171   170A      1.680521  
     171A      1.698467   172A      1.703339   173A      1.725163  
     174A      1.736694   175A      1.744559   176A      1.756212  
     177A      1.763320   178A      1.800492   179A      1.811535  
     180A      1.817473   181A      1.840754   182A      1.847598  
     183A      1.856332   184A      1.857882   185A      1.866084  
     186A      1.883818   187A      1.892888   188A      1.902857  
     189A      1.912768   190A      1.915953   191A      1.921866  
     192A      1.931484   193A      1.952721   194A      1.973237  
     195A      1.997898   196A      2.003768   197A      2.016198  
     198A      2.030188   199A      2.042506   200A      2.053648  
     201A      2.063338   202A      2.071569   203A      2.082015  
     204A      2.106480   205A      2.112792   206A      2.120448  
     207A      2.124622   208A      2.139485   209A      2.141488  
     210A      2.153451   211A      2.164936   212A      2.166851  
     213A      2.185544   214A      2.197025   215A      2.208707  
     216A      2.216450   217A      2.226499   218A      2.233377  
     219A      2.261144   220A      2.272792   221A      2.280682  
     222A      2.281971   223A      2.301926   224A      2.308799  
     225A      2.328754   226A      2.338327   227A      2.352577  
     228A      2.364150   229A      2.384306   230A      2.414964  
     231A      2.424613   232A      2.444423   233A      2.459503  
     234A      2.469900   235A      2.523500   236A      2.525467  
     237A      2.581594   238A      2.586858   239A      2.597836  
     240A      2.605945   241A      2.632478   242A      2.653284  
     243A      2.654876   244A      2.674935   245A      2.720860  
     246A      2.748949   247A      2.770575   248A      2.798079  
     249A      2.803452   250A      2.823517   251A      2.832545  
     252A      2.848314   253A      2.860130   254A      2.879757  
     255A      2.883595   256A      2.903042   257A      2.922597  
     258A      2.949677   259A      2.958890   260A      2.995377  
     261A      3.008259   262A      3.017697   263A      3.036516  
     264A      3.059173   265A      3.087912   266A      3.105249  
     267A      3.123554   268A      3.132366   269A      3.140217  
     270A      3.162753   271A      3.181206   272A      3.193442  
     273A      3.210937   274A      3.218695   275A      3.225730  
     276A      3.274719   277A      3.280401   278A      3.319485  
     279A      3.326659   280A      3.348766   281A      3.363750  
     282A      3.409072   283A      3.430100   284A      3.461575  
     285A      3.484092   286A      3.510337   287A      3.527282  
     288A      3.535745   289A      3.579937   290A      3.582632  
     291A      3.624772   292A      3.632877   293A      3.660087  
     294A      3.682663   295A      3.727919   296A      3.736400  
     297A      3.752442   298A      3.766337   299A      3.780833  
     300A      3.814663   301A      3.834670   302A      3.862749  
     303A      3.877333   304A      3.885469   305A      3.907195  
     306A      3.959365   307A      3.981813   308A      3.992237  
     309A      4.020048   310A      4.023902   311A      4.075377  
     312A      4.099148   313A      4.125052   314A      4.140536  
     315A      4.148089   316A      4.154253   317A      4.179714  
     318A      4.199263   319A      4.210224   320A      4.219466  
     321A      4.235000   322A      4.240500   323A      4.274496  
     324A      4.308048   325A      4.316531   326A      4.342950  
     327A      4.361165   328A      4.370605   329A      4.405242  
     330A      4.427105   331A      4.465778   332A      4.467524  
     333A      4.507405   334A      4.512573   335A      4.520601  
     336A      4.550454   337A      4.611035   338A      4.639822  
     339A      4.651194   340A      4.654158   341A      4.690287  
     342A      4.749342   343A      4.765832   344A      4.784574  
     345A      4.845430   346A      4.863030   347A      4.869533  
     348A      4.891210   349A      4.893039   350A      4.919863  
     351A      4.970821   352A      5.038304   353A      5.068574  
     354A      5.093181   355A      5.105159   356A      5.119678  
     357A      5.144503   358A      5.181233   359A      5.237953  
     360A      5.270836   361A      5.326464   362A      5.344849  
     363A      5.397531   364A      5.433899   365A      5.447469  
     366A      5.470596   367A      5.603289   368A      5.609813  
     369A      5.693400   370A      5.703093   371A      5.760502  
     372A      6.003920   373A      6.071298   374A      6.220074  
     375A      6.245161   376A      6.260047   377A      6.313529  
     378A      6.461840   379A      6.508391   380A      6.546712  
     381A      6.586012   382A      6.756726   383A      6.762474  
     384A      6.826072   385A      6.865277   386A      6.889843  
     387A      6.901661   388A      6.921535   389A      6.927365  
     390A      6.971890   391A      6.976820   392A      6.997388  
     393A      7.001087   394A      7.014125   395A      7.023944  
     396A      7.043873   397A      7.090685   398A      7.114025  
     399A      7.171134   400A      7.172595   401A      7.226429  
     402A      7.255227   403A      7.331340   404A      7.385306  
     405A      7.392356   406A      7.455093   407A      7.519362  
     408A      7.549644   409A      7.565405   410A      7.650029  
     411A      7.711234   412A      7.724350   413A      7.745575  
     414A      7.758526   415A      7.788165   416A      7.797175  
     417A      7.819375   418A      7.845382   419A      7.868151  
     420A      7.876803   421A      7.887296   422A      7.893988  
     423A      7.957565   424A      7.981001   425A      8.004472  
     426A      8.028088   427A      8.038662   428A      8.089650  
     429A      8.124228   430A      8.149304   431A      8.156450  
     432A      8.160159   433A      8.206224   434A      8.252767  
     435A      8.275405   436A      8.319584   437A      8.388646  
     438A      8.431204   439A      8.510434   440A      8.530878  
     441A      8.549860   442A      8.624454   443A      8.647997  
     444A      8.679883   445A      8.690833   446A      8.708637  
     447A      8.710828   448A      8.753361   449A      8.775733  
     450A      8.787830   451A      8.815259   452A      8.826713  
     453A      8.837191   454A      8.880585   455A      8.917605  
     456A      8.970901   457A      8.983377   458A      9.008447  
     459A      9.046742   460A      9.052129   461A      9.092525  
     462A      9.111129   463A      9.157244   464A      9.162020  
     465A      9.202629   466A      9.209450   467A      9.270111  
     468A      9.310385   469A      9.376871   470A      9.381443  
     471A      9.386113   472A      9.417271   473A      9.421622  
     474A      9.451131   475A      9.502776   476A      9.534149  
     477A      9.577488   478A      9.614756   479A      9.672971  
     480A      9.699599   481A      9.714973   482A      9.761638  
     483A      9.811158   484A      9.864056   485A      9.882274  
     486A      9.893134   487A      9.928516   488A      9.994666  
     489A     10.008354   490A     10.054692   491A     10.059961  
     492A     10.089090   493A     10.097323   494A     10.122592  
     495A     10.161160   496A     10.169693   497A     10.218381  
     498A     10.230855   499A     10.262212   500A     10.290667  
     501A     10.408712   502A     10.433156   503A     10.471482  
     504A     10.521897   505A     10.540498   506A     10.605683  
     507A     10.615767   508A     10.672788   509A     10.712460  
     510A     10.737337   511A     10.800162   512A     10.936146  
     513A     10.943933   514A     10.991848   515A     11.011912  
     516A     11.097542   517A     11.120504   518A     11.175472  
     519A     11.233116   520A     11.242455   521A     11.317944  
     522A     11.383346   523A     11.395715   524A     11.477650  
     525A     11.487229   526A     11.520732   527A     11.544246  
     528A     11.552157   529A     11.597043   530A     11.835847  
     531A     11.929667   532A     11.976183   533A     12.093279  
     534A     12.225156   535A     12.339357   536A     12.357846  
     537A     12.383480   538A     12.416887   539A     12.622859  
     540A     12.673301   541A     12.830707   542A     12.889854  
     543A     12.892087   544A     12.993836   545A     13.243565  
     546A     13.297122   547A     13.366108   548A     13.388383  
     549A     13.732086   550A     14.012282   551A     14.241873  
     552A     14.534041   553A     14.835235   554A     14.948469  
     555A     15.134424   556A     15.257180   557A     15.288951  
     558A     17.018174   559A     17.410033   560A     29.214281  
     561A     36.550186   562A     45.721681  

    Final Occupation by Irrep:
              A 
    DOCC [    14 ]

  @DF-RHF Final Energy:  -171.33433450331333

   => Energetics <=

    Nuclear Repulsion Energy =             79.7666702779985002
    One-Electron Energy =                -391.6596976449648650
    Two-Electron Energy =                 140.5586928636530217
    Total Energy =                       -171.3343345033133289

Computation Completed


Properties will be evaluated at   0.000000,   0.000000,   0.000000 [a0]

Properties computed using the SCF density matrix

  Nuclear Dipole Moment: [e a0]
     X:    -2.8788      Y:    -0.6952      Z:     0.3566

  Electronic Dipole Moment: [e a0]
     X:     1.9677      Y:     0.0172      Z:    -0.7814

  Dipole Moment: [e a0]
     X:    -0.9111      Y:    -0.6780      Z:    -0.4248     Total:     1.2125

  Dipole Moment: [D]
     X:    -2.3157      Y:    -1.7232      Z:    -1.0797     Total:     3.0818


*** tstop() called on node62.bme.utexas.edu at Sat Apr 11 16:16:08 2020
Module time:
	user time   =      61.79 seconds =       1.03 minutes
	system time =       1.80 seconds =       0.03 minutes
	total time  =         11 seconds =       0.18 minutes
Total time:
	user time   =     377.95 seconds =       6.30 minutes
	system time =      13.33 seconds =       0.22 minutes
	total time  =         78 seconds =       1.30 minutes

*** tstart() called on node62.bme.utexas.edu
*** at Sat Apr 11 16:16:08 2020


  //>>>>>>>>>>>>>>>>>>>>>>>>>>>>>>>>>>>//
  //               DFMP2               //
  //<<<<<<<<<<<<<<<<<<<<<<<<<<<<<<<<<<<//

   => Loading Basis Set <=

    Name: (AUG-CC-PVQZ AUX)
    Role: RIFIT
    Keyword: DF_BASIS_MP2
    atoms 1              entry N          line   258 file /home/liuchw/anaconda3/envs/psi4env/share/psi4/basis/aug-cc-pvqz-ri.gbs 
    atoms 2-3, 5-7, 9-10 entry H          line    30 file /home/liuchw/anaconda3/envs/psi4env/share/psi4/basis/aug-cc-pvqz-ri.gbs 
    atoms 4              entry C          line   184 file /home/liuchw/anaconda3/envs/psi4env/share/psi4/basis/aug-cc-pvqz-ri.gbs 
    atoms 8              entry O          line   332 file /home/liuchw/anaconda3/envs/psi4env/share/psi4/basis/aug-cc-pvqz-ri.gbs 

	 --------------------------------------------------------
	                          DF-MP2                         
	      2nd-Order Density-Fitted Moller-Plesset Theory     
	              RMP2 Wavefunction,   6 Threads             
	                                                         
	        Rob Parrish, Justin Turney, Andy Simmonett,      
	           Ed Hohenstein, and C. David Sherrill          
	 --------------------------------------------------------

   => Auxiliary Basis Set <=

  Basis Set: (AUG-CC-PVQZ AUX)
    Blend: AUG-CC-PVQZ-RI
    Number of shells: 248
    Number of basis function: 1064
    Number of Cartesian functions: 1446
    Spherical Harmonics?: true
    Max angular momentum: 5

	 --------------------------------------------------------
	                 NBF =   562, NAUX =  1064
	 --------------------------------------------------------
	   CLASS    FOCC     OCC    AOCC    AVIR     VIR    FVIR
	   PAIRS       0      14      14     548     548       0
	 --------------------------------------------------------

	-----------------------------------------------------------
	 ==================> DF-MP2 Energies <==================== 
	-----------------------------------------------------------
	 Reference Energy          =    -171.3343345033133289 [Eh]
	 Singles Energy            =      -0.0000000000000000 [Eh]
	 Same-Spin Energy          =      -0.1757069962492743 [Eh]
	 Opposite-Spin Energy      =      -0.6388572947517939 [Eh]
	 Correlation Energy        =      -0.8145642910010682 [Eh]
	 Total Energy              =    -172.1488987943143911 [Eh]
	-----------------------------------------------------------
	 ================> DF-SCS-MP2 Energies <================== 
	-----------------------------------------------------------
	 SCS Same-Spin Scale       =       0.3333333333333333 [-]
	 SCS Opposite-Spin Scale   =       1.2000000000000000 [-]
	 SCS Same-Spin Energy      =      -0.0585689987497581 [Eh]
	 SCS Opposite-Spin Energy  =      -0.7666287537021527 [Eh]
	 SCS Correlation Energy    =      -0.8251977524519107 [Eh]
	 SCS Total Energy          =    -172.1595322557652423 [Eh]
	-----------------------------------------------------------


*** tstop() called on node62.bme.utexas.edu at Sat Apr 11 16:16:15 2020
Module time:
	user time   =      29.63 seconds =       0.49 minutes
	system time =       0.93 seconds =       0.02 minutes
	total time  =          7 seconds =       0.12 minutes
Total time:
	user time   =     407.59 seconds =       6.79 minutes
	system time =      14.26 seconds =       0.24 minutes
	total time  =         85 seconds =       1.42 minutes

  //>>>>>>>>>>>>>>>>>>>>>>>>>>>>>>>>>>>//
  //  CBS Results: mp2/aug-cc-pv[tq]z  //
  //<<<<<<<<<<<<<<<<<<<<<<<<<<<<<<<<<<<//


   ==> HF <==

   HI-zeta (4) Energy:               -171.334334503313


   ==> Helgaker 2-point correlated extrapolation for method: MP2 <==

   LO-zeta (3) Energy:               -172.058515291027
   HI-zeta (4) Energy:               -172.148898794314
   Alpha (exponent) Value:             3.000000000000
   Extrapolated Energy:              -172.214854323740

   @Extrapolated MP2/(T,Q):          -172.214854323740



   ==> Helgaker 2-point correlated extrapolation for method: HF <==

   LO-zeta (3) Energy:               -171.323035475458
   HI-zeta (4) Energy:               -171.334334503313
   Alpha (exponent) Value:             3.000000000000
   Extrapolated Energy:              -171.342579739856

   @Extrapolated HF/(T,Q):           -171.342579739856


   ==> Components <==

  ---------------------------------------------------------------------------------------------------------
                          Method / Basis                      Rqd      Energy [Eh]   Variable
  ---------------------------------------------------------------------------------------------------------
                              hf / aug-cc-pvtz                  *    -171.32303548   HF TOTAL ENERGY
                             mp2 / aug-cc-pvtz                  *    -172.05851529   MP2 TOTAL ENERGY
                              hf / aug-cc-pvqz                  *    -171.33433450   HF TOTAL ENERGY
                             mp2 / aug-cc-pvqz                  *    -172.14889879   MP2 TOTAL ENERGY
  ---------------------------------------------------------------------------------------------------------

   ==> Stages <==

  ---------------------------------------------------------------------------------------------------------
      Stage               Method / Basis                       Wt      Energy [Eh]   Scheme
  ---------------------------------------------------------------------------------------------------------
        scf                   hf / aug-cc-pvqz                  1    -171.33433450   xtpl_highest_1
       corl                  mp2 / aug-cc-pv[tq]z               1    -172.21485432   corl_xtpl_helgaker_2
       corl                   hf / aug-cc-pv[tq]z              -1    -171.34257974   corl_xtpl_helgaker_2
  ---------------------------------------------------------------------------------------------------------

   ==> CBS <==

  ---------------------------------------------------------------------------------------------------------
      Stage               Method / Basis                               Energy [Eh]   Scheme
  ---------------------------------------------------------------------------------------------------------
        scf                   hf / aug-cc-pvqz                       -171.33433450   xtpl_highest_1
       corl                  mp2 / aug-cc-pv[tq]z                      -0.87227458   corl_xtpl_helgaker_2
      total                  CBS                                     -172.20660909   
  ---------------------------------------------------------------------------------------------------------
   => Loading Basis Set <=

    Name: DEF2-SVP
    Role: ORBITAL
    Keyword: BASIS
    atoms 1              entry N          line   110 file /home/liuchw/anaconda3/envs/psi4env/share/psi4/basis/def2-svp.gbs 
    atoms 2-3, 5-7, 9-10 entry H          line    15 file /home/liuchw/anaconda3/envs/psi4env/share/psi4/basis/def2-svp.gbs 
    atoms 4              entry C          line    90 file /home/liuchw/anaconda3/envs/psi4env/share/psi4/basis/def2-svp.gbs 
    atoms 8              entry O          line   130 file /home/liuchw/anaconda3/envs/psi4env/share/psi4/basis/def2-svp.gbs 


       N-Body: Complex Energy (fragments = (1, 2), basis = (1, 2):  -172.20660908719728)

   ==> N-Body: Counterpoise Corrected (CP) energies <==

   n-Body     Total Energy [Eh]       I.E. [kcal/mol]      Delta [kcal/mol]
        1     -172.195886179514        0.000000000000        0.000000000000
        2     -172.206766639496       -6.827591718167       -6.827591718167

   => Loading Basis Set <=

    Name: DEF2-SVP
    Role: ORBITAL
    Keyword: BASIS
    atoms 1              entry N          line   110 file /home/liuchw/anaconda3/envs/psi4env/share/psi4/basis/def2-svp.gbs 
    atoms 2-3, 5-7, 9-10 entry H          line    15 file /home/liuchw/anaconda3/envs/psi4env/share/psi4/basis/def2-svp.gbs 
    atoms 4              entry C          line    90 file /home/liuchw/anaconda3/envs/psi4env/share/psi4/basis/def2-svp.gbs 
    atoms 8              entry O          line   130 file /home/liuchw/anaconda3/envs/psi4env/share/psi4/basis/def2-svp.gbs 


    Psi4 stopped on: Saturday, 11 April 2020 04:16PM
    Psi4 wall time for execution: 0:01:25.65

*** Psi4 exiting successfully. Buy a developer a beer!
