
    -----------------------------------------------------------------------
          Psi4: An Open-Source Ab Initio Electronic Structure Package
                               Psi4 1.4a2.dev224 

                         Git: Rev {master} e453b16 


    R. M. Parrish, L. A. Burns, D. G. A. Smith, A. C. Simmonett,
    A. E. DePrince III, E. G. Hohenstein, U. Bozkaya, A. Yu. Sokolov,
    R. Di Remigio, R. M. Richard, J. F. Gonthier, A. M. James,
    H. R. McAlexander, A. Kumar, M. Saitow, X. Wang, B. P. Pritchard,
    P. Verma, H. F. Schaefer III, K. Patkowski, R. A. King, E. F. Valeev,
    F. A. Evangelista, J. M. Turney, T. D. Crawford, and C. D. Sherrill,
    J. Chem. Theory Comput. 13(7) pp 3185--3197 (2017).
    (doi: 10.1021/acs.jctc.7b00174)


                         Additional Contributions by
    P. Kraus, H. Kruse, M. H. Lechner, M. C. Schieber, R. A. Shaw,
    A. Alenaizan, R. Galvelis, Z. L. Glick, S. Lehtola, and J. P. Misiewicz

    -----------------------------------------------------------------------


    Psi4 started on: Saturday, 11 April 2020 07:39PM

    Process ID: 48087
    Host:       g2-node38.bme.utexas.edu
    PSIDATADIR: /home/liuchw/anaconda3/envs/psi4env/share/psi4
    Memory:     500.0 MiB
    Threads:    8
    
  ==> Input File <==

--------------------------------------------------------------------------
#Generated by lconvert.py for cbs job

memory 40 GB

molecule  {
0 1
  N       -0.7299990     0.0227680     0.0009150
  H        0.2984230     0.0740040     0.0016230
  C       -1.2968250    -1.2404270     0.0015020
  O       -0.5940990    -2.2535180     0.0026340
  C       -2.7436220    -1.2623320     0.0004790
  H       -3.2495900    -2.2118350     0.0008330
  C       -3.4220200    -0.0959090    -0.0009230
  H       -4.5008970    -0.0492160    -0.0017450
  N       -2.7748370     1.1054090    -0.0014180
  H       -3.2838380     1.9738770    -0.0024860
  C       -1.3914790     1.2370200    -0.0005250
  O       -0.8398440     2.3170350    -0.0010010
--
0 1
  N        4.1527280    -1.0861680     0.0004990
  H        4.5999720    -0.1795940     0.0008860
  C        5.0087760    -2.2007850    -0.0010010
  O        6.2182280    -2.0490810    -0.0017500
  C        4.2945570    -3.4629590    -0.0015050
  H        4.8611420    -4.3779900    -0.0026440
  C        2.9443880    -3.4667770    -0.0005450
  H        2.3674250    -4.3797410    -0.0008640
  N        2.2063970    -2.3158960     0.0009060
  H        1.1800610    -2.3373390     0.0015830
  C        2.7791680    -1.0712310     0.0014560
  O        2.1288470    -0.0300130     0.0026930
units angstrom
no_reorient
symmetry c1
}

set {
scf_type DF
mp2_type DF
e_convergence 7
reference rhf
}

energy('mp2/aug-cc-pv[tq]z', bsse_type='cp')
--------------------------------------------------------------------------

  Memory set to  37.253 GiB by Python driver.

Scratch directory: /scratch//


   ===> N-Body Interaction Abacus <===
        BSSE Treatment:                     cp
        Number of 1-body computations:     4
        Number of 2-body computations:     1

   ==> N-Body: Now computing 1-body complexes <==


       N-Body: Computing complex (1/4) with fragments (2,) in the basis of fragments (2,).


Scratch directory: /scratch//

  //>>>>>>>>>>>>>>>>>>>>>>>>>>>>>>>>>>>//
  //   CBS Setup: mp2/aug-cc-pv[tq]z   //
  //<<<<<<<<<<<<<<<<<<<<<<<<<<<<<<<<<<<//

    Naive listing of computations required.
             hf / aug-cc-pvqz              for  HF TOTAL ENERGY
            mp2 / aug-cc-pvtz              for  MP2 TOTAL ENERGY
            mp2 / aug-cc-pvqz              for  MP2 TOTAL ENERGY
             hf / aug-cc-pvtz              for  HF TOTAL ENERGY
             hf / aug-cc-pvqz              for  HF TOTAL ENERGY

    Enlightened listing of computations required.
            mp2 / aug-cc-pvtz              for  MP2 TOTAL ENERGY
            mp2 / aug-cc-pvqz              for  MP2 TOTAL ENERGY

    Full listing of computations to be obtained (required and bonus).
             hf / aug-cc-pvtz              for  HF TOTAL ENERGY
            mp2 / aug-cc-pvtz              for  MP2 TOTAL ENERGY
             hf / aug-cc-pvqz              for  HF TOTAL ENERGY
            mp2 / aug-cc-pvqz              for  MP2 TOTAL ENERGY

  //>>>>>>>>>>>>>>>>>>>>>>>>>>>>>>>>>>>>//
  // CBS Computation: MP2 / AUG-CC-PVTZ //
  //<<<<<<<<<<<<<<<<<<<<<<<<<<<<<<<<<<<<//


Scratch directory: /scratch//

*** tstart() called on g2-node38.bme.utexas.edu
*** at Sat Apr 11 19:39:47 2020

   => Loading Basis Set <=

    Name: AUG-CC-PVTZ
    Role: ORBITAL
    Keyword: BASIS
    atoms 1, 9        entry N          line   285 file /home/liuchw/anaconda3/envs/psi4env/share/psi4/basis/aug-cc-pvtz.gbs 
    atoms 2, 6, 8, 10 entry H          line    40 file /home/liuchw/anaconda3/envs/psi4env/share/psi4/basis/aug-cc-pvtz.gbs 
    atoms 3, 5, 7, 11 entry C          line   239 file /home/liuchw/anaconda3/envs/psi4env/share/psi4/basis/aug-cc-pvtz.gbs 
    atoms 4, 12       entry O          line   331 file /home/liuchw/anaconda3/envs/psi4env/share/psi4/basis/aug-cc-pvtz.gbs 


         ---------------------------------------------------------
                                   SCF
               by Justin Turney, Rob Parrish, Andy Simmonett
                          and Daniel G. A. Smith
                              RHF Reference
                        8 Threads,  38146 MiB Core
         ---------------------------------------------------------

  ==> Geometry <==

    Molecular point group: c1
    Full point group: C1

    Geometry (in Angstrom), charge = 0, multiplicity = 1:

       Center              X                  Y                   Z               Mass       
    ------------   -----------------  -----------------  -----------------  -----------------
         N            3.139985481218    -0.129173767637     0.000328266344    14.003074004430
         H            3.587229481218     0.777400232363     0.000715266344     1.007825032230
         C            3.996033481218    -1.243790767637    -0.001171733656    12.000000000000
         O            5.205485481218    -1.092086767637    -0.001920733656    15.994914619570
         C            3.281814481218    -2.505964767637    -0.001675733656    12.000000000000
         H            3.848399481218    -3.420995767637    -0.002814733656     1.007825032230
         C            1.931645481218    -2.509782767637    -0.000715733656    12.000000000000
         H            1.354682481218    -3.422746767637    -0.001034733656     1.007825032230
         N            1.193654481218    -1.358901767637     0.000735266344    14.003074004430
         H            0.167318481218    -1.380344767637     0.001412266344     1.007825032230
         C            1.766425481218    -0.114236767637     0.001285266344    12.000000000000
         O            1.116104481218     0.926981232363     0.002522266344    15.994914619570

  Running in c1 symmetry.

  Rotational constants: A =      0.12929  B =      0.01443  C =      0.01298 [cm^-1]
  Rotational constants: A =   3876.10661  B =    432.48851  C =    389.07624 [MHz]
  Nuclear repulsion =  357.228249261347059

  Charge       = 0
  Multiplicity = 1
  Electrons    = 58
  Nalpha       = 29
  Nbeta        = 29

  ==> Algorithm <==

  SCF Algorithm Type is DF.
  DIIS enabled.
  MOM disabled.
  Fractional occupation disabled.
  Guess Type is SAD.
  Energy threshold   = 1.00e-07
  Density threshold  = 1.00e-08
  Integral threshold = 0.00e+00

  ==> Primary Basis <==

  Basis Set: AUG-CC-PVTZ
    Blend: AUG-CC-PVTZ
    Number of shells: 148
    Number of basis function: 460
    Number of Cartesian functions: 540
    Spherical Harmonics?: true
    Max angular momentum: 3

   => Loading Basis Set <=

    Name: (AUG-CC-PVTZ AUX)
    Role: JKFIT
    Keyword: DF_BASIS_SCF
    atoms 1, 9        entry N          line   224 file /home/liuchw/anaconda3/envs/psi4env/share/psi4/basis/aug-cc-pvtz-jkfit.gbs 
    atoms 2, 6, 8, 10 entry H          line    70 file /home/liuchw/anaconda3/envs/psi4env/share/psi4/basis/aug-cc-pvtz-jkfit.gbs 
    atoms 3, 5, 7, 11 entry C          line   162 file /home/liuchw/anaconda3/envs/psi4env/share/psi4/basis/aug-cc-pvtz-jkfit.gbs 
    atoms 4, 12       entry O          line   286 file /home/liuchw/anaconda3/envs/psi4env/share/psi4/basis/aug-cc-pvtz-jkfit.gbs 

  ==> Pre-Iterations <==

   -------------------------------------------------------
    Irrep   Nso     Nmo     Nalpha   Nbeta   Ndocc  Nsocc
   -------------------------------------------------------
     A        460     460       0       0       0       0
   -------------------------------------------------------
    Total     460     460      29      29      29       0
   -------------------------------------------------------

  ==> Integral Setup <==

  DFHelper Memory: AOs need 1.625 GiB; user supplied 27.940 GiB. Using in-core AOs.

  ==> MemDFJK: Density-Fitted J/K Matrices <==

    J tasked:                   Yes
    K tasked:                   Yes
    wK tasked:                   No
    OpenMP threads:               8
    Memory [MiB]:             28610
    Algorithm:                 Core
    Schwarz Cutoff:           1E-12
    Mask sparsity (%):       2.4868
    Fitting Condition:        1E-10

   => Auxiliary Basis Set <=

  Basis Set: (AUG-CC-PVTZ AUX)
    Blend: AUG-CC-PVTZ-JKFIT
    Number of shells: 296
    Number of basis function: 1016
    Number of Cartesian functions: 1268
    Spherical Harmonics?: true
    Max angular momentum: 4

  Minimum eigenvalue in the overlap matrix is 4.2013341646E-06.
  Using Symmetric Orthogonalization.

  SCF Guess: Superposition of Atomic Densities via on-the-fly atomic UHF.

  ==> Iterations <==

                           Total Energy        Delta E     RMS |[F,P]|

   @DF-RHF iter SAD:  -411.97121413194481   -4.11971e+02   0.00000e+00 
   @DF-RHF iter   1:  -412.37583637030906   -4.04622e-01   1.62151e-03 DIIS
   @DF-RHF iter   2:  -412.53876294782674   -1.62927e-01   1.07583e-03 DIIS
   @DF-RHF iter   3:  -412.61764746049295   -7.88845e-02   1.94024e-04 DIIS
   @DF-RHF iter   4:  -412.62188785524455   -4.24039e-03   7.96060e-05 DIIS
   @DF-RHF iter   5:  -412.62277013878816   -8.82284e-04   1.62231e-05 DIIS
   @DF-RHF iter   6:  -412.62287437351296   -1.04235e-04   8.11651e-06 DIIS
   @DF-RHF iter   7:  -412.62289270304836   -1.83295e-05   3.30598e-06 DIIS
   @DF-RHF iter   8:  -412.62289596788753   -3.26484e-06   1.09521e-06 DIIS
   @DF-RHF iter   9:  -412.62289621405665   -2.46169e-07   4.66524e-07 DIIS
   @DF-RHF iter  10:  -412.62289627331626   -5.92596e-08   1.56739e-07 DIIS
   @DF-RHF iter  11:  -412.62289628096886   -7.65260e-09   5.15620e-08 DIIS
   @DF-RHF iter  12:  -412.62289628156810   -5.99243e-10   1.69028e-08 DIIS
   @DF-RHF iter  13:  -412.62289628163978   -7.16796e-11   5.75673e-09 DIIS
  Energy and wave function converged.


  ==> Post-Iterations <==

    Orbital Energies [Eh]
    ---------------------

    Doubly Occupied:                                                      

       1A    -20.543217     2A    -20.542848     3A    -15.649972  
       4A    -15.628054     5A    -11.417659     6A    -11.381934  
       7A    -11.343115     8A    -11.258063     9A     -1.432878  
      10A     -1.397513    11A     -1.313979    12A     -1.247109  
      13A     -1.090460    14A     -0.937732    15A     -0.901527  
      16A     -0.807759    17A     -0.767854    18A     -0.715673  
      19A     -0.677498    20A     -0.670744    21A     -0.649793  
      22A     -0.615724    23A     -0.602581    24A     -0.571661  
      25A     -0.524817    26A     -0.481656    27A     -0.449402  
      28A     -0.435904    29A     -0.371047  

    Virtual:                                                              

      30A      0.013595    31A      0.033255    32A      0.041153  
      33A      0.050792    34A      0.056804    35A      0.076615  
      36A      0.079799    37A      0.086705    38A      0.092683  
      39A      0.099638    40A      0.106525    41A      0.106997  
      42A      0.115470    43A      0.121927    44A      0.124187  
      45A      0.134445    46A      0.138367    47A      0.145132  
      48A      0.156411    49A      0.159386    50A      0.163527  
      51A      0.164161    52A      0.176163    53A      0.200747  
      54A      0.210240    55A      0.214441    56A      0.218522  
      57A      0.228817    58A      0.240873    59A      0.248566  
      60A      0.262927    61A      0.263951    62A      0.267910  
      63A      0.269746    64A      0.271169    65A      0.276730  
      66A      0.285686    67A      0.292649    68A      0.296171  
      69A      0.310197    70A      0.313590    71A      0.329169  
      72A      0.330620    73A      0.344940    74A      0.350188  
      75A      0.353705    76A      0.358169    77A      0.365320  
      78A      0.374053    79A      0.375627    80A      0.390940  
      81A      0.398017    82A      0.414703    83A      0.415874  
      84A      0.424340    85A      0.432677    86A      0.434662  
      87A      0.448912    88A      0.453554    89A      0.459381  
      90A      0.464157    91A      0.468679    92A      0.471185  
      93A      0.483288    94A      0.496023    95A      0.500984  
      96A      0.513356    97A      0.520913    98A      0.521908  
      99A      0.524788   100A      0.538490   101A      0.561910  
     102A      0.572577   103A      0.595887   104A      0.599594  
     105A      0.599623   106A      0.611846   107A      0.619765  
     108A      0.628580   109A      0.638610   110A      0.644845  
     111A      0.663553   112A      0.672200   113A      0.681407  
     114A      0.682275   115A      0.692997   116A      0.711120  
     117A      0.715041   118A      0.734561   119A      0.735084  
     120A      0.746745   121A      0.753164   122A      0.756126  
     123A      0.772713   124A      0.774798   125A      0.804039  
     126A      0.808460   127A      0.825761   128A      0.841534  
     129A      0.848221   130A      0.848579   131A      0.870356  
     132A      0.877659   133A      0.881266   134A      0.892509  
     135A      0.893639   136A      0.911246   137A      0.915349  
     138A      0.917926   139A      0.929749   140A      0.937727  
     141A      0.938534   142A      0.948237   143A      0.954420  
     144A      0.960062   145A      0.974777   146A      0.981102  
     147A      0.984714   148A      1.000315   149A      1.008791  
     150A      1.017452   151A      1.033191   152A      1.051414  
     153A      1.052633   154A      1.073432   155A      1.085405  
     156A      1.088589   157A      1.099178   158A      1.110873  
     159A      1.116560   160A      1.127626   161A      1.128763  
     162A      1.137870   163A      1.146533   164A      1.153257  
     165A      1.168301   166A      1.174883   167A      1.182989  
     168A      1.184052   169A      1.191271   170A      1.212497  
     171A      1.215303   172A      1.229367   173A      1.231361  
     174A      1.242069   175A      1.264607   176A      1.281058  
     177A      1.288536   178A      1.300182   179A      1.326003  
     180A      1.329763   181A      1.347815   182A      1.362710  
     183A      1.367672   184A      1.372950   185A      1.391958  
     186A      1.405239   187A      1.411504   188A      1.419419  
     189A      1.433573   190A      1.434427   191A      1.458711  
     192A      1.461900   193A      1.482079   194A      1.489964  
     195A      1.494769   196A      1.508534   197A      1.514685  
     198A      1.526588   199A      1.551697   200A      1.562104  
     201A      1.575561   202A      1.579137   203A      1.597959  
     204A      1.625058   205A      1.640956   206A      1.642446  
     207A      1.652927   208A      1.668790   209A      1.687961  
     210A      1.702245   211A      1.705003   212A      1.730625  
     213A      1.736240   214A      1.763983   215A      1.794089  
     216A      1.826118   217A      1.838058   218A      1.859724  
     219A      1.867606   220A      1.875259   221A      1.875597  
     222A      1.915926   223A      1.921369   224A      1.929754  
     225A      1.931215   226A      1.983429   227A      2.004568  
     228A      2.006292   229A      2.022908   230A      2.100457  
     231A      2.101788   232A      2.114596   233A      2.121230  
     234A      2.140921   235A      2.147555   236A      2.153649  
     237A      2.162976   238A      2.189700   239A      2.202627  
     240A      2.206909   241A      2.229518   242A      2.262083  
     243A      2.272387   244A      2.279870   245A      2.302779  
     246A      2.326961   247A      2.352517   248A      2.364933  
     249A      2.398857   250A      2.407619   251A      2.410535  
     252A      2.433692   253A      2.452849   254A      2.470075  
     255A      2.479771   256A      2.484525   257A      2.500364  
     258A      2.511606   259A      2.532604   260A      2.540241  
     261A      2.556703   262A      2.571371   263A      2.578560  
     264A      2.586259   265A      2.607712   266A      2.615145  
     267A      2.643585   268A      2.666031   269A      2.681526  
     270A      2.696797   271A      2.705926   272A      2.755045  
     273A      2.765651   274A      2.766989   275A      2.778751  
     276A      2.821325   277A      2.831726   278A      2.844127  
     279A      2.872177   280A      2.918078   281A      2.929859  
     282A      2.963806   283A      2.969509   284A      3.000055  
     285A      3.010665   286A      3.014731   287A      3.045801  
     288A      3.122027   289A      3.122526   290A      3.183141  
     291A      3.199924   292A      3.200551   293A      3.244077  
     294A      3.255457   295A      3.264545   296A      3.284136  
     297A      3.299967   298A      3.338990   299A      3.362101  
     300A      3.426715   301A      3.427845   302A      3.439077  
     303A      3.470037   304A      3.478472   305A      3.510273  
     306A      3.530826   307A      3.534966   308A      3.580989  
     309A      3.599657   310A      3.612759   311A      3.642103  
     312A      3.643469   313A      3.684227   314A      3.690071  
     315A      3.714619   316A      3.748917   317A      3.749889  
     318A      3.759881   319A      3.776206   320A      3.812081  
     321A      3.830251   322A      3.844488   323A      3.884755  
     324A      3.891965   325A      3.920692   326A      3.945755  
     327A      3.946252   328A      3.986049   329A      3.999899  
     330A      4.055241   331A      4.070733   332A      4.076832  
     333A      4.104823   334A      4.117703   335A      4.150632  
     336A      4.164702   337A      4.194579   338A      4.205888  
     339A      4.223552   340A      4.244025   341A      4.250402  
     342A      4.276279   343A      4.285072   344A      4.304794  
     345A      4.335072   346A      4.337747   347A      4.365914  
     348A      4.372053   349A      4.419437   350A      4.425035  
     351A      4.433113   352A      4.452934   353A      4.462083  
     354A      4.503191   355A      4.554778   356A      4.600911  
     357A      4.622279   358A      4.628778   359A      4.663505  
     360A      4.678973   361A      4.689040   362A      4.727314  
     363A      4.755037   364A      4.762600   365A      4.805200  
     366A      4.845699   367A      4.852187   368A      4.890636  
     369A      4.906365   370A      4.920141   371A      4.951437  
     372A      5.000759   373A      5.013809   374A      5.041012  
     375A      5.071781   376A      5.097757   377A      5.107384  
     378A      5.111631   379A      5.118106   380A      5.133915  
     381A      5.207448   382A      5.231090   383A      5.255541  
     384A      5.310565   385A      5.359534   386A      5.406260  
     387A      5.415470   388A      5.476667   389A      5.483464  
     390A      5.489801   391A      5.516959   392A      5.518450  
     393A      5.560809   394A      5.590544   395A      5.612264  
     396A      5.657915   397A      5.702753   398A      5.744041  
     399A      5.781018   400A      5.783555   401A      5.800682  
     402A      5.816230   403A      5.849998   404A      5.908961  
     405A      5.979979   406A      6.000757   407A      6.015296  
     408A      6.038377   409A      6.063387   410A      6.103409  
     411A      6.150669   412A      6.175093   413A      6.256323  
     414A      6.265350   415A      6.458306   416A      6.544195  
     417A      6.581638   418A      6.624649   419A      6.658464  
     420A      6.665958   421A      6.706453   422A      6.733775  
     423A      6.738194   424A      6.804906   425A      6.824257  
     426A      6.837096   427A      6.853305   428A      6.933876  
     429A      6.947186   430A      6.998881   431A      7.002203  
     432A      7.108196   433A      7.132124   434A      7.188226  
     435A      7.250232   436A      7.333556   437A      7.370016  
     438A      7.371527   439A      7.387680   440A      7.397188  
     441A      7.452227   442A      7.638479   443A      7.643390  
     444A      7.680816   445A      7.701508   446A      7.807346  
     447A      7.852569   448A      7.906084   449A      7.938254  
     450A      7.976140   451A      8.027785   452A      8.115363  
     453A     15.814403   454A     15.946358   455A     16.369001  
     456A     16.929723   457A     18.264141   458A     19.404024  
     459A     19.719759   460A     20.482452  

    Final Occupation by Irrep:
              A 
    DOCC [    29 ]

  @DF-RHF Final Energy:  -412.62289628163978

   => Energetics <=

    Nuclear Repulsion Energy =            357.2282492613470595
    One-Electron Energy =               -1270.8459465081828057
    Two-Electron Energy =                 500.9948009651959637
    Total Energy =                       -412.6228962816397825

Computation Completed


Properties will be evaluated at   0.000000,   0.000000,   0.000000 [a0]

Properties computed using the SCF density matrix

  Nuclear Dipole Moment: [e a0]
     X:   294.2707      Y:  -108.5208      Z:    -0.0059

  Electronic Dipole Moment: [e a0]
     X:  -295.5930      Y:   106.9683      Z:     0.0056

  Dipole Moment: [e a0]
     X:    -1.3223      Y:    -1.5525      Z:    -0.0003     Total:     2.0393

  Dipole Moment: [D]
     X:    -3.3610      Y:    -3.9460      Z:    -0.0007     Total:     5.1833


*** tstop() called on g2-node38.bme.utexas.edu at Sat Apr 11 19:40:06 2020
Module time:
	user time   =     121.43 seconds =       2.02 minutes
	system time =       4.37 seconds =       0.07 minutes
	total time  =         19 seconds =       0.32 minutes
Total time:
	user time   =     121.43 seconds =       2.02 minutes
	system time =       4.37 seconds =       0.07 minutes
	total time  =         19 seconds =       0.32 minutes

*** tstart() called on g2-node38.bme.utexas.edu
*** at Sat Apr 11 19:40:06 2020


  //>>>>>>>>>>>>>>>>>>>>>>>>>>>>>>>>>>>//
  //               DFMP2               //
  //<<<<<<<<<<<<<<<<<<<<<<<<<<<<<<<<<<<//

   => Loading Basis Set <=

    Name: (AUG-CC-PVTZ AUX)
    Role: RIFIT
    Keyword: DF_BASIS_MP2
    atoms 1, 9        entry N          line   206 file /home/liuchw/anaconda3/envs/psi4env/share/psi4/basis/aug-cc-pvtz-ri.gbs 
    atoms 2, 6, 8, 10 entry H          line    30 file /home/liuchw/anaconda3/envs/psi4env/share/psi4/basis/aug-cc-pvtz-ri.gbs 
    atoms 3, 5, 7, 11 entry C          line   148 file /home/liuchw/anaconda3/envs/psi4env/share/psi4/basis/aug-cc-pvtz-ri.gbs 
    atoms 4, 12       entry O          line   264 file /home/liuchw/anaconda3/envs/psi4env/share/psi4/basis/aug-cc-pvtz-ri.gbs 

	 --------------------------------------------------------
	                          DF-MP2                         
	      2nd-Order Density-Fitted Moller-Plesset Theory     
	              RMP2 Wavefunction,   8 Threads             
	                                                         
	        Rob Parrish, Justin Turney, Andy Simmonett,      
	           Ed Hohenstein, and C. David Sherrill          
	 --------------------------------------------------------

   => Auxiliary Basis Set <=

  Basis Set: (AUG-CC-PVTZ AUX)
    Blend: AUG-CC-PVTZ-RI
    Number of shells: 280
    Number of basis function: 1032
    Number of Cartesian functions: 1308
    Spherical Harmonics?: true
    Max angular momentum: 4

	 --------------------------------------------------------
	                 NBF =   460, NAUX =  1032
	 --------------------------------------------------------
	   CLASS    FOCC     OCC    AOCC    AVIR     VIR    FVIR
	   PAIRS       0      29      29     431     431       0
	 --------------------------------------------------------

	-----------------------------------------------------------
	 ==================> DF-MP2 Energies <==================== 
	-----------------------------------------------------------
	 Reference Energy          =    -412.6228962816397825 [Eh]
	 Singles Energy            =      -0.0000000000000000 [Eh]
	 Same-Spin Energy          =      -0.4144436080220838 [Eh]
	 Opposite-Spin Energy      =      -1.2269773747590542 [Eh]
	 Correlation Energy        =      -1.6414209827811379 [Eh]
	 Total Energy              =    -414.2643172644209244 [Eh]
	-----------------------------------------------------------
	 ================> DF-SCS-MP2 Energies <================== 
	-----------------------------------------------------------
	 SCS Same-Spin Scale       =       0.3333333333333333 [-]
	 SCS Opposite-Spin Scale   =       1.2000000000000000 [-]
	 SCS Same-Spin Energy      =      -0.1381478693406946 [Eh]
	 SCS Opposite-Spin Energy  =      -1.4723728497108650 [Eh]
	 SCS Correlation Energy    =      -1.6105207190515596 [Eh]
	 SCS Total Energy          =    -414.2334170006913610 [Eh]
	-----------------------------------------------------------


*** tstop() called on g2-node38.bme.utexas.edu at Sat Apr 11 19:40:17 2020
Module time:
	user time   =      59.41 seconds =       0.99 minutes
	system time =       2.16 seconds =       0.04 minutes
	total time  =         11 seconds =       0.18 minutes
Total time:
	user time   =     180.84 seconds =       3.01 minutes
	system time =       6.53 seconds =       0.11 minutes
	total time  =         30 seconds =       0.50 minutes

  //>>>>>>>>>>>>>>>>>>>>>>>>>>>>>>>>>>>>//
  // CBS Computation: MP2 / AUG-CC-PVQZ //
  //<<<<<<<<<<<<<<<<<<<<<<<<<<<<<<<<<<<<//


Scratch directory: /scratch//

*** tstart() called on g2-node38.bme.utexas.edu
*** at Sat Apr 11 19:40:17 2020

   => Loading Basis Set <=

    Name: AUG-CC-PVQZ
    Role: ORBITAL
    Keyword: BASIS
    atoms 1, 9        entry N          line   363 file /home/liuchw/anaconda3/envs/psi4env/share/psi4/basis/aug-cc-pvqz.gbs 
    atoms 2, 6, 8, 10 entry H          line    40 file /home/liuchw/anaconda3/envs/psi4env/share/psi4/basis/aug-cc-pvqz.gbs 
    atoms 3, 5, 7, 11 entry C          line   303 file /home/liuchw/anaconda3/envs/psi4env/share/psi4/basis/aug-cc-pvqz.gbs 
    atoms 4, 12       entry O          line   423 file /home/liuchw/anaconda3/envs/psi4env/share/psi4/basis/aug-cc-pvqz.gbs 


         ---------------------------------------------------------
                                   SCF
               by Justin Turney, Rob Parrish, Andy Simmonett
                          and Daniel G. A. Smith
                              RHF Reference
                        8 Threads,  38146 MiB Core
         ---------------------------------------------------------

  ==> Geometry <==

    Molecular point group: c1
    Full point group: C1

    Geometry (in Angstrom), charge = 0, multiplicity = 1:

       Center              X                  Y                   Z               Mass       
    ------------   -----------------  -----------------  -----------------  -----------------
         N            3.139985481218    -0.129173767637     0.000328266344    14.003074004430
         H            3.587229481218     0.777400232363     0.000715266344     1.007825032230
         C            3.996033481218    -1.243790767637    -0.001171733656    12.000000000000
         O            5.205485481218    -1.092086767637    -0.001920733656    15.994914619570
         C            3.281814481218    -2.505964767637    -0.001675733656    12.000000000000
         H            3.848399481218    -3.420995767637    -0.002814733656     1.007825032230
         C            1.931645481218    -2.509782767637    -0.000715733656    12.000000000000
         H            1.354682481218    -3.422746767637    -0.001034733656     1.007825032230
         N            1.193654481218    -1.358901767637     0.000735266344    14.003074004430
         H            0.167318481218    -1.380344767637     0.001412266344     1.007825032230
         C            1.766425481218    -0.114236767637     0.001285266344    12.000000000000
         O            1.116104481218     0.926981232363     0.002522266344    15.994914619570

  Running in c1 symmetry.

  Rotational constants: A =      0.12929  B =      0.01443  C =      0.01298 [cm^-1]
  Rotational constants: A =   3876.10661  B =    432.48851  C =    389.07624 [MHz]
  Nuclear repulsion =  357.228249261347059

  Charge       = 0
  Multiplicity = 1
  Electrons    = 58
  Nalpha       = 29
  Nbeta        = 29

  ==> Algorithm <==

  SCF Algorithm Type is DF.
  DIIS enabled.
  MOM disabled.
  Fractional occupation disabled.
  Guess Type is SAD.
  Energy threshold   = 1.00e-07
  Density threshold  = 1.00e-08
  Integral threshold = 0.00e+00

  ==> Primary Basis <==

  Basis Set: AUG-CC-PVQZ
    Blend: AUG-CC-PVQZ
    Number of shells: 216
    Number of basis function: 824
    Number of Cartesian functions: 1060
    Spherical Harmonics?: true
    Max angular momentum: 4

   => Loading Basis Set <=

    Name: (AUG-CC-PVQZ AUX)
    Role: JKFIT
    Keyword: DF_BASIS_SCF
    atoms 1, 9        entry N          line   248 file /home/liuchw/anaconda3/envs/psi4env/share/psi4/basis/aug-cc-pvqz-jkfit.gbs 
    atoms 2, 6, 8, 10 entry H          line    70 file /home/liuchw/anaconda3/envs/psi4env/share/psi4/basis/aug-cc-pvqz-jkfit.gbs 
    atoms 3, 5, 7, 11 entry C          line   178 file /home/liuchw/anaconda3/envs/psi4env/share/psi4/basis/aug-cc-pvqz-jkfit.gbs 
    atoms 4, 12       entry O          line   318 file /home/liuchw/anaconda3/envs/psi4env/share/psi4/basis/aug-cc-pvqz-jkfit.gbs 

  ==> Pre-Iterations <==

   -------------------------------------------------------
    Irrep   Nso     Nmo     Nalpha   Nbeta   Ndocc  Nsocc
   -------------------------------------------------------
     A        824     824       0       0       0       0
   -------------------------------------------------------
    Total     824     824      29      29      29       0
   -------------------------------------------------------

  ==> Integral Setup <==

  DFHelper Memory: AOs need 7.122 GiB; user supplied 27.940 GiB. Using in-core AOs.

  ==> MemDFJK: Density-Fitted J/K Matrices <==

    J tasked:                   Yes
    K tasked:                   Yes
    wK tasked:                   No
    OpenMP threads:               8
    Memory [MiB]:             28610
    Algorithm:                 Core
    Schwarz Cutoff:           1E-12
    Mask sparsity (%):       5.2924
    Fitting Condition:        1E-10

   => Auxiliary Basis Set <=

  Basis Set: (AUG-CC-PVQZ AUX)
    Blend: AUG-CC-PVQZ-JKFIT
    Number of shells: 344
    Number of basis function: 1440
    Number of Cartesian functions: 1988
    Spherical Harmonics?: true
    Max angular momentum: 5

  Minimum eigenvalue in the overlap matrix is 9.5313588248E-07.
  Using Symmetric Orthogonalization.

  SCF Guess: Superposition of Atomic Densities via on-the-fly atomic UHF.

  ==> Iterations <==

                           Total Energy        Delta E     RMS |[F,P]|

   @DF-RHF iter SAD:  -411.99433638768613   -4.11994e+02   0.00000e+00 
   @DF-RHF iter   1:  -412.40071927499480   -4.06383e-01   9.07880e-04 DIIS
   @DF-RHF iter   2:  -412.56395739854446   -1.63238e-01   6.02585e-04 DIIS
   @DF-RHF iter   3:  -412.64310442411545   -7.91470e-02   1.08866e-04 DIIS
   @DF-RHF iter   4:  -412.64736178513510   -4.25736e-03   4.48085e-05 DIIS
   @DF-RHF iter   5:  -412.64824924693568   -8.87462e-04   9.13890e-06 DIIS
   @DF-RHF iter   6:  -412.64835431966696   -1.05073e-04   4.55328e-06 DIIS
   @DF-RHF iter   7:  -412.64837298477715   -1.86651e-05   1.88032e-06 DIIS
   @DF-RHF iter   8:  -412.64837634942774   -3.36465e-06   6.20649e-07 DIIS
   @DF-RHF iter   9:  -412.64837660747088   -2.58043e-07   2.67510e-07 DIIS
   @DF-RHF iter  10:  -412.64837666780215   -6.03313e-08   9.02151e-08 DIIS
   @DF-RHF iter  11:  -412.64837667589018   -8.08802e-09   2.92174e-08 DIIS
   @DF-RHF iter  12:  -412.64837667651307   -6.22890e-10   9.79302e-09 DIIS
  Energy and wave function converged.


  ==> Post-Iterations <==

    Orbital Energies [Eh]
    ---------------------

    Doubly Occupied:                                                      

       1A    -20.540499     2A    -20.540111     3A    -15.647735  
       4A    -15.625826     5A    -11.416525     6A    -11.380752  
       7A    -11.342039     8A    -11.256872     9A     -1.432111  
      10A     -1.396625    11A     -1.313301    12A     -1.246515  
      13A     -1.090070    14A     -0.937507    15A     -0.901249  
      16A     -0.807703    17A     -0.767799    18A     -0.715640  
      19A     -0.677442    20A     -0.670793    21A     -0.649783  
      22A     -0.615738    23A     -0.602637    24A     -0.571709  
      25A     -0.524914    26A     -0.481726    27A     -0.449490  
      28A     -0.436037    29A     -0.371189  

    Virtual:                                                              

      30A      0.011240    31A      0.029598    32A      0.036793  
      33A      0.045993    34A      0.047879    35A      0.068454  
      36A      0.072441    37A      0.076003    38A      0.078910  
      39A      0.085321    40A      0.091206    41A      0.092387  
      42A      0.099694    43A      0.105752    44A      0.109668  
      45A      0.116605    46A      0.120149    47A      0.126707  
      48A      0.135800    49A      0.136107    50A      0.141452  
      51A      0.154235    52A      0.155827    53A      0.168616  
      54A      0.179591    55A      0.182755    56A      0.186632  
      57A      0.195549    58A      0.205921    59A      0.208271  
      60A      0.220539    61A      0.223185    62A      0.227042  
      63A      0.227223    64A      0.228327    65A      0.236025  
      66A      0.242256    67A      0.252361    68A      0.256240  
      69A      0.263769    70A      0.268304    71A      0.273372  
      72A      0.280748    73A      0.281261    74A      0.292306  
      75A      0.294292    76A      0.296638    77A      0.308492  
      78A      0.319953    79A      0.320505    80A      0.329773  
      81A      0.330026    82A      0.335790    83A      0.345403  
      84A      0.354122    85A      0.354309    86A      0.358497  
      87A      0.362159    88A      0.368699    89A      0.373930  
      90A      0.389523    91A      0.391043    92A      0.406779  
      93A      0.414775    94A      0.418499    95A      0.421856  
      96A      0.427926    97A      0.436983    98A      0.441563  
      99A      0.452473   100A      0.459172   101A      0.460508  
     102A      0.467185   103A      0.471404   104A      0.477728  
     105A      0.479979   106A      0.488581   107A      0.498277  
     108A      0.504975   109A      0.507547   110A      0.520532  
     111A      0.535724   112A      0.535751   113A      0.540683  
     114A      0.541022   115A      0.556854   116A      0.566282  
     117A      0.567753   118A      0.577796   119A      0.580762  
     120A      0.595610   121A      0.595759   122A      0.602782  
     123A      0.606060   124A      0.626134   125A      0.628103  
     126A      0.642225   127A      0.643186   128A      0.653322  
     129A      0.661063   130A      0.666961   131A      0.674167  
     132A      0.679604   133A      0.684405   134A      0.700791  
     135A      0.701115   136A      0.710103   137A      0.713538  
     138A      0.714540   139A      0.720866   140A      0.721118  
     141A      0.723343   142A      0.729794   143A      0.745185  
     144A      0.750641   145A      0.755629   146A      0.761011  
     147A      0.770783   148A      0.779255   149A      0.787825  
     150A      0.790566   151A      0.792756   152A      0.807116  
     153A      0.809253   154A      0.838053   155A      0.842516  
     156A      0.848387   157A      0.857900   158A      0.863785  
     159A      0.865787   160A      0.875259   161A      0.877303  
     162A      0.883972   163A      0.887582   164A      0.887837  
     165A      0.892660   166A      0.910179   167A      0.928697  
     168A      0.934788   169A      0.938184   170A      0.942697  
     171A      0.944431   172A      0.949815   173A      0.957165  
     174A      0.970378   175A      0.974402   176A      0.977298  
     177A      0.982970   178A      0.992975   179A      1.005434  
     180A      1.013972   181A      1.015265   182A      1.023462  
     183A      1.033470   184A      1.048157   185A      1.065969  
     186A      1.074201   187A      1.086159   188A      1.087429  
     189A      1.089271   190A      1.106964   191A      1.107238  
     192A      1.113288   193A      1.129760   194A      1.146740  
     195A      1.150738   196A      1.152605   197A      1.158776  
     198A      1.174951   199A      1.181347   200A      1.190598  
     201A      1.205099   202A      1.219607   203A      1.224825  
     204A      1.225598   205A      1.235669   206A      1.239675  
     207A      1.257647   208A      1.263555   209A      1.267600  
     210A      1.287557   211A      1.301222   212A      1.302951  
     213A      1.323522   214A      1.330119   215A      1.350922  
     216A      1.364130   217A      1.375903   218A      1.388196  
     219A      1.403461   220A      1.411730   221A      1.419750  
     222A      1.430447   223A      1.430937   224A      1.448752  
     225A      1.472825   226A      1.492509   227A      1.494683  
     228A      1.507093   229A      1.510823   230A      1.519704  
     231A      1.533709   232A      1.543105   233A      1.546755  
     234A      1.560848   235A      1.563662   236A      1.567324  
     237A      1.579818   238A      1.587896   239A      1.601526  
     240A      1.616829   241A      1.635892   242A      1.642216  
     243A      1.648525   244A      1.664740   245A      1.669971  
     246A      1.691192   247A      1.693650   248A      1.699770  
     249A      1.701816   250A      1.714343   251A      1.727087  
     252A      1.732861   253A      1.737991   254A      1.745455  
     255A      1.763433   256A      1.766836   257A      1.774465  
     258A      1.779412   259A      1.783636   260A      1.796129  
     261A      1.812687   262A      1.817813   263A      1.829456  
     264A      1.834077   265A      1.843523   266A      1.843726  
     267A      1.861461   268A      1.868666   269A      1.885593  
     270A      1.893140   271A      1.908940   272A      1.912358  
     273A      1.916442   274A      1.930367   275A      1.931858  
     276A      1.944280   277A      1.944406   278A      1.954570  
     279A      1.959458   280A      1.971926   281A      1.974162  
     282A      1.983696   283A      1.991156   284A      2.001396  
     285A      2.012976   286A      2.017341   287A      2.026089  
     288A      2.039266   289A      2.049225   290A      2.051231  
     291A      2.055635   292A      2.066624   293A      2.069620  
     294A      2.079780   295A      2.084343   296A      2.104376  
     297A      2.115913   298A      2.126285   299A      2.133225  
     300A      2.134795   301A      2.143596   302A      2.145414  
     303A      2.150896   304A      2.168361   305A      2.189426  
     306A      2.190162   307A      2.198679   308A      2.212007  
     309A      2.219385   310A      2.230310   311A      2.237453  
     312A      2.253088   313A      2.256587   314A      2.260974  
     315A      2.272572   316A      2.282939   317A      2.296227  
     318A      2.299383   319A      2.331598   320A      2.334293  
     321A      2.339327   322A      2.362724   323A      2.369341  
     324A      2.380073   325A      2.382064   326A      2.397295  
     327A      2.398959   328A      2.413002   329A      2.416899  
     330A      2.431596   331A      2.451324   332A      2.472177  
     333A      2.473603   334A      2.477177   335A      2.480733  
     336A      2.516727   337A      2.526806   338A      2.534904  
     339A      2.540709   340A      2.549104   341A      2.564368  
     342A      2.570248   343A      2.589642   344A      2.618916  
     345A      2.644769   346A      2.645638   347A      2.690210  
     348A      2.699835   349A      2.704401   350A      2.711841  
     351A      2.725903   352A      2.735009   353A      2.746996  
     354A      2.760395   355A      2.768091   356A      2.770199  
     357A      2.783724   358A      2.789434   359A      2.795547  
     360A      2.822541   361A      2.836746   362A      2.852389  
     363A      2.867923   364A      2.874810   365A      2.878228  
     366A      2.915623   367A      2.921268   368A      2.923061  
     369A      2.939260   370A      2.952312   371A      2.954576  
     372A      2.964884   373A      2.970091   374A      2.980495  
     375A      3.010134   376A      3.016252   377A      3.047142  
     378A      3.061990   379A      3.070137   380A      3.077501  
     381A      3.103635   382A      3.109327   383A      3.128800  
     384A      3.140355   385A      3.148460   386A      3.160123  
     387A      3.172439   388A      3.189084   389A      3.198522  
     390A      3.225405   391A      3.226003   392A      3.259319  
     393A      3.263286   394A      3.263437   395A      3.276110  
     396A      3.279429   397A      3.302939   398A      3.312908  
     399A      3.325514   400A      3.343201   401A      3.370981  
     402A      3.377610   403A      3.399773   404A      3.406842  
     405A      3.417509   406A      3.448132   407A      3.448264  
     408A      3.459680   409A      3.460040   410A      3.508718  
     411A      3.510958   412A      3.519848   413A      3.545790  
     414A      3.559573   415A      3.560178   416A      3.586919  
     417A      3.602423   418A      3.605104   419A      3.611282  
     420A      3.638230   421A      3.675061   422A      3.698493  
     423A      3.715901   424A      3.737716   425A      3.744756  
     426A      3.752991   427A      3.783829   428A      3.793340  
     429A      3.793588   430A      3.827493   431A      3.852810  
     432A      3.854965   433A      3.885575   434A      3.885691  
     435A      3.893761   436A      3.910707   437A      3.939166  
     438A      3.949720   439A      3.968028   440A      3.977290  
     441A      3.981098   442A      3.984814   443A      4.000467  
     444A      4.001058   445A      4.012459   446A      4.032347  
     447A      4.049252   448A      4.063414   449A      4.067979  
     450A      4.099156   451A      4.111636   452A      4.127122  
     453A      4.129035   454A      4.162371   455A      4.184301  
     456A      4.195558   457A      4.232732   458A      4.263680  
     459A      4.274847   460A      4.278157   461A      4.288501  
     462A      4.291941   463A      4.305935   464A      4.324409  
     465A      4.344885   466A      4.348380   467A      4.367187  
     468A      4.369514   469A      4.381327   470A      4.389451  
     471A      4.403939   472A      4.410700   473A      4.418021  
     474A      4.432153   475A      4.442407   476A      4.465191  
     477A      4.475269   478A      4.475378   479A      4.492730  
     480A      4.510926   481A      4.515613   482A      4.522316  
     483A      4.524546   484A      4.535646   485A      4.556132  
     486A      4.564920   487A      4.573940   488A      4.609186  
     489A      4.648089   490A      4.651525   491A      4.680008  
     492A      4.692128   493A      4.693477   494A      4.701590  
     495A      4.720537   496A      4.758146   497A      4.758255  
     498A      4.760298   499A      4.795355   500A      4.816438  
     501A      4.828168   502A      4.841747   503A      4.852348  
     504A      4.886347   505A      4.895030   506A      4.920987  
     507A      4.926647   508A      4.937125   509A      4.948638  
     510A      5.004618   511A      5.008998   512A      5.016502  
     513A      5.021313   514A      5.073392   515A      5.076407  
     516A      5.096500   517A      5.109161   518A      5.136307  
     519A      5.136583   520A      5.197492   521A      5.223521  
     522A      5.228495   523A      5.283237   524A      5.302110  
     525A      5.322520   526A      5.338219   527A      5.366895  
     528A      5.367962   529A      5.394315   530A      5.428604  
     531A      5.454825   532A      5.495804   533A      5.549812  
     534A      5.553070   535A      5.559249   536A      5.634671  
     537A      5.635141   538A      5.652441   539A      5.668167  
     540A      5.679058   541A      5.730616   542A      5.736178  
     543A      5.774202   544A      5.807614   545A      5.879288  
     546A      5.899646   547A      5.920452   548A      5.935235  
     549A      5.956902   550A      5.975005   551A      5.988251  
     552A      6.036305   553A      6.040648   554A      6.064801  
     555A      6.111324   556A      6.126297   557A      6.141962  
     558A      6.193036   559A      6.208007   560A      6.244774  
     561A      6.279697   562A      6.283850   563A      6.348765  
     564A      6.381508   565A      6.394022   566A      6.429271  
     567A      6.445206   568A      6.468933   569A      6.510356  
     570A      6.514410   571A      6.521551   572A      6.536078  
     573A      6.558856   574A      6.560071   575A      6.590835  
     576A      6.595975   577A      6.634952   578A      6.653380  
     579A      6.655547   580A      6.667933   581A      6.684991  
     582A      6.715011   583A      6.718567   584A      6.746735  
     585A      6.778670   586A      6.825345   587A      6.859609  
     588A      6.873549   589A      6.884605   590A      6.898733  
     591A      6.912076   592A      6.949800   593A      6.959516  
     594A      6.970735   595A      6.973564   596A      7.001615  
     597A      7.005744   598A      7.037290   599A      7.059960  
     600A      7.077785   601A      7.130161   602A      7.135392  
     603A      7.147260   604A      7.187885   605A      7.221165  
     606A      7.229474   607A      7.241718   608A      7.242385  
     609A      7.291197   610A      7.305608   611A      7.335395  
     612A      7.338144   613A      7.359439   614A      7.395855  
     615A      7.400491   616A      7.452032   617A      7.466777  
     618A      7.468872   619A      7.511679   620A      7.522978  
     621A      7.543889   622A      7.576391   623A      7.607670  
     624A      7.645331   625A      7.660464   626A      7.690105  
     627A      7.716225   628A      7.730983   629A      7.747367  
     630A      7.756071   631A      7.788943   632A      7.824747  
     633A      7.831458   634A      7.857118   635A      7.888367  
     636A      7.900322   637A      7.936633   638A      7.952599  
     639A      8.000933   640A      8.010148   641A      8.028595  
     642A      8.049621   643A      8.106704   644A      8.129670  
     645A      8.176568   646A      8.190012   647A      8.223441  
     648A      8.289615   649A      8.318570   650A      8.336699  
     651A      8.374789   652A      8.425355   653A      8.439869  
     654A      8.461996   655A      8.510686   656A      8.514718  
     657A      8.550963   658A      8.565637   659A      8.572382  
     660A      8.582578   661A      8.587287   662A      8.631779  
     663A      8.636720   664A      8.643437   665A      8.705837  
     666A      8.727960   667A      8.729102   668A      8.776788  
     669A      8.817954   670A      8.825179   671A      8.842213  
     672A      8.864751   673A      8.871143   674A      8.913053  
     675A      8.941241   676A      8.962514   677A      8.994313  
     678A      9.046040   679A      9.064392   680A      9.099431  
     681A      9.119391   682A      9.129148   683A      9.133563  
     684A      9.173645   685A      9.179026   686A      9.241897  
     687A      9.275158   688A      9.275197   689A      9.304233  
     690A      9.310267   691A      9.349809   692A      9.369807  
     693A      9.398869   694A      9.421605   695A      9.466129  
     696A      9.486974   697A      9.503386   698A      9.548579  
     699A      9.583393   700A      9.587653   701A      9.639331  
     702A      9.657541   703A      9.687264   704A      9.695830  
     705A      9.778371   706A      9.796966   707A      9.837676  
     708A      9.854110   709A      9.882920   710A      9.930658  
     711A      9.947750   712A      9.972244   713A      9.987664  
     714A      9.989321   715A     10.036396   716A     10.054367  
     717A     10.067588   718A     10.143641   719A     10.158124  
     720A     10.182961   721A     10.220004   722A     10.250288  
     723A     10.262484   724A     10.265010   725A     10.299228  
     726A     10.341641   727A     10.434192   728A     10.523753  
     729A     10.573374   730A     10.613626   731A     10.643329  
     732A     10.669778   733A     10.673171   734A     10.683290  
     735A     10.707843   736A     10.769265   737A     10.797879  
     738A     10.828131   739A     10.839904   740A     10.868628  
     741A     10.879554   742A     10.889823   743A     10.900658  
     744A     11.044223   745A     11.120687   746A     11.139545  
     747A     11.169329   748A     11.175275   749A     11.203937  
     750A     11.206897   751A     11.244223   752A     11.257190  
     753A     11.329725   754A     11.347861   755A     11.361911  
     756A     11.400434   757A     11.413522   758A     11.423404  
     759A     11.457197   760A     11.486012   761A     11.509781  
     762A     11.520279   763A     11.541613   764A     11.605362  
     765A     11.607706   766A     11.639430   767A     11.686781  
     768A     11.775548   769A     11.875468   770A     11.893099  
     771A     11.941016   772A     11.994746   773A     12.004084  
     774A     12.033529   775A     12.096225   776A     12.161975  
     777A     12.165849   778A     12.211754   779A     12.235775  
     780A     12.244574   781A     12.293666   782A     12.346834  
     783A     12.453896   784A     12.519483   785A     12.543118  
     786A     12.553176   787A     12.629882   788A     12.691211  
     789A     12.796569   790A     12.808105   791A     12.844231  
     792A     12.845485   793A     12.933917   794A     12.973700  
     795A     13.234090   796A     13.238863   797A     13.309265  
     798A     13.311508   799A     13.344155   800A     13.404553  
     801A     13.449984   802A     13.488441   803A     13.504488  
     804A     13.556525   805A     13.611029   806A     13.960673  
     807A     14.028530   808A     14.092508   809A     14.273942  
     810A     14.310592   811A     14.772490   812A     14.900781  
     813A     15.093116   814A     15.131747   815A     15.226829  
     816A     15.299252   817A     26.413216   818A     26.631572  
     819A     26.795332   820A     27.171020   821A     35.064700  
     822A     35.207671   823A     44.370783   824A     44.543636  

    Final Occupation by Irrep:
              A 
    DOCC [    29 ]

  @DF-RHF Final Energy:  -412.64837667651307

   => Energetics <=

    Nuclear Repulsion Energy =            357.2282492613470595
    One-Electron Energy =               -1270.9325641329719474
    Two-Electron Energy =                 501.0559381951118212
    Total Energy =                       -412.6483766765130667

Computation Completed


Properties will be evaluated at   0.000000,   0.000000,   0.000000 [a0]

Properties computed using the SCF density matrix

  Nuclear Dipole Moment: [e a0]
     X:   294.2707      Y:  -108.5208      Z:    -0.0059

  Electronic Dipole Moment: [e a0]
     X:  -295.5923      Y:   106.9696      Z:     0.0056

  Dipole Moment: [e a0]
     X:    -1.3216      Y:    -1.5512      Z:    -0.0003     Total:     2.0379

  Dipole Moment: [D]
     X:    -3.3592      Y:    -3.9428      Z:    -0.0007     Total:     5.1797


*** tstop() called on g2-node38.bme.utexas.edu at Sat Apr 11 19:41:07 2020
Module time:
	user time   =     347.62 seconds =       5.79 minutes
	system time =       8.85 seconds =       0.15 minutes
	total time  =         50 seconds =       0.83 minutes
Total time:
	user time   =     528.46 seconds =       8.81 minutes
	system time =      15.38 seconds =       0.26 minutes
	total time  =         80 seconds =       1.33 minutes

*** tstart() called on g2-node38.bme.utexas.edu
*** at Sat Apr 11 19:41:07 2020


  //>>>>>>>>>>>>>>>>>>>>>>>>>>>>>>>>>>>//
  //               DFMP2               //
  //<<<<<<<<<<<<<<<<<<<<<<<<<<<<<<<<<<<//

   => Loading Basis Set <=

    Name: (AUG-CC-PVQZ AUX)
    Role: RIFIT
    Keyword: DF_BASIS_MP2
    atoms 1, 9        entry N          line   258 file /home/liuchw/anaconda3/envs/psi4env/share/psi4/basis/aug-cc-pvqz-ri.gbs 
    atoms 2, 6, 8, 10 entry H          line    30 file /home/liuchw/anaconda3/envs/psi4env/share/psi4/basis/aug-cc-pvqz-ri.gbs 
    atoms 3, 5, 7, 11 entry C          line   184 file /home/liuchw/anaconda3/envs/psi4env/share/psi4/basis/aug-cc-pvqz-ri.gbs 
    atoms 4, 12       entry O          line   332 file /home/liuchw/anaconda3/envs/psi4env/share/psi4/basis/aug-cc-pvqz-ri.gbs 

	 --------------------------------------------------------
	                          DF-MP2                         
	      2nd-Order Density-Fitted Moller-Plesset Theory     
	              RMP2 Wavefunction,   8 Threads             
	                                                         
	        Rob Parrish, Justin Turney, Andy Simmonett,      
	           Ed Hohenstein, and C. David Sherrill          
	 --------------------------------------------------------

   => Auxiliary Basis Set <=

  Basis Set: (AUG-CC-PVQZ AUX)
    Blend: AUG-CC-PVQZ-RI
    Number of shells: 368
    Number of basis function: 1664
    Number of Cartesian functions: 2316
    Spherical Harmonics?: true
    Max angular momentum: 5

	 --------------------------------------------------------
	                 NBF =   824, NAUX =  1664
	 --------------------------------------------------------
	   CLASS    FOCC     OCC    AOCC    AVIR     VIR    FVIR
	   PAIRS       0      29      29     795     795       0
	 --------------------------------------------------------

	-----------------------------------------------------------
	 ==================> DF-MP2 Energies <==================== 
	-----------------------------------------------------------
	 Reference Energy          =    -412.6483766765130667 [Eh]
	 Singles Energy            =      -0.0000000000000000 [Eh]
	 Same-Spin Energy          =      -0.4395140337890551 [Eh]
	 Opposite-Spin Energy      =      -1.3889270597374330 [Eh]
	 Correlation Energy        =      -1.8284410935264881 [Eh]
	 Total Energy              =    -414.4768177700395313 [Eh]
	-----------------------------------------------------------
	 ================> DF-SCS-MP2 Energies <================== 
	-----------------------------------------------------------
	 SCS Same-Spin Scale       =       0.3333333333333333 [-]
	 SCS Opposite-Spin Scale   =       1.2000000000000000 [-]
	 SCS Same-Spin Energy      =      -0.1465046779296850 [Eh]
	 SCS Opposite-Spin Energy  =      -1.6667124716849195 [Eh]
	 SCS Correlation Energy    =      -1.8132171496146046 [Eh]
	 SCS Total Energy          =    -414.4615938261276824 [Eh]
	-----------------------------------------------------------


*** tstop() called on g2-node38.bme.utexas.edu at Sat Apr 11 19:41:44 2020
Module time:
	user time   =     176.97 seconds =       2.95 minutes
	system time =       6.69 seconds =       0.11 minutes
	total time  =         37 seconds =       0.62 minutes
Total time:
	user time   =     705.44 seconds =      11.76 minutes
	system time =      22.07 seconds =       0.37 minutes
	total time  =        117 seconds =       1.95 minutes

  //>>>>>>>>>>>>>>>>>>>>>>>>>>>>>>>>>>>//
  //  CBS Results: mp2/aug-cc-pv[tq]z  //
  //<<<<<<<<<<<<<<<<<<<<<<<<<<<<<<<<<<<//


   ==> HF <==

   HI-zeta (4) Energy:               -412.648376676513


   ==> Helgaker 2-point correlated extrapolation for method: MP2 <==

   LO-zeta (3) Energy:               -414.264317264421
   HI-zeta (4) Energy:               -414.476817770040
   Alpha (exponent) Value:             3.000000000000
   Extrapolated Energy:              -414.631885706572

   @Extrapolated MP2/(T,Q):          -414.631885706572



   ==> Helgaker 2-point correlated extrapolation for method: HF <==

   LO-zeta (3) Energy:               -412.622896281640
   HI-zeta (4) Energy:               -412.648376676513
   Alpha (exponent) Value:             3.000000000000
   Extrapolated Energy:              -412.666970478177

   @Extrapolated HF/(T,Q):           -412.666970478177


   ==> Components <==

  ---------------------------------------------------------------------------------------------------------
                          Method / Basis                      Rqd      Energy [Eh]   Variable
  ---------------------------------------------------------------------------------------------------------
                              hf / aug-cc-pvtz                  *    -412.62289628   HF TOTAL ENERGY
                             mp2 / aug-cc-pvtz                  *    -414.26431726   MP2 TOTAL ENERGY
                              hf / aug-cc-pvqz                  *    -412.64837668   HF TOTAL ENERGY
                             mp2 / aug-cc-pvqz                  *    -414.47681777   MP2 TOTAL ENERGY
  ---------------------------------------------------------------------------------------------------------

   ==> Stages <==

  ---------------------------------------------------------------------------------------------------------
      Stage               Method / Basis                       Wt      Energy [Eh]   Scheme
  ---------------------------------------------------------------------------------------------------------
        scf                   hf / aug-cc-pvqz                  1    -412.64837668   xtpl_highest_1
       corl                  mp2 / aug-cc-pv[tq]z               1    -414.63188571   corl_xtpl_helgaker_2
       corl                   hf / aug-cc-pv[tq]z              -1    -412.66697048   corl_xtpl_helgaker_2
  ---------------------------------------------------------------------------------------------------------

   ==> CBS <==

  ---------------------------------------------------------------------------------------------------------
      Stage               Method / Basis                               Energy [Eh]   Scheme
  ---------------------------------------------------------------------------------------------------------
        scf                   hf / aug-cc-pvqz                       -412.64837668   xtpl_highest_1
       corl                  mp2 / aug-cc-pv[tq]z                      -1.96491523   corl_xtpl_helgaker_2
      total                  CBS                                     -414.61329190   
  ---------------------------------------------------------------------------------------------------------
   => Loading Basis Set <=

    Name: DEF2-SVP
    Role: ORBITAL
    Keyword: BASIS
    atoms 1, 9        entry N          line   110 file /home/liuchw/anaconda3/envs/psi4env/share/psi4/basis/def2-svp.gbs 
    atoms 2, 6, 8, 10 entry H          line    15 file /home/liuchw/anaconda3/envs/psi4env/share/psi4/basis/def2-svp.gbs 
    atoms 3, 5, 7, 11 entry C          line    90 file /home/liuchw/anaconda3/envs/psi4env/share/psi4/basis/def2-svp.gbs 
    atoms 4, 12       entry O          line   130 file /home/liuchw/anaconda3/envs/psi4env/share/psi4/basis/def2-svp.gbs 


       N-Body: Complex Energy (fragments = (2,), basis = (2,):  -414.61329190490773)

       N-Body: Computing complex (2/4) with fragments (2,) in the basis of fragments (1, 2).


Scratch directory: /scratch//

  //>>>>>>>>>>>>>>>>>>>>>>>>>>>>>>>>>>>//
  //   CBS Setup: mp2/aug-cc-pv[tq]z   //
  //<<<<<<<<<<<<<<<<<<<<<<<<<<<<<<<<<<<//

    Naive listing of computations required.
             hf / aug-cc-pvqz              for  HF TOTAL ENERGY
            mp2 / aug-cc-pvtz              for  MP2 TOTAL ENERGY
            mp2 / aug-cc-pvqz              for  MP2 TOTAL ENERGY
             hf / aug-cc-pvtz              for  HF TOTAL ENERGY
             hf / aug-cc-pvqz              for  HF TOTAL ENERGY

    Enlightened listing of computations required.
            mp2 / aug-cc-pvtz              for  MP2 TOTAL ENERGY
            mp2 / aug-cc-pvqz              for  MP2 TOTAL ENERGY

    Full listing of computations to be obtained (required and bonus).
             hf / aug-cc-pvtz              for  HF TOTAL ENERGY
            mp2 / aug-cc-pvtz              for  MP2 TOTAL ENERGY
             hf / aug-cc-pvqz              for  HF TOTAL ENERGY
            mp2 / aug-cc-pvqz              for  MP2 TOTAL ENERGY

  //>>>>>>>>>>>>>>>>>>>>>>>>>>>>>>>>>>>>//
  // CBS Computation: MP2 / AUG-CC-PVTZ //
  //<<<<<<<<<<<<<<<<<<<<<<<<<<<<<<<<<<<<//


Scratch directory: /scratch//

*** tstart() called on g2-node38.bme.utexas.edu
*** at Sat Apr 11 19:41:46 2020

   => Loading Basis Set <=

    Name: AUG-CC-PVTZ
    Role: ORBITAL
    Keyword: BASIS
    atoms 1, 9, 13, 21                entry N          line   285 file /home/liuchw/anaconda3/envs/psi4env/share/psi4/basis/aug-cc-pvtz.gbs 
    atoms 2, 6, 8, 10, 14, 18, 20, 22 entry H          line    40 file /home/liuchw/anaconda3/envs/psi4env/share/psi4/basis/aug-cc-pvtz.gbs 
    atoms 3, 5, 7, 11, 15, 17, 19, 23 entry C          line   239 file /home/liuchw/anaconda3/envs/psi4env/share/psi4/basis/aug-cc-pvtz.gbs 
    atoms 4, 12, 16, 24               entry O          line   331 file /home/liuchw/anaconda3/envs/psi4env/share/psi4/basis/aug-cc-pvtz.gbs 


         ---------------------------------------------------------
                                   SCF
               by Justin Turney, Rob Parrish, Andy Simmonett
                          and Daniel G. A. Smith
                              RHF Reference
                        8 Threads,  38146 MiB Core
         ---------------------------------------------------------

  ==> Geometry <==

    Molecular point group: c1
    Full point group: C1

    Geometry (in Angstrom), charge = 0, multiplicity = 1:

       Center              X                  Y                   Z               Mass       
    ------------   -----------------  -----------------  -----------------  -----------------
      Gh(N)          -1.742741518782     0.979762232363     0.000744266344    14.003074004430
      Gh(H)          -0.714319518782     1.030998232363     0.001452266344     1.007825032230
      Gh(C)          -2.309567518782    -0.283432767637     0.001331266344    12.000000000000
      Gh(O)          -1.606841518782    -1.296523767637     0.002463266344    15.994914619570
      Gh(C)          -3.756364518782    -0.305337767637     0.000308266344    12.000000000000
      Gh(H)          -4.262332518782    -1.254840767637     0.000662266344     1.007825032230
      Gh(C)          -4.434762518782     0.861085232363    -0.001093733656    12.000000000000
      Gh(H)          -5.513639518782     0.907778232363    -0.001915733656     1.007825032230
      Gh(N)          -3.787579518782     2.062403232363    -0.001588733656    14.003074004430
      Gh(H)          -4.296580518782     2.930871232363    -0.002656733656     1.007825032230
      Gh(C)          -2.404221518782     2.194014232363    -0.000695733656    12.000000000000
      Gh(O)          -1.852586518782     3.274029232363    -0.001171733656    15.994914619570
         N            3.139985481218    -0.129173767637     0.000328266344    14.003074004430
         H            3.587229481218     0.777400232363     0.000715266344     1.007825032230
         C            3.996033481218    -1.243790767637    -0.001171733656    12.000000000000
         O            5.205485481218    -1.092086767637    -0.001920733656    15.994914619570
         C            3.281814481218    -2.505964767637    -0.001675733656    12.000000000000
         H            3.848399481218    -3.420995767637    -0.002814733656     1.007825032230
         C            1.931645481218    -2.509782767637    -0.000715733656    12.000000000000
         H            1.354682481218    -3.422746767637    -0.001034733656     1.007825032230
         N            1.193654481218    -1.358901767637     0.000735266344    14.003074004430
         H            0.167318481218    -1.380344767637     0.001412266344     1.007825032230
         C            1.766425481218    -0.114236767637     0.001285266344    12.000000000000
         O            1.116104481218     0.926981232363     0.002522266344    15.994914619570

  Running in c1 symmetry.

  Rotational constants: A =      0.04683  B =      0.00753  C =      0.00649 [cm^-1]
  Rotational constants: A =   1404.05702  B =    225.85852  C =    194.56122 [MHz]
  Nuclear repulsion =  357.228249261347059

  Charge       = 0
  Multiplicity = 1
  Electrons    = 58
  Nalpha       = 29
  Nbeta        = 29

  ==> Algorithm <==

  SCF Algorithm Type is DF.
  DIIS enabled.
  MOM disabled.
  Fractional occupation disabled.
  Guess Type is SAD.
  Energy threshold   = 1.00e-07
  Density threshold  = 1.00e-08
  Integral threshold = 0.00e+00

  ==> Primary Basis <==

  Basis Set: AUG-CC-PVTZ
    Blend: AUG-CC-PVTZ
    Number of shells: 296
    Number of basis function: 920
    Number of Cartesian functions: 1080
    Spherical Harmonics?: true
    Max angular momentum: 3

   => Loading Basis Set <=

    Name: (AUG-CC-PVTZ AUX)
    Role: JKFIT
    Keyword: DF_BASIS_SCF
    atoms 1, 9, 13, 21                entry N          line   224 file /home/liuchw/anaconda3/envs/psi4env/share/psi4/basis/aug-cc-pvtz-jkfit.gbs 
    atoms 2, 6, 8, 10, 14, 18, 20, 22 entry H          line    70 file /home/liuchw/anaconda3/envs/psi4env/share/psi4/basis/aug-cc-pvtz-jkfit.gbs 
    atoms 3, 5, 7, 11, 15, 17, 19, 23 entry C          line   162 file /home/liuchw/anaconda3/envs/psi4env/share/psi4/basis/aug-cc-pvtz-jkfit.gbs 
    atoms 4, 12, 16, 24               entry O          line   286 file /home/liuchw/anaconda3/envs/psi4env/share/psi4/basis/aug-cc-pvtz-jkfit.gbs 

  ==> Pre-Iterations <==

   -------------------------------------------------------
    Irrep   Nso     Nmo     Nalpha   Nbeta   Ndocc  Nsocc
   -------------------------------------------------------
     A        920     920       0       0       0       0
   -------------------------------------------------------
    Total     920     920      29      29      29       0
   -------------------------------------------------------

  ==> Integral Setup <==

  DFHelper Memory: AOs need 10.657 GiB; user supplied 27.940 GiB. Using in-core AOs.

  ==> MemDFJK: Density-Fitted J/K Matrices <==

    J tasked:                   Yes
    K tasked:                   Yes
    wK tasked:                   No
    OpenMP threads:               8
    Memory [MiB]:             28610
    Algorithm:                 Core
    Schwarz Cutoff:           1E-12
    Mask sparsity (%):      18.8003
    Fitting Condition:        1E-10

   => Auxiliary Basis Set <=

  Basis Set: (AUG-CC-PVTZ AUX)
    Blend: AUG-CC-PVTZ-JKFIT
    Number of shells: 592
    Number of basis function: 2032
    Number of Cartesian functions: 2536
    Spherical Harmonics?: true
    Max angular momentum: 4

  Minimum eigenvalue in the overlap matrix is 1.6743049326E-06.
  Using Symmetric Orthogonalization.

  SCF Guess: Superposition of Atomic Densities via on-the-fly atomic UHF.

  ==> Iterations <==

                           Total Energy        Delta E     RMS |[F,P]|

   @DF-RHF iter SAD:  -411.97121553353526   -4.11971e+02   0.00000e+00 
   @DF-RHF iter   1:  -412.37607715184299   -4.04862e-01   8.10769e-04 DIIS
   @DF-RHF iter   2:  -412.53902633984711   -1.62949e-01   5.37926e-04 DIIS
   @DF-RHF iter   3:  -412.61790773002338   -7.88814e-02   9.70145e-05 DIIS
   @DF-RHF iter   4:  -412.62214823955514   -4.24051e-03   3.98160e-05 DIIS
   @DF-RHF iter   5:  -412.62303076453657   -8.82525e-04   8.11292e-06 DIIS
   @DF-RHF iter   6:  -412.62313504626587   -1.04282e-04   4.05817e-06 DIIS
   @DF-RHF iter   7:  -412.62315337965799   -1.83334e-05   1.65355e-06 DIIS
   @DF-RHF iter   8:  -412.62315664876024   -3.26910e-06   5.47721e-07 DIIS
   @DF-RHF iter   9:  -412.62315689512116   -2.46361e-07   2.33408e-07 DIIS
   @DF-RHF iter  10:  -412.62315695440691   -5.92858e-08   7.83988e-08 DIIS
   @DF-RHF iter  11:  -412.62315696206468   -7.65777e-09   2.57759e-08 DIIS
   @DF-RHF iter  12:  -412.62315696266569   -6.01005e-10   8.45167e-09 DIIS
  Energy and wave function converged.


  ==> Post-Iterations <==

    Orbital Energies [Eh]
    ---------------------

    Doubly Occupied:                                                      

       1A    -20.543213     2A    -20.542810     3A    -15.649966  
       4A    -15.628047     5A    -11.417650     6A    -11.381923  
       7A    -11.343119     8A    -11.258053     9A     -1.432855  
      10A     -1.397499    11A     -1.313957    12A     -1.247098  
      13A     -1.090453    14A     -0.937718    15A     -0.901517  
      16A     -0.807751    17A     -0.767842    18A     -0.715665  
      19A     -0.677489    20A     -0.670730    21A     -0.649786  
      22A     -0.615716    23A     -0.602574    24A     -0.571649  
      25A     -0.524801    26A     -0.481647    27A     -0.449394  
      28A     -0.435888    29A     -0.371038  

    Virtual:                                                              

      30A      0.009168    31A      0.022825    32A      0.032117  
      33A      0.036841    34A      0.043168    35A      0.047955  
      36A      0.050890    37A      0.053392    38A      0.063909  
      39A      0.066049    40A      0.068390    41A      0.077239  
      42A      0.080249    43A      0.090280    44A      0.090327  
      45A      0.093565    46A      0.099351    47A      0.103370  
      48A      0.103784    49A      0.106341    50A      0.107497  
      51A      0.113505    52A      0.120999    53A      0.124638  
      54A      0.126527    55A      0.130249    56A      0.132119  
      57A      0.136845    58A      0.137067    59A      0.143030  
      60A      0.144466    61A      0.150412    62A      0.154639  
      63A      0.157341    64A      0.163316    65A      0.167473  
      66A      0.170993    67A      0.177841    68A      0.179866  
      69A      0.182942    70A      0.183563    71A      0.190755  
      72A      0.194231    73A      0.205569    74A      0.209142  
      75A      0.211306    76A      0.214907    77A      0.215625  
      78A      0.216193    79A      0.224683    80A      0.231026  
      81A      0.231619    82A      0.237770    83A      0.242580  
      84A      0.247512    85A      0.250879    86A      0.252356  
      87A      0.261317    88A      0.266083    89A      0.270284  
      90A      0.277465    91A      0.278195    92A      0.281431  
      93A      0.282561    94A      0.287694    95A      0.288246  
      96A      0.291226    97A      0.301282    98A      0.306728  
      99A      0.307642   100A      0.312232   101A      0.316942  
     102A      0.321637   103A      0.324572   104A      0.324607  
     105A      0.331488   106A      0.333146   107A      0.339050  
     108A      0.340538   109A      0.343668   110A      0.347658  
     111A      0.351297   112A      0.358007   113A      0.362372  
     114A      0.366688   115A      0.374411   116A      0.376056  
     117A      0.385085   118A      0.386627   119A      0.388358  
     120A      0.396231   121A      0.398256   122A      0.406464  
     123A      0.407288   124A      0.410692   125A      0.414117  
     126A      0.416847   127A      0.419605   128A      0.419943  
     129A      0.424119   130A      0.424300   131A      0.430868  
     132A      0.435119   133A      0.435845   134A      0.438113  
     135A      0.443303   136A      0.448146   137A      0.452299  
     138A      0.456608   139A      0.457884   140A      0.462557  
     141A      0.466325   142A      0.466668   143A      0.481018  
     144A      0.481708   145A      0.484698   146A      0.489899  
     147A      0.496146   148A      0.502482   149A      0.504823  
     150A      0.511700   151A      0.513284   152A      0.520164  
     153A      0.520466   154A      0.525619   155A      0.533614  
     156A      0.538380   157A      0.540179   158A      0.550347  
     159A      0.552534   160A      0.558324   161A      0.563156  
     162A      0.567451   163A      0.568675   164A      0.574083  
     165A      0.592160   166A      0.593844   167A      0.595509  
     168A      0.606193   169A      0.607881   170A      0.613964  
     171A      0.615663   172A      0.623923   173A      0.627076  
     174A      0.632685   175A      0.637838   176A      0.642668  
     177A      0.646563   178A      0.654475   179A      0.654954  
     180A      0.661535   181A      0.666778   182A      0.677161  
     183A      0.677561   184A      0.681291   185A      0.685569  
     186A      0.699346   187A      0.703198   188A      0.709557  
     189A      0.711092   190A      0.719082   191A      0.729738  
     192A      0.734157   193A      0.737607   194A      0.745385  
     195A      0.748930   196A      0.755751   197A      0.760489  
     198A      0.760916   199A      0.764658   200A      0.778639  
     201A      0.781639   202A      0.783333   203A      0.786499  
     204A      0.791260   205A      0.791890   206A      0.796975  
     207A      0.802254   208A      0.811541   209A      0.819861  
     210A      0.825820   211A      0.832235   212A      0.833864  
     213A      0.840879   214A      0.842348   215A      0.844422  
     216A      0.846550   217A      0.854626   218A      0.854939  
     219A      0.861265   220A      0.865921   221A      0.872579  
     222A      0.875461   223A      0.875792   224A      0.888710  
     225A      0.892535   226A      0.896576   227A      0.901665  
     228A      0.910986   229A      0.915852   230A      0.920604  
     231A      0.921077   232A      0.926160   233A      0.930542  
     234A      0.938073   235A      0.939955   236A      0.940610  
     237A      0.945078   238A      0.950558   239A      0.953499  
     240A      0.955783   241A      0.962072   242A      0.965461  
     243A      0.969820   244A      0.980188   245A      0.984584  
     246A      0.988473   247A      0.989901   248A      0.995072  
     249A      1.002240   250A      1.008028   251A      1.009268  
     252A      1.010776   253A      1.012511   254A      1.015529  
     255A      1.024466   256A      1.025613   257A      1.033630  
     258A      1.038367   259A      1.052709   260A      1.054964  
     261A      1.062132   262A      1.063414   263A      1.069042  
     264A      1.069117   265A      1.072631   266A      1.074177  
     267A      1.076999   268A      1.095744   269A      1.101512  
     270A      1.101607   271A      1.108668   272A      1.116329  
     273A      1.121490   274A      1.127737   275A      1.135882  
     276A      1.138522   277A      1.143983   278A      1.144658  
     279A      1.151808   280A      1.162418   281A      1.169813  
     282A      1.172100   283A      1.175892   284A      1.176074  
     285A      1.179266   286A      1.185083   287A      1.195599  
     288A      1.196266   289A      1.206915   290A      1.210576  
     291A      1.216796   292A      1.218325   293A      1.220856  
     294A      1.222638   295A      1.228383   296A      1.229036  
     297A      1.241293   298A      1.246234   299A      1.259135  
     300A      1.264694   301A      1.271384   302A      1.274425  
     303A      1.284780   304A      1.292022   305A      1.296198  
     306A      1.306997   307A      1.308789   308A      1.311059  
     309A      1.314263   310A      1.321071   311A      1.330485  
     312A      1.338699   313A      1.341369   314A      1.344940  
     315A      1.358069   316A      1.369035   317A      1.371261  
     318A      1.385064   319A      1.389923   320A      1.391646  
     321A      1.395499   322A      1.395807   323A      1.404908  
     324A      1.414666   325A      1.419575   326A      1.430533  
     327A      1.430907   328A      1.435344   329A      1.439973  
     330A      1.443103   331A      1.453776   332A      1.459416  
     333A      1.477716   334A      1.479200   335A      1.483827  
     336A      1.487925   337A      1.491922   338A      1.495273  
     339A      1.503774   340A      1.512692   341A      1.523458  
     342A      1.528134   343A      1.529411   344A      1.540521  
     345A      1.547401   346A      1.555782   347A      1.565759  
     348A      1.577439   349A      1.582466   350A      1.583263  
     351A      1.587784   352A      1.595432   353A      1.598159  
     354A      1.607968   355A      1.608794   356A      1.624923  
     357A      1.626421   358A      1.635664   359A      1.636635  
     360A      1.644265   361A      1.654052   362A      1.663782  
     363A      1.672390   364A      1.683500   365A      1.688340  
     366A      1.689077   367A      1.699078   368A      1.699248  
     369A      1.707327   370A      1.709680   371A      1.717025  
     372A      1.720855   373A      1.724941   374A      1.725015  
     375A      1.743431   376A      1.750897   377A      1.755682  
     378A      1.764954   379A      1.766277   380A      1.773016  
     381A      1.780538   382A      1.784560   383A      1.798014  
     384A      1.798525   385A      1.812929   386A      1.821657  
     387A      1.822564   388A      1.827030   389A      1.835600  
     390A      1.850894   391A      1.863826   392A      1.875084  
     393A      1.880202   394A      1.882088   395A      1.888204  
     396A      1.894617   397A      1.896699   398A      1.907869  
     399A      1.908231   400A      1.912233   401A      1.915953  
     402A      1.924954   403A      1.926604   404A      1.944735  
     405A      1.946396   406A      1.957931   407A      1.963552  
     408A      1.980498   409A      1.982822   410A      1.991017  
     411A      2.003784   412A      2.005553   413A      2.018871  
     414A      2.020825   415A      2.030643   416A      2.051701  
     417A      2.066117   418A      2.071496   419A      2.081845  
     420A      2.086203   421A      2.102118   422A      2.109857  
     423A      2.123001   424A      2.133017   425A      2.146266  
     426A      2.147816   427A      2.152267   428A      2.157455  
     429A      2.162944   430A      2.177649   431A      2.190046  
     432A      2.190224   433A      2.200425   434A      2.211052  
     435A      2.221080   436A      2.238109   437A      2.238526  
     438A      2.249181   439A      2.261381   440A      2.270359  
     441A      2.271515   442A      2.279191   443A      2.286148  
     444A      2.295920   445A      2.297397   446A      2.306997  
     447A      2.321621   448A      2.321725   449A      2.345203  
     450A      2.345459   451A      2.360847   452A      2.368838  
[...]
    1205A      7.196806  1206A      7.228661  1207A      7.242488  
    1208A      7.246852  1209A      7.255898  1210A      7.257826  
    1211A      7.270049  1212A      7.279964  1213A      7.288849  
    1214A      7.291792  1215A      7.305686  1216A      7.312546  
    1217A      7.339102  1218A      7.353358  1219A      7.357167  
    1220A      7.368262  1221A      7.378398  1222A      7.381531  
    1223A      7.391768  1224A      7.393231  1225A      7.406918  
    1226A      7.419108  1227A      7.425158  1228A      7.443671  
    1229A      7.457002  1230A      7.483280  1231A      7.494100  
    1232A      7.513465  1233A      7.519077  1234A      7.529657  
    1235A      7.535802  1236A      7.548404  1237A      7.580842  
    1238A      7.590031  1239A      7.592030  1240A      7.605617  
    1241A      7.607574  1242A      7.614390  1243A      7.644295  
    1244A      7.658696  1245A      7.670834  1246A      7.681147  
    1247A      7.688304  1248A      7.713478  1249A      7.729023  
    1250A      7.732170  1251A      7.742104  1252A      7.743880  
    1253A      7.776057  1254A      7.783146  1255A      7.788706  
    1256A      7.791519  1257A      7.809330  1258A      7.810986  
    1259A      7.822299  1260A      7.831047  1261A      7.845129  
    1262A      7.856552  1263A      7.873207  1264A      7.895960  
    1265A      7.912367  1266A      7.913052  1267A      7.930595  
    1268A      7.938676  1269A      7.950280  1270A      7.951494  
    1271A      7.973681  1272A      7.985261  1273A      7.995552  
    1274A      8.006046  1275A      8.040671  1276A      8.054042  
    1277A      8.059990  1278A      8.065444  1279A      8.073700  
    1280A      8.088106  1281A      8.109336  1282A      8.112013  
    1283A      8.128557  1284A      8.137584  1285A      8.177773  
    1286A      8.191896  1287A      8.198985  1288A      8.208884  
    1289A      8.212544  1290A      8.241235  1291A      8.259064  
    1292A      8.286941  1293A      8.311096  1294A      8.329080  
    1295A      8.343475  1296A      8.357960  1297A      8.374202  
    1298A      8.384624  1299A      8.388686  1300A      8.395678  
    1301A      8.437471  1302A      8.459514  1303A      8.485629  
    1304A      8.486235  1305A      8.494337  1306A      8.513645  
    1307A      8.518069  1308A      8.519031  1309A      8.535938  
    1310A      8.545942  1311A      8.565656  1312A      8.579042  
    1313A      8.595590  1314A      8.606420  1315A      8.611825  
    1316A      8.628743  1317A      8.632594  1318A      8.637621  
    1319A      8.644280  1320A      8.659179  1321A      8.671661  
    1322A      8.671704  1323A      8.688880  1324A      8.692800  
    1325A      8.702524  1326A      8.710016  1327A      8.712764  
    1328A      8.736408  1329A      8.749863  1330A      8.765175  
    1331A      8.774187  1332A      8.791518  1333A      8.803836  
    1334A      8.806681  1335A      8.840371  1336A      8.848728  
    1337A      8.856949  1338A      8.865394  1339A      8.878790  
    1340A      8.909585  1341A      8.911823  1342A      8.926779  
    1343A      8.934786  1344A      8.942105  1345A      8.952454  
    1346A      8.965048  1347A      8.973399  1348A      9.002597  
    1349A      9.028795  1350A      9.041086  1351A      9.050037  
    1352A      9.060278  1353A      9.079939  1354A      9.093227  
    1355A      9.108472  1356A      9.127739  1357A      9.134501  
    1358A      9.148994  1359A      9.162676  1360A      9.167431  
    1361A      9.171897  1362A      9.176474  1363A      9.192638  
    1364A      9.212086  1365A      9.233558  1366A      9.257183  
    1367A      9.263908  1368A      9.275410  1369A      9.279288  
    1370A      9.302212  1371A      9.305938  1372A      9.309381  
    1373A      9.324409  1374A      9.341624  1375A      9.347891  
    1376A      9.361895  1377A      9.377131  1378A      9.383072  
    1379A      9.392501  1380A      9.413109  1381A      9.425894  
    1382A      9.428598  1383A      9.437217  1384A      9.452689  
    1385A      9.490727  1386A      9.514954  1387A      9.532125  
    1388A      9.537034  1389A      9.550561  1390A      9.553429  
    1391A      9.556867  1392A      9.577812  1393A      9.602469  
    1394A      9.620761  1395A      9.623046  1396A      9.626862  
    1397A      9.628015  1398A      9.646407  1399A      9.683685  
    1400A      9.699409  1401A      9.712837  1402A      9.715219  
    1403A      9.732773  1404A      9.756326  1405A      9.769340  
    1406A      9.778216  1407A      9.788751  1408A      9.793969  
    1409A      9.817443  1410A      9.824123  1411A      9.867684  
    1412A      9.907289  1413A      9.909072  1414A      9.942059  
    1415A      9.942706  1416A      9.952853  1417A      9.967396  
    1418A      9.970862  1419A      9.988374  1420A     10.005416  
    1421A     10.027086  1422A     10.031599  1423A     10.033940  
    1424A     10.034447  1425A     10.062979  1426A     10.063895  
    1427A     10.080556  1428A     10.085635  1429A     10.103652  
    1430A     10.111746  1431A     10.121519  1432A     10.144349  
    1433A     10.176654  1434A     10.179162  1435A     10.183004  
    1436A     10.192843  1437A     10.206642  1438A     10.229246  
    1439A     10.233028  1440A     10.248266  1441A     10.261440  
    1442A     10.263937  1443A     10.280323  1444A     10.285140  
    1445A     10.290192  1446A     10.315652  1447A     10.346148  
    1448A     10.361828  1449A     10.390527  1450A     10.407269  
    1451A     10.439961  1452A     10.480497  1453A     10.497141  
    1454A     10.526317  1455A     10.589140  1456A     10.592175  
    1457A     10.605409  1458A     10.611130  1459A     10.652185  
    1460A     10.690384  1461A     10.703717  1462A     10.713687  
    1463A     10.723152  1464A     10.727249  1465A     10.746952  
    1466A     10.750431  1467A     10.777285  1468A     10.790964  
    1469A     10.814534  1470A     10.818773  1471A     10.829994  
    1472A     10.843068  1473A     10.854116  1474A     10.862932  
    1475A     10.864819  1476A     10.876003  1477A     10.885058  
    1478A     10.885154  1479A     10.905475  1480A     10.918681  
    1481A     10.975456  1482A     10.996314  1483A     11.015162  
    1484A     11.036337  1485A     11.097876  1486A     11.116142  
    1487A     11.143742  1488A     11.148981  1489A     11.150233  
    1490A     11.178928  1491A     11.187306  1492A     11.188189  
    1493A     11.207299  1494A     11.209068  1495A     11.240958  
    1496A     11.253395  1497A     11.260136  1498A     11.279305  
    1499A     11.292583  1500A     11.309015  1501A     11.317090  
    1502A     11.352462  1503A     11.364418  1504A     11.375101  
    1505A     11.396023  1506A     11.401123  1507A     11.413983  
    1508A     11.438927  1509A     11.451033  1510A     11.478856  
    1511A     11.479383  1512A     11.494555  1513A     11.501242  
    1514A     11.509019  1515A     11.511592  1516A     11.519942  
    1517A     11.529233  1518A     11.552019  1519A     11.560253  
    1520A     11.572130  1521A     11.595020  1522A     11.599185  
    1523A     11.612188  1524A     11.619230  1525A     11.631656  
    1526A     11.640553  1527A     11.653340  1528A     11.697027  
    1529A     11.702354  1530A     11.730602  1531A     11.739556  
    1532A     11.783745  1533A     11.802693  1534A     11.841914  
    1535A     11.906322  1536A     11.912634  1537A     11.933537  
    1538A     11.967556  1539A     11.998751  1540A     12.024068  
    1541A     12.025454  1542A     12.072325  1543A     12.097071  
    1544A     12.109028  1545A     12.135700  1546A     12.152561  
    1547A     12.161758  1548A     12.177341  1549A     12.191599  
    1550A     12.195118  1551A     12.212907  1552A     12.227136  
    1553A     12.229031  1554A     12.245426  1555A     12.281241  
    1556A     12.310252  1557A     12.315204  1558A     12.325588  
    1559A     12.349881  1560A     12.377470  1561A     12.387104  
    1562A     12.421622  1563A     12.467987  1564A     12.479729  
    1565A     12.514444  1566A     12.526118  1567A     12.582591  
    1568A     12.592622  1569A     12.608237  1570A     12.621175  
    1571A     12.663987  1572A     12.674310  1573A     12.688660  
    1574A     12.736069  1575A     12.753777  1576A     12.795093  
    1577A     12.821032  1578A     12.836641  1579A     12.856497  
    1580A     12.862846  1581A     12.875593  1582A     12.880827  
    1583A     12.915346  1584A     12.950810  1585A     12.959931  
    1586A     12.966415  1587A     13.018648  1588A     13.035311  
    1589A     13.269294  1590A     13.282097  1591A     13.295566  
    1592A     13.301617  1593A     13.361404  1594A     13.375099  
    1595A     13.415665  1596A     13.432123  1597A     13.439101  
    1598A     13.475257  1599A     13.483925  1600A     13.502958  
    1601A     13.524100  1602A     13.536656  1603A     13.563562  
    1604A     13.599675  1605A     13.613868  1606A     13.674169  
    1607A     13.686628  1608A     13.689794  1609A     13.867664  
    1610A     13.953707  1611A     14.019963  1612A     14.031436  
    1613A     14.064715  1614A     14.100878  1615A     14.105178  
    1616A     14.129373  1617A     14.310914  1618A     14.323491  
    1619A     14.392384  1620A     14.395759  1621A     14.817930  
    1622A     14.853028  1623A     14.951383  1624A     14.966798  
    1625A     15.180130  1626A     15.192355  1627A     15.300107  
    1628A     15.324198  1629A     15.353187  1630A     15.383001  
    1631A     15.626853  1632A     15.726260  1633A     26.485935  
    1634A     26.612563  1635A     26.695291  1636A     26.770448  
    1637A     26.869747  1638A     26.890786  1639A     27.256166  
    1640A     27.315832  1641A     35.162734  1642A     35.237766  
    1643A     35.370316  1644A     35.376129  1645A     44.490378  
    1646A     44.598635  1647A     45.006811  1648A     45.111690  

    Final Occupation by Irrep:
              A 
    DOCC [    58 ]

  @DF-RHF Final Energy:  -825.31719872627809

   => Energetics <=

    Nuclear Repulsion Energy =           1040.0050771896121660
    One-Electron Energy =               -3193.2804626435445243
    Two-Electron Energy =                1327.9581867276542653
    Total Energy =                       -825.3171987262780931

Computation Completed


Properties will be evaluated at   0.000000,   0.000000,   0.000000 [a0]

Properties computed using the SCF density matrix

  Nuclear Dipole Moment: [e a0]
     X:    -5.4475      Y:    -3.5881      Z:    -0.0039

  Electronic Dipole Moment: [e a0]
     X:     2.0565      Y:     2.7568      Z:     0.0022

  Dipole Moment: [e a0]
     X:    -3.3910      Y:    -0.8313      Z:    -0.0017     Total:     3.4914

  Dipole Moment: [D]
     X:    -8.6191      Y:    -2.1128      Z:    -0.0043     Total:     8.8743


*** tstop() called on g2-node38.bme.utexas.edu at Sat Apr 11 20:37:47 2020
Module time:
	user time   =    5909.25 seconds =      98.49 minutes
	system time =      46.87 seconds =       0.78 minutes
	total time  =        799 seconds =      13.32 minutes
Total time:
	user time   =   23573.50 seconds =     392.89 minutes
	system time =     294.68 seconds =       4.91 minutes
	total time  =       3480 seconds =      58.00 minutes

*** tstart() called on g2-node38.bme.utexas.edu
*** at Sat Apr 11 20:37:47 2020


  //>>>>>>>>>>>>>>>>>>>>>>>>>>>>>>>>>>>//
  //               DFMP2               //
  //<<<<<<<<<<<<<<<<<<<<<<<<<<<<<<<<<<<//

   => Loading Basis Set <=

    Name: (AUG-CC-PVQZ AUX)
    Role: RIFIT
    Keyword: DF_BASIS_MP2
    atoms 1, 9, 13, 21                entry N          line   258 file /home/liuchw/anaconda3/envs/psi4env/share/psi4/basis/aug-cc-pvqz-ri.gbs 
    atoms 2, 6, 8, 10, 14, 18, 20, 22 entry H          line    30 file /home/liuchw/anaconda3/envs/psi4env/share/psi4/basis/aug-cc-pvqz-ri.gbs 
    atoms 3, 5, 7, 11, 15, 17, 19, 23 entry C          line   184 file /home/liuchw/anaconda3/envs/psi4env/share/psi4/basis/aug-cc-pvqz-ri.gbs 
    atoms 4, 12, 16, 24               entry O          line   332 file /home/liuchw/anaconda3/envs/psi4env/share/psi4/basis/aug-cc-pvqz-ri.gbs 

	 --------------------------------------------------------
	                          DF-MP2                         
	      2nd-Order Density-Fitted Moller-Plesset Theory     
	              RMP2 Wavefunction,   8 Threads             
	                                                         
	        Rob Parrish, Justin Turney, Andy Simmonett,      
	           Ed Hohenstein, and C. David Sherrill          
	 --------------------------------------------------------

   => Auxiliary Basis Set <=

  Basis Set: (AUG-CC-PVQZ AUX)
    Blend: AUG-CC-PVQZ-RI
    Number of shells: 736
    Number of basis function: 3328
    Number of Cartesian functions: 4632
    Spherical Harmonics?: true
    Max angular momentum: 5

	 --------------------------------------------------------
	                 NBF =  1648, NAUX =  3328
	 --------------------------------------------------------
	   CLASS    FOCC     OCC    AOCC    AVIR     VIR    FVIR
	   PAIRS       0      58      58    1590    1590       0
	 --------------------------------------------------------

	-----------------------------------------------------------
	 ==================> DF-MP2 Energies <==================== 
	-----------------------------------------------------------
	 Reference Energy          =    -825.3171987262780931 [Eh]
	 Singles Energy            =      -0.0000000000000000 [Eh]
	 Same-Spin Energy          =      -0.8842774341701519 [Eh]
	 Opposite-Spin Energy      =      -2.7812497037030619 [Eh]
	 Correlation Energy        =      -3.6655271378732137 [Eh]
	 Total Energy              =    -828.9827258641513481 [Eh]
	-----------------------------------------------------------
	 ================> DF-SCS-MP2 Energies <================== 
	-----------------------------------------------------------
	 SCS Same-Spin Scale       =       0.3333333333333333 [-]
	 SCS Opposite-Spin Scale   =       1.2000000000000000 [-]
	 SCS Same-Spin Energy      =      -0.2947591447233839 [Eh]
	 SCS Opposite-Spin Energy  =      -3.3374996444436742 [Eh]
	 SCS Correlation Energy    =      -3.6322587891670581 [Eh]
	 SCS Total Energy          =    -828.9494575154451468 [Eh]
	-----------------------------------------------------------


*** tstop() called on g2-node38.bme.utexas.edu at Sat Apr 11 20:44:41 2020
Module time:
	user time   =    2575.21 seconds =      42.92 minutes
	system time =      33.04 seconds =       0.55 minutes
	total time  =        414 seconds =       6.90 minutes
Total time:
	user time   =   26148.71 seconds =     435.81 minutes
	system time =     327.72 seconds =       5.46 minutes
	total time  =       3894 seconds =      64.90 minutes

  //>>>>>>>>>>>>>>>>>>>>>>>>>>>>>>>>>>>//
  //  CBS Results: mp2/aug-cc-pv[tq]z  //
  //<<<<<<<<<<<<<<<<<<<<<<<<<<<<<<<<<<<//


   ==> HF <==

   HI-zeta (4) Energy:               -825.317198726278


   ==> Helgaker 2-point correlated extrapolation for method: MP2 <==

   LO-zeta (3) Energy:               -828.562246684013
   HI-zeta (4) Energy:               -828.982725864151
   Alpha (exponent) Value:             3.000000000000
   Extrapolated Energy:              -829.289562022631

   @Extrapolated MP2/(T,Q):          -829.289562022631



   ==> Helgaker 2-point correlated extrapolation for method: HF <==

   LO-zeta (3) Energy:               -825.266531103077
   HI-zeta (4) Energy:               -825.317198726278
   Alpha (exponent) Value:             3.000000000000
   Extrapolated Energy:              -825.354172397263

   @Extrapolated HF/(T,Q):           -825.354172397263


   ==> Components <==

  ---------------------------------------------------------------------------------------------------------
                          Method / Basis                      Rqd      Energy [Eh]   Variable
  ---------------------------------------------------------------------------------------------------------
                              hf / aug-cc-pvtz                  *    -825.26653110   HF TOTAL ENERGY
                             mp2 / aug-cc-pvtz                  *    -828.56224668   MP2 TOTAL ENERGY
                              hf / aug-cc-pvqz                  *    -825.31719873   HF TOTAL ENERGY
                             mp2 / aug-cc-pvqz                  *    -828.98272586   MP2 TOTAL ENERGY
  ---------------------------------------------------------------------------------------------------------

   ==> Stages <==

  ---------------------------------------------------------------------------------------------------------
      Stage               Method / Basis                       Wt      Energy [Eh]   Scheme
  ---------------------------------------------------------------------------------------------------------
        scf                   hf / aug-cc-pvqz                  1    -825.31719873   xtpl_highest_1
       corl                  mp2 / aug-cc-pv[tq]z               1    -829.28956202   corl_xtpl_helgaker_2
       corl                   hf / aug-cc-pv[tq]z              -1    -825.35417240   corl_xtpl_helgaker_2
  ---------------------------------------------------------------------------------------------------------

   ==> CBS <==

  ---------------------------------------------------------------------------------------------------------
      Stage               Method / Basis                               Energy [Eh]   Scheme
  ---------------------------------------------------------------------------------------------------------
        scf                   hf / aug-cc-pvqz                       -825.31719873   xtpl_highest_1
       corl                  mp2 / aug-cc-pv[tq]z                      -3.93538963   corl_xtpl_helgaker_2
      total                  CBS                                     -829.25258835   
  ---------------------------------------------------------------------------------------------------------
   => Loading Basis Set <=

    Name: DEF2-SVP
    Role: ORBITAL
    Keyword: BASIS
    atoms 1, 9, 13, 21                entry N          line   110 file /home/liuchw/anaconda3/envs/psi4env/share/psi4/basis/def2-svp.gbs 
    atoms 2, 6, 8, 10, 14, 18, 20, 22 entry H          line    15 file /home/liuchw/anaconda3/envs/psi4env/share/psi4/basis/def2-svp.gbs 
    atoms 3, 5, 7, 11, 15, 17, 19, 23 entry C          line    90 file /home/liuchw/anaconda3/envs/psi4env/share/psi4/basis/def2-svp.gbs 
    atoms 4, 12, 16, 24               entry O          line   130 file /home/liuchw/anaconda3/envs/psi4env/share/psi4/basis/def2-svp.gbs 


       N-Body: Complex Energy (fragments = (1, 2), basis = (1, 2):  -829.25258835164561)

   ==> N-Body: Counterpoise Corrected (CP) energies <==

   n-Body     Total Energy [Eh]       I.E. [kcal/mol]      Delta [kcal/mol]
        1     -829.226497699182        0.000000000000        0.000000000000
        2     -829.253979180756      -17.244890041199      -17.244890041199

   => Loading Basis Set <=

    Name: DEF2-SVP
    Role: ORBITAL
    Keyword: BASIS
    atoms 1, 9, 13, 21                entry N          line   110 file /home/liuchw/anaconda3/envs/psi4env/share/psi4/basis/def2-svp.gbs 
    atoms 2, 6, 8, 10, 14, 18, 20, 22 entry H          line    15 file /home/liuchw/anaconda3/envs/psi4env/share/psi4/basis/def2-svp.gbs 
    atoms 3, 5, 7, 11, 15, 17, 19, 23 entry C          line    90 file /home/liuchw/anaconda3/envs/psi4env/share/psi4/basis/def2-svp.gbs 
    atoms 4, 12, 16, 24               entry O          line   130 file /home/liuchw/anaconda3/envs/psi4env/share/psi4/basis/def2-svp.gbs 


    Psi4 stopped on: Saturday, 11 April 2020 08:44PM
    Psi4 wall time for execution: 1:04:55.92

*** Psi4 exiting successfully. Buy a developer a beer!
