
    -----------------------------------------------------------------------
          Psi4: An Open-Source Ab Initio Electronic Structure Package
                               Psi4 1.4a2.dev224 

                         Git: Rev {master} e453b16 


    R. M. Parrish, L. A. Burns, D. G. A. Smith, A. C. Simmonett,
    A. E. DePrince III, E. G. Hohenstein, U. Bozkaya, A. Yu. Sokolov,
    R. Di Remigio, R. M. Richard, J. F. Gonthier, A. M. James,
    H. R. McAlexander, A. Kumar, M. Saitow, X. Wang, B. P. Pritchard,
    P. Verma, H. F. Schaefer III, K. Patkowski, R. A. King, E. F. Valeev,
    F. A. Evangelista, J. M. Turney, T. D. Crawford, and C. D. Sherrill,
    J. Chem. Theory Comput. 13(7) pp 3185--3197 (2017).
    (doi: 10.1021/acs.jctc.7b00174)


                         Additional Contributions by
    P. Kraus, H. Kruse, M. H. Lechner, M. C. Schieber, R. A. Shaw,
    A. Alenaizan, R. Galvelis, Z. L. Glick, S. Lehtola, and J. P. Misiewicz

    -----------------------------------------------------------------------


    Psi4 started on: Thursday, 23 April 2020 06:46PM

    Process ID: 85145
    Host:       node50.bme.utexas.edu
    PSIDATADIR: /home/liuchw/anaconda3/envs/psi4env/share/psi4
    Memory:     500.0 MiB
    Threads:    8
    
  ==> Input File <==

--------------------------------------------------------------------------
#Generated by lconvert.py for cbs job

memory 20 GB

molecule  {
0 1
  O      -0.552830   -0.101700   -0.000500
  H      -0.871760    0.801790    0.000140
  H       0.412660   -0.001830   -0.000250
--
0 1
  N       3.003640    0.128900    0.000280
  C       3.699550    0.094920    1.145030
  H       3.114870    0.118540    2.055890
  C       5.088570    0.029740    1.195020
  H       5.594480    0.004890    2.149350
  C       5.799730   -0.003380    0.000110
  H       6.879570   -0.055160    0.000030
  C       5.088420    0.029670   -1.194690
  H       5.594220    0.004800   -2.149090
  C       3.699390    0.094870   -1.144540
  H       3.114630    0.118470   -2.055340
units angstrom
no_reorient
symmetry c1
}

set {
scf_type DF
mp2_type DF
e_convergence 7
reference rhf
}

energy('mp2/aug-cc-pv[tq]z', bsse_type='cp')
--------------------------------------------------------------------------

  Memory set to  18.626 GiB by Python driver.

Scratch directory: /scratch/liuchw/


   ===> N-Body Interaction Abacus <===
        BSSE Treatment:                     cp
        Number of 1-body computations:     4
        Number of 2-body computations:     1

   ==> N-Body: Now computing 1-body complexes <==


       N-Body: Computing complex (1/4) with fragments (2,) in the basis of fragments (2,).


Scratch directory: /scratch/liuchw/

  //>>>>>>>>>>>>>>>>>>>>>>>>>>>>>>>>>>>//
  //   CBS Setup: mp2/aug-cc-pv[tq]z   //
  //<<<<<<<<<<<<<<<<<<<<<<<<<<<<<<<<<<<//

    Naive listing of computations required.
             hf / aug-cc-pvqz              for  HF TOTAL ENERGY
            mp2 / aug-cc-pvtz              for  MP2 TOTAL ENERGY
            mp2 / aug-cc-pvqz              for  MP2 TOTAL ENERGY
             hf / aug-cc-pvtz              for  HF TOTAL ENERGY
             hf / aug-cc-pvqz              for  HF TOTAL ENERGY

    Enlightened listing of computations required.
            mp2 / aug-cc-pvtz              for  MP2 TOTAL ENERGY
            mp2 / aug-cc-pvqz              for  MP2 TOTAL ENERGY

    Full listing of computations to be obtained (required and bonus).
             hf / aug-cc-pvtz              for  HF TOTAL ENERGY
            mp2 / aug-cc-pvtz              for  MP2 TOTAL ENERGY
             hf / aug-cc-pvqz              for  HF TOTAL ENERGY
            mp2 / aug-cc-pvqz              for  MP2 TOTAL ENERGY

  //>>>>>>>>>>>>>>>>>>>>>>>>>>>>>>>>>>>>//
  // CBS Computation: MP2 / AUG-CC-PVTZ //
  //<<<<<<<<<<<<<<<<<<<<<<<<<<<<<<<<<<<<//


Scratch directory: /scratch/liuchw/

*** tstart() called on node50.bme.utexas.edu
*** at Thu Apr 23 18:46:07 2020

   => Loading Basis Set <=

    Name: AUG-CC-PVTZ
    Role: ORBITAL
    Keyword: BASIS
    atoms 1              entry N          line   285 file /home/liuchw/anaconda3/envs/psi4env/share/psi4/basis/aug-cc-pvtz.gbs 
    atoms 2, 4, 6, 8, 10 entry C          line   239 file /home/liuchw/anaconda3/envs/psi4env/share/psi4/basis/aug-cc-pvtz.gbs 
    atoms 3, 5, 7, 9, 11 entry H          line    40 file /home/liuchw/anaconda3/envs/psi4env/share/psi4/basis/aug-cc-pvtz.gbs 


         ---------------------------------------------------------
                                   SCF
               by Justin Turney, Rob Parrish, Andy Simmonett
                          and Daniel G. A. Smith
                              RHF Reference
                        8 Threads,  19073 MiB Core
         ---------------------------------------------------------

  ==> Geometry <==

    Molecular point group: c1
    Full point group: C1

    Geometry (in Angstrom), charge = 0, multiplicity = 1:

       Center              X                  Y                   Z               Mass       
    ------------   -----------------  -----------------  -----------------  -----------------
         N           -0.476434544172     0.086372494568     0.000199434384    14.003074004430
         C            0.219475455828     0.052392494568     1.144949434384    12.000000000000
         H           -0.365204544172     0.076012494568     2.055809434384     1.007825032230
         C            1.608495455828    -0.012787505432     1.194939434384    12.000000000000
         H            2.114405455828    -0.037637505432     2.149269434384     1.007825032230
         C            2.319655455828    -0.045907505432     0.000029434384    12.000000000000
         H            3.399495455828    -0.097687505432    -0.000050565616     1.007825032230
         C            1.608345455828    -0.012857505432    -1.194770565616    12.000000000000
         H            2.114145455828    -0.037727505432    -2.149170565616     1.007825032230
         C            0.219315455828     0.052342494568    -1.144620565616    12.000000000000
         H           -0.365444544172     0.075942494568    -2.055420565616     1.007825032230

  Running in c1 symmetry.

  Rotational constants: A =      0.20135  B =      0.11080  C =      0.07158 [cm^-1]
  Rotational constants: A =   6036.31323  B =   3321.76483  C =   2145.90680 [MHz]
  Nuclear repulsion =  206.285600193522896

  Charge       = 0
  Multiplicity = 1
  Electrons    = 42
  Nalpha       = 21
  Nbeta        = 21

  ==> Algorithm <==

  SCF Algorithm Type is DF.
  DIIS enabled.
  MOM disabled.
  Fractional occupation disabled.
  Guess Type is SAD.
  Energy threshold   = 1.00e-07
  Density threshold  = 1.00e-08
  Integral threshold = 0.00e+00

  ==> Primary Basis <==

  Basis Set: AUG-CC-PVTZ
    Blend: AUG-CC-PVTZ
    Number of shells: 129
    Number of basis function: 391
    Number of Cartesian functions: 455
    Spherical Harmonics?: true
    Max angular momentum: 3

   => Loading Basis Set <=

    Name: (AUG-CC-PVTZ AUX)
    Role: JKFIT
    Keyword: DF_BASIS_SCF
    atoms 1              entry N          line   224 file /home/liuchw/anaconda3/envs/psi4env/share/psi4/basis/aug-cc-pvtz-jkfit.gbs 
    atoms 2, 4, 6, 8, 10 entry C          line   162 file /home/liuchw/anaconda3/envs/psi4env/share/psi4/basis/aug-cc-pvtz-jkfit.gbs 
    atoms 3, 5, 7, 9, 11 entry H          line    70 file /home/liuchw/anaconda3/envs/psi4env/share/psi4/basis/aug-cc-pvtz-jkfit.gbs 

  ==> Pre-Iterations <==

   -------------------------------------------------------
    Irrep   Nso     Nmo     Nalpha   Nbeta   Ndocc  Nsocc
   -------------------------------------------------------
     A        391     391       0       0       0       0
   -------------------------------------------------------
    Total     391     391      21      21      21       0
   -------------------------------------------------------

  ==> Integral Setup <==

  DFHelper Memory: AOs need 1.009 GiB; user supplied 13.970 GiB. Using in-core AOs.

  ==> MemDFJK: Density-Fitted J/K Matrices <==

    J tasked:                   Yes
    K tasked:                   Yes
    wK tasked:                   No
    OpenMP threads:               8
    Memory [MiB]:             14305
    Algorithm:                 Core
    Schwarz Cutoff:           1E-12
    Mask sparsity (%):       0.8883
    Fitting Condition:        1E-10

   => Auxiliary Basis Set <=

  Basis Set: (AUG-CC-PVTZ AUX)
    Blend: AUG-CC-PVTZ-JKFIT
    Number of shells: 250
    Number of basis function: 854
    Number of Cartesian functions: 1061
    Spherical Harmonics?: true
    Max angular momentum: 4

  Minimum eigenvalue in the overlap matrix is 2.3281500001E-06.
  Using Symmetric Orthogonalization.

  SCF Guess: Superposition of Atomic Densities via on-the-fly atomic UHF.

  ==> Iterations <==

                           Total Energy        Delta E     RMS |[F,P]|

   @DF-RHF iter SAD:  -246.16084682083718   -2.46161e+02   0.00000e+00 
   @DF-RHF iter   1:  -246.63287951062568   -4.72033e-01   1.26344e-03 DIIS
   @DF-RHF iter   2:  -246.75310870688676   -1.20229e-01   5.80936e-04 DIIS
   @DF-RHF iter   3:  -246.77727353053450   -2.41648e-02   1.12252e-04 DIIS
   @DF-RHF iter   4:  -246.77865925104675   -1.38572e-03   3.33450e-05 DIIS
   @DF-RHF iter   5:  -246.77874205973930   -8.28087e-05   1.07314e-05 DIIS
   @DF-RHF iter   6:  -246.77875267278353   -1.06130e-05   2.46423e-06 DIIS
   @DF-RHF iter   7:  -246.77875344174998   -7.68966e-07   8.74540e-07 DIIS
   @DF-RHF iter   8:  -246.77875354189905   -1.00149e-07   3.71402e-07 DIIS
   @DF-RHF iter   9:  -246.77875357275332   -3.08543e-08   1.09296e-07 DIIS
   @DF-RHF iter  10:  -246.77875357685190   -4.09858e-09   4.01541e-08 DIIS
   @DF-RHF iter  11:  -246.77875357759672   -7.44819e-10   2.40039e-08 DIIS
   @DF-RHF iter  12:  -246.77875357778782   -1.91108e-10   6.82794e-09 DIIS
  Energy and wave function converged.


  ==> Post-Iterations <==

    Orbital Energies [Eh]
    ---------------------

    Doubly Occupied:                                                      

       1A    -15.566716     2A    -11.275247     3A    -11.275230  
       4A    -11.260482     5A    -11.242475     6A    -11.242422  
       7A     -1.256674     8A     -1.089784     9A     -1.034704  
      10A     -0.859696    11A     -0.856458    12A     -0.722528  
      13A     -0.660932    14A     -0.654809    15A     -0.599655  
      16A     -0.577309    17A     -0.541453    18A     -0.521022  
      19A     -0.418641    20A     -0.383865    21A     -0.348536  

    Virtual:                                                              

      22A      0.026159    23A      0.033282    24A      0.037745  
      25A      0.048794    26A      0.053301    27A      0.077827  
      28A      0.091151    29A      0.100351    30A      0.101937  
      31A      0.104069    32A      0.108688    33A      0.109266  
      34A      0.110358    35A      0.116568    36A      0.118792  
      37A      0.129015    38A      0.130997    39A      0.141783  
      40A      0.148439    41A      0.150952    42A      0.152000  
      43A      0.157319    44A      0.158530    45A      0.196839  
      46A      0.223514    47A      0.240948    48A      0.242680  
      49A      0.243817    50A      0.254347    51A      0.256720  
      52A      0.270130    53A      0.272432    54A      0.285291  
      55A      0.291363    56A      0.292448    57A      0.304026  
      58A      0.306055    59A      0.321954    60A      0.326899  
      61A      0.334579    62A      0.339961    63A      0.341629  
      64A      0.352385    65A      0.354019    66A      0.373435  
      67A      0.384863    68A      0.400198    69A      0.409590  
      70A      0.419193    71A      0.429172    72A      0.432916  
      73A      0.433028    74A      0.439685    75A      0.441430  
      76A      0.451741    77A      0.460384    78A      0.464966  
      79A      0.471200    80A      0.476239    81A      0.480647  
      82A      0.490625    83A      0.493671    84A      0.496811  
      85A      0.510522    86A      0.523521    87A      0.535399  
      88A      0.541718    89A      0.542112    90A      0.544096  
      91A      0.561558    92A      0.589778    93A      0.614744  
      94A      0.615983    95A      0.620760    96A      0.625592  
      97A      0.634679    98A      0.648719    99A      0.650971  
     100A      0.651916   101A      0.672079   102A      0.696077  
     103A      0.710331   104A      0.713609   105A      0.732778  
     106A      0.739889   107A      0.767832   108A      0.771442  
     109A      0.775524   110A      0.779262   111A      0.794297  
     112A      0.801156   113A      0.816249   114A      0.834120  
     115A      0.836310   116A      0.845522   117A      0.849208  
     118A      0.863498   119A      0.882258   120A      0.883276  
     121A      0.885724   122A      0.887738   123A      0.903172  
     124A      0.925671   125A      0.931245   126A      0.937340  
     127A      0.949487   128A      0.953465   129A      0.955645  
     130A      0.959922   131A      0.986112   132A      0.989466  
     133A      1.006321   134A      1.007366   135A      1.014578  
     136A      1.041086   137A      1.044761   138A      1.064413  
     139A      1.070715   140A      1.071805   141A      1.074826  
     142A      1.081226   143A      1.086829   144A      1.088753  
     145A      1.111836   146A      1.113131   147A      1.141265  
     148A      1.152604   149A      1.168584   150A      1.170672  
     151A      1.176469   152A      1.184770   153A      1.186926  
     154A      1.186975   155A      1.195441   156A      1.197964  
     157A      1.209592   158A      1.222425   159A      1.226557  
     160A      1.240043   161A      1.267982   162A      1.275231  
     163A      1.281060   164A      1.287872   165A      1.291710  
     166A      1.297503   167A      1.351190   168A      1.374509  
     169A      1.403094   170A      1.424288   171A      1.443720  
     172A      1.446379   173A      1.460482   174A      1.495990  
     175A      1.504330   176A      1.510612   177A      1.518538  
     178A      1.537217   179A      1.540752   180A      1.587153  
     181A      1.597568   182A      1.629527   183A      1.630997  
     184A      1.669377   185A      1.687159   186A      1.693829  
     187A      1.708479   188A      1.713538   189A      1.717336  
     190A      1.743662   191A      1.758276   192A      1.778982  
     193A      1.786359   194A      1.804485   195A      1.826496  
     196A      1.835853   197A      1.846794   198A      1.855179  
     199A      1.874079   200A      1.883140   201A      1.888314  
     202A      1.914192   203A      1.948647   204A      1.957700  
     205A      1.961748   206A      1.963872   207A      2.013669  
     208A      2.024179   209A      2.025577   210A      2.038675  
     211A      2.040424   212A      2.040475   213A      2.069937  
     214A      2.084862   215A      2.095223   216A      2.130549  
     217A      2.145358   218A      2.156539   219A      2.162383  
     220A      2.163804   221A      2.214950   222A      2.215687  
     223A      2.249663   224A      2.252337   225A      2.295542  
     226A      2.316698   227A      2.359166   228A      2.375737  
     229A      2.386857   230A      2.409029   231A      2.429554  
     232A      2.435496   233A      2.448528   234A      2.511703  
     235A      2.534422   236A      2.542152   237A      2.584550  
     238A      2.646768   239A      2.658536   240A      2.674102  
     241A      2.674835   242A      2.808086   243A      2.809019  
     244A      2.817188   245A      2.914481   246A      2.923421  
     247A      2.973481   248A      2.987455   249A      3.048045  
     250A      3.048422   251A      3.136204   252A      3.159700  
     253A      3.162173   254A      3.248676   255A      3.260451  
     256A      3.304248   257A      3.310481   258A      3.317413  
     259A      3.346089   260A      3.356215   261A      3.386163  
     262A      3.406848   263A      3.407551   264A      3.430080  
     265A      3.431458   266A      3.453840   267A      3.473584  
     268A      3.495079   269A      3.533876   270A      3.544133  
     271A      3.552084   272A      3.563715   273A      3.564807  
     274A      3.579755   275A      3.637508   276A      3.653684  
     277A      3.686257   278A      3.703833   279A      3.711831  
     280A      3.731778   281A      3.764441   282A      3.773445  
     283A      3.774159   284A      3.819953   285A      3.839925  
     286A      3.858985   287A      3.863716   288A      3.874926  
     289A      3.895298   290A      3.922154   291A      3.924373  
     292A      3.953239   293A      3.975569   294A      3.991086  
     295A      3.996082   296A      4.034438   297A      4.043845  
     298A      4.068448   299A      4.090103   300A      4.099762  
     301A      4.129022   302A      4.131483   303A      4.137773  
     304A      4.144365   305A      4.169897   306A      4.206428  
     307A      4.223878   308A      4.226743   309A      4.229434  
     310A      4.266289   311A      4.272830   312A      4.331258  
     313A      4.371033   314A      4.381644   315A      4.413537  
     316A      4.428681   317A      4.436257   318A      4.440635  
     319A      4.466920   320A      4.519900   321A      4.520947  
     322A      4.522571   323A      4.564197   324A      4.648559  
     325A      4.663775   326A      4.695609   327A      4.745146  
     328A      4.755850   329A      4.791188   330A      4.839216  
     331A      4.872102   332A      4.889854   333A      4.900736  
     334A      4.935497   335A      4.959039   336A      4.968161  
     337A      4.989121   338A      5.024317   339A      5.039115  
     340A      5.062754   341A      5.078844   342A      5.107439  
     343A      5.121032   344A      5.141856   345A      5.146156  
     346A      5.196728   347A      5.223693   348A      5.227094  
     349A      5.234296   350A      5.329967   351A      5.384499  
     352A      5.397698   353A      5.402948   354A      5.431224  
     355A      5.447489   356A      5.477706   357A      5.518390  
     358A      5.528035   359A      5.590152   360A      5.606318  
     361A      5.656292   362A      5.780403   363A      5.796126  
     364A      5.814296   365A      5.854295   366A      5.869262  
     367A      5.910771   368A      5.913043   369A      5.979333  
     370A      6.080787   371A      6.118866   372A      6.199022  
     373A      6.227525   374A      6.300906   375A      6.396046  
     376A      6.509849   377A      6.670363   378A      6.681064  
     379A      6.683757   380A      6.741252   381A      6.820274  
     382A      6.880760   383A      7.077918   384A      7.095830  
     385A      7.487819   386A     15.502103   387A     16.296989  
     388A     18.271431   389A     18.587804   390A     19.205638  
     391A     19.275502  

    Final Occupation by Irrep:
              A 
    DOCC [    21 ]

  @DF-RHF Final Energy:  -246.77875357778782

   => Energetics <=

    Nuclear Repulsion Energy =            206.2856001935228960
    One-Electron Energy =                -741.3514395629625824
    Two-Electron Energy =                 288.2870857916518617
    Total Energy =                       -246.7787535777878247

Computation Completed


Properties will be evaluated at   0.000000,   0.000000,   0.000000 [a0]

Properties computed using the SCF density matrix

  Nuclear Dipole Moment: [e a0]
     X:    74.4818      Y:     1.4789      Z:     0.0094

  Electronic Dipole Moment: [e a0]
     X:   -73.5717      Y:    -1.5250      Z:    -0.0095

  Dipole Moment: [e a0]
     X:     0.9101      Y:    -0.0461      Z:    -0.0001     Total:     0.9113

  Dipole Moment: [D]
     X:     2.3133      Y:    -0.1172      Z:    -0.0002     Total:     2.3162


*** tstop() called on node50.bme.utexas.edu at Thu Apr 23 18:46:13 2020
Module time:
	user time   =      40.90 seconds =       0.68 minutes
	system time =       1.09 seconds =       0.02 minutes
	total time  =          6 seconds =       0.10 minutes
Total time:
	user time   =      40.90 seconds =       0.68 minutes
	system time =       1.09 seconds =       0.02 minutes
	total time  =          6 seconds =       0.10 minutes

*** tstart() called on node50.bme.utexas.edu
*** at Thu Apr 23 18:46:13 2020


  //>>>>>>>>>>>>>>>>>>>>>>>>>>>>>>>>>>>//
  //               DFMP2               //
  //<<<<<<<<<<<<<<<<<<<<<<<<<<<<<<<<<<<//

   => Loading Basis Set <=

    Name: (AUG-CC-PVTZ AUX)
    Role: RIFIT
    Keyword: DF_BASIS_MP2
    atoms 1              entry N          line   206 file /home/liuchw/anaconda3/envs/psi4env/share/psi4/basis/aug-cc-pvtz-ri.gbs 
    atoms 2, 4, 6, 8, 10 entry C          line   148 file /home/liuchw/anaconda3/envs/psi4env/share/psi4/basis/aug-cc-pvtz-ri.gbs 
    atoms 3, 5, 7, 9, 11 entry H          line    30 file /home/liuchw/anaconda3/envs/psi4env/share/psi4/basis/aug-cc-pvtz-ri.gbs 

	 --------------------------------------------------------
	                          DF-MP2                         
	      2nd-Order Density-Fitted Moller-Plesset Theory     
	              RMP2 Wavefunction,   8 Threads             
	                                                         
	        Rob Parrish, Justin Turney, Andy Simmonett,      
	           Ed Hohenstein, and C. David Sherrill          
	 --------------------------------------------------------

   => Auxiliary Basis Set <=

  Basis Set: (AUG-CC-PVTZ AUX)
    Blend: AUG-CC-PVTZ-RI
    Number of shells: 238
    Number of basis function: 866
    Number of Cartesian functions: 1091
    Spherical Harmonics?: true
    Max angular momentum: 4

	 --------------------------------------------------------
	                 NBF =   391, NAUX =   866
	 --------------------------------------------------------
	   CLASS    FOCC     OCC    AOCC    AVIR     VIR    FVIR
	   PAIRS       0      21      21     370     370       0
	 --------------------------------------------------------

	-----------------------------------------------------------
	 ==================> DF-MP2 Energies <==================== 
	-----------------------------------------------------------
	 Reference Energy          =    -246.7787535777878247 [Eh]
	 Singles Energy            =      -0.0000000000000000 [Eh]
	 Same-Spin Energy          =      -0.2687949413659916 [Eh]
	 Opposite-Spin Energy      =      -0.8387699514259809 [Eh]
	 Correlation Energy        =      -1.1075648927919726 [Eh]
	 Total Energy              =    -247.8863184705797948 [Eh]
	-----------------------------------------------------------
	 ================> DF-SCS-MP2 Energies <================== 
	-----------------------------------------------------------
	 SCS Same-Spin Scale       =       0.3333333333333333 [-]
	 SCS Opposite-Spin Scale   =       1.2000000000000000 [-]
	 SCS Same-Spin Energy      =      -0.0895983137886639 [Eh]
	 SCS Opposite-Spin Energy  =      -1.0065239417111771 [Eh]
	 SCS Correlation Energy    =      -1.0961222554998409 [Eh]
	 SCS Total Energy          =    -247.8748758332876605 [Eh]
	-----------------------------------------------------------


*** tstop() called on node50.bme.utexas.edu at Thu Apr 23 18:46:16 2020
Module time:
	user time   =      19.03 seconds =       0.32 minutes
	system time =       0.58 seconds =       0.01 minutes
	total time  =          3 seconds =       0.05 minutes
Total time:
	user time   =      59.93 seconds =       1.00 minutes
	system time =       1.67 seconds =       0.03 minutes
	total time  =          9 seconds =       0.15 minutes

  //>>>>>>>>>>>>>>>>>>>>>>>>>>>>>>>>>>>>//
  // CBS Computation: MP2 / AUG-CC-PVQZ //
  //<<<<<<<<<<<<<<<<<<<<<<<<<<<<<<<<<<<<//


Scratch directory: /scratch/liuchw/

*** tstart() called on node50.bme.utexas.edu
*** at Thu Apr 23 18:46:16 2020

   => Loading Basis Set <=

    Name: AUG-CC-PVQZ
    Role: ORBITAL
    Keyword: BASIS
    atoms 1              entry N          line   363 file /home/liuchw/anaconda3/envs/psi4env/share/psi4/basis/aug-cc-pvqz.gbs 
    atoms 2, 4, 6, 8, 10 entry C          line   303 file /home/liuchw/anaconda3/envs/psi4env/share/psi4/basis/aug-cc-pvqz.gbs 
    atoms 3, 5, 7, 9, 11 entry H          line    40 file /home/liuchw/anaconda3/envs/psi4env/share/psi4/basis/aug-cc-pvqz.gbs 


         ---------------------------------------------------------
                                   SCF
               by Justin Turney, Rob Parrish, Andy Simmonett
                          and Daniel G. A. Smith
                              RHF Reference
                        8 Threads,  19073 MiB Core
         ---------------------------------------------------------

  ==> Geometry <==

    Molecular point group: c1
    Full point group: C1

    Geometry (in Angstrom), charge = 0, multiplicity = 1:

       Center              X                  Y                   Z               Mass       
    ------------   -----------------  -----------------  -----------------  -----------------
         N           -0.476434544172     0.086372494568     0.000199434384    14.003074004430
         C            0.219475455828     0.052392494568     1.144949434384    12.000000000000
         H           -0.365204544172     0.076012494568     2.055809434384     1.007825032230
         C            1.608495455828    -0.012787505432     1.194939434384    12.000000000000
         H            2.114405455828    -0.037637505432     2.149269434384     1.007825032230
         C            2.319655455828    -0.045907505432     0.000029434384    12.000000000000
         H            3.399495455828    -0.097687505432    -0.000050565616     1.007825032230
         C            1.608345455828    -0.012857505432    -1.194770565616    12.000000000000
         H            2.114145455828    -0.037727505432    -2.149170565616     1.007825032230
         C            0.219315455828     0.052342494568    -1.144620565616    12.000000000000
         H           -0.365444544172     0.075942494568    -2.055420565616     1.007825032230

  Running in c1 symmetry.

  Rotational constants: A =      0.20135  B =      0.11080  C =      0.07158 [cm^-1]
  Rotational constants: A =   6036.31323  B =   3321.76483  C =   2145.90680 [MHz]
  Nuclear repulsion =  206.285600193522896

  Charge       = 0
  Multiplicity = 1
  Electrons    = 42
  Nalpha       = 21
  Nbeta        = 21

  ==> Algorithm <==

  SCF Algorithm Type is DF.
  DIIS enabled.
  MOM disabled.
  Fractional occupation disabled.
  Guess Type is SAD.
  Energy threshold   = 1.00e-07
  Density threshold  = 1.00e-08
  Integral threshold = 0.00e+00

  ==> Primary Basis <==

  Basis Set: AUG-CC-PVQZ
    Blend: AUG-CC-PVQZ
    Number of shells: 190
    Number of basis function: 710
    Number of Cartesian functions: 905
    Spherical Harmonics?: true
    Max angular momentum: 4

   => Loading Basis Set <=

    Name: (AUG-CC-PVQZ AUX)
    Role: JKFIT
    Keyword: DF_BASIS_SCF
    atoms 1              entry N          line   248 file /home/liuchw/anaconda3/envs/psi4env/share/psi4/basis/aug-cc-pvqz-jkfit.gbs 
    atoms 2, 4, 6, 8, 10 entry C          line   178 file /home/liuchw/anaconda3/envs/psi4env/share/psi4/basis/aug-cc-pvqz-jkfit.gbs 
    atoms 3, 5, 7, 9, 11 entry H          line    70 file /home/liuchw/anaconda3/envs/psi4env/share/psi4/basis/aug-cc-pvqz-jkfit.gbs 

  ==> Pre-Iterations <==

   -------------------------------------------------------
    Irrep   Nso     Nmo     Nalpha   Nbeta   Ndocc  Nsocc
   -------------------------------------------------------
     A        710     710       0       0       0       0
   -------------------------------------------------------
    Total     710     710      21      21      21       0
   -------------------------------------------------------

  ==> Integral Setup <==

  DFHelper Memory: AOs need 4.659 GiB; user supplied 13.970 GiB. Using in-core AOs.

  ==> MemDFJK: Density-Fitted J/K Matrices <==

    J tasked:                   Yes
    K tasked:                   Yes
    wK tasked:                   No
    OpenMP threads:               8
    Memory [MiB]:             14305
    Algorithm:                 Core
    Schwarz Cutoff:           1E-12
    Mask sparsity (%):       2.8867
    Fitting Condition:        1E-10

   => Auxiliary Basis Set <=

  Basis Set: (AUG-CC-PVQZ AUX)
    Blend: AUG-CC-PVQZ-JKFIT
    Number of shells: 294
    Number of basis function: 1232
    Number of Cartesian functions: 1693
    Spherical Harmonics?: true
    Max angular momentum: 5

  Minimum eigenvalue in the overlap matrix is 6.8848726757E-07.
  Using Symmetric Orthogonalization.

  SCF Guess: Superposition of Atomic Densities via on-the-fly atomic UHF.

  ==> Iterations <==

                           Total Energy        Delta E     RMS |[F,P]|

   @DF-RHF iter SAD:  -246.17088264009985   -2.46171e+02   0.00000e+00 
   @DF-RHF iter   1:  -246.64642180307462   -4.75539e-01   7.00113e-04 DIIS
   @DF-RHF iter   2:  -246.76701895452226   -1.20597e-01   3.22430e-04 DIIS
   @DF-RHF iter   3:  -246.79140368144166   -2.43847e-02   6.28142e-05 DIIS
   @DF-RHF iter   4:  -246.79280590462849   -1.40222e-03   1.82790e-05 DIIS
   @DF-RHF iter   5:  -246.79288849416790   -8.25895e-05   6.13795e-06 DIIS
   @DF-RHF iter   6:  -246.79289966755761   -1.11734e-05   1.39049e-06 DIIS
   @DF-RHF iter   7:  -246.79290046451973   -7.96962e-07   4.84623e-07 DIIS
   @DF-RHF iter   8:  -246.79290056524485   -1.00725e-07   2.08791e-07 DIIS
   @DF-RHF iter   9:  -246.79290059660019   -3.13553e-08   6.15228e-08 DIIS
   @DF-RHF iter  10:  -246.79290060081931   -4.21912e-09   2.25429e-08 DIIS
   @DF-RHF iter  11:  -246.79290060158161   -7.62299e-10   1.35104e-08 DIIS
   @DF-RHF iter  12:  -246.79290060177996   -1.98355e-10   3.86369e-09 DIIS
  Energy and wave function converged.


  ==> Post-Iterations <==

    Orbital Energies [Eh]
    ---------------------

    Doubly Occupied:                                                      

       1A    -15.564539     2A    -11.274193     3A    -11.274176  
       4A    -11.259422     5A    -11.241344     6A    -11.241291  
       7A     -1.256101     8A     -1.089378     9A     -1.034365  
      10A     -0.859489    11A     -0.856258    12A     -0.722564  
      13A     -0.660902    14A     -0.654794    15A     -0.599673  
      16A     -0.577351    17A     -0.541553    18A     -0.521074  
      19A     -0.418788    20A     -0.383950    21A     -0.348624  

    Virtual:                                                              

      22A      0.023035    23A      0.028862    24A      0.033225  
      25A      0.043043    26A      0.047122    27A      0.065911  
      28A      0.081890    29A      0.087664    30A      0.088929  
      31A      0.091298    32A      0.095081    33A      0.096005  
      34A      0.097172    35A      0.099879    36A      0.102469  
      37A      0.113004    38A      0.114983    39A      0.124433  
      40A      0.127433    41A      0.128352    42A      0.132021  
      43A      0.133576    44A      0.137023    45A      0.170411  
      46A      0.186586    47A      0.205014    48A      0.210269  
      49A      0.211645    50A      0.215849    51A      0.221534  
      52A      0.228888    53A      0.237150    54A      0.244848  
      55A      0.245543    56A      0.253939    57A      0.254152  
      58A      0.254291    59A      0.266475    60A      0.280573  
      61A      0.286244    62A      0.290057    63A      0.294022  
      64A      0.296103    65A      0.300031    66A      0.300981  
      67A      0.309231    68A      0.318620    69A      0.318841  
      70A      0.319893    71A      0.338408    72A      0.350154  
      73A      0.351294    74A      0.362375    75A      0.365038  
      76A      0.368814    77A      0.369270    78A      0.384179  
      79A      0.386139    80A      0.400043    81A      0.401009  
      82A      0.419815    83A      0.423578    84A      0.424965  
      85A      0.427383    86A      0.429674    87A      0.435182  
      88A      0.437161    89A      0.440384    90A      0.455683  
      91A      0.458905    92A      0.467803    93A      0.470367  
      94A      0.471229    95A      0.490785    96A      0.491071  
      97A      0.505976    98A      0.506848    99A      0.512895  
     100A      0.517895   101A      0.518570   102A      0.530119  
     103A      0.542432   104A      0.567188   105A      0.567275  
     106A      0.572372   107A      0.580559   108A      0.582405  
     109A      0.587588   110A      0.602926   111A      0.610237  
     112A      0.612297   113A      0.623638   114A      0.645248  
     115A      0.656295   116A      0.659276   117A      0.663273  
     118A      0.667911   119A      0.669973   120A      0.675004  
     121A      0.702773   122A      0.705876   123A      0.707030  
     124A      0.719892   125A      0.731516   126A      0.735304  
     127A      0.736398   128A      0.744213   129A      0.748829  
     130A      0.758839   131A      0.765579   132A      0.778556  
     133A      0.780917   134A      0.787640   135A      0.790525  
     136A      0.797874   137A      0.801477   138A      0.801672  
     139A      0.809707   140A      0.823121   141A      0.834064  
     142A      0.840205   143A      0.843407   144A      0.849881  
     145A      0.855262   146A      0.860250   147A      0.891704  
     148A      0.892830   149A      0.899186   150A      0.903822  
     151A      0.920603   152A      0.926447   153A      0.933435  
     154A      0.937172   155A      0.951502   156A      0.951509  
     157A      0.953383   158A      0.962495   159A      0.964107  
     160A      0.966872   161A      0.978128   162A      0.988278  
     163A      0.989658   164A      1.001608   165A      1.023491  
     166A      1.028149   167A      1.046272   168A      1.058299  
     169A      1.082855   170A      1.090032   171A      1.091948  
     172A      1.110502   173A      1.123987   174A      1.131562  
     175A      1.142130   176A      1.162630   177A      1.166234  
     178A      1.179382   179A      1.181826   180A      1.182121  
     181A      1.194557   182A      1.212820   183A      1.228847  
     184A      1.230872   185A      1.230995   186A      1.248873  
     187A      1.259354   188A      1.260974   189A      1.298896  
     190A      1.302294   191A      1.317442   192A      1.317583  
     193A      1.330515   194A      1.330536   195A      1.354894  
     196A      1.365649   197A      1.371110   198A      1.381318  
     199A      1.384666   200A      1.388894   201A      1.395895  
     202A      1.402810   203A      1.420663   204A      1.421676  
     205A      1.426319   206A      1.434592   207A      1.459704  
     208A      1.471733   209A      1.494569   210A      1.516173  
     211A      1.526826   212A      1.543373   213A      1.546838  
     214A      1.548353   215A      1.548939   216A      1.553063  
     217A      1.556017   218A      1.573214   219A      1.579764  
     220A      1.583239   221A      1.587485   222A      1.601772  
     223A      1.608594   224A      1.613874   225A      1.620930  
     226A      1.626524   227A      1.644873   228A      1.670266  
     229A      1.672367   230A      1.699677   231A      1.721183  
     232A      1.730433   233A      1.734523   234A      1.739175  
     235A      1.749434   236A      1.773438   237A      1.780313  
     238A      1.798028   239A      1.835508   240A      1.836386  
     241A      1.836877   242A      1.850963   243A      1.854733  
     244A      1.863752   245A      1.909500   246A      1.910256  
     247A      1.921502   248A      1.933102   249A      1.937425  
     250A      1.937963   251A      1.974508   252A      1.974547  
     253A      1.977076   254A      1.990496   255A      1.994053  
     256A      2.003835   257A      2.008772   258A      2.011039  
     259A      2.014331   260A      2.039137   261A      2.049193  
     262A      2.059729   263A      2.069252   264A      2.075997  
     265A      2.081764   266A      2.084607   267A      2.092071  
     268A      2.099964   269A      2.122750   270A      2.127246  
     271A      2.151994   272A      2.152223   273A      2.153995  
     274A      2.167986   275A      2.190319   276A      2.197226  
     277A      2.232219   278A      2.237789   279A      2.240908  
     280A      2.249631   281A      2.253816   282A      2.259287  
     283A      2.275981   284A      2.278105   285A      2.279833  
     286A      2.294147   287A      2.303806   288A      2.304540  
     289A      2.315934   290A      2.339750   291A      2.340942  
     292A      2.344150   293A      2.365643   294A      2.377123  
     295A      2.383101   296A      2.384831   297A      2.387286  
     298A      2.414646   299A      2.416971   300A      2.423595  
     301A      2.424681   302A      2.448227   303A      2.457911  
     304A      2.469182   305A      2.469965   306A      2.470052  
     307A      2.484730   308A      2.508820   309A      2.510256  
     310A      2.518350   311A      2.528642   312A      2.560168  
     313A      2.561380   314A      2.568446   315A      2.574653  
     316A      2.576689   317A      2.586867   318A      2.595240  
     319A      2.596270   320A      2.612507   321A      2.628826  
     322A      2.629871   323A      2.634066   324A      2.708291  
     325A      2.709009   326A      2.709674   327A      2.726787  
     328A      2.759352   329A      2.764105   330A      2.770849  
     331A      2.773312   332A      2.785411   333A      2.804066  
     334A      2.804903   335A      2.805633   336A      2.820097  
     337A      2.838596   338A      2.859775   339A      2.882565  
     340A      2.904984   341A      2.906916   342A      2.930687  
     343A      2.944071   344A      2.966646   345A      2.996264  
     346A      3.005496   347A      3.018313   348A      3.026867  
     349A      3.029821   350A      3.030557   351A      3.071933  
     352A      3.079005   353A      3.099481   354A      3.135085  
     355A      3.137569   356A      3.137596   357A      3.147662  
     358A      3.168106   359A      3.210435   360A      3.215789  
     361A      3.230282   362A      3.234962   363A      3.270470  
     364A      3.275657   365A      3.298520   366A      3.301608  
     367A      3.311445   368A      3.313114   369A      3.340755  
     370A      3.353270   371A      3.361928   372A      3.375378  
     373A      3.380039   374A      3.390530   375A      3.446714  
     376A      3.453878   377A      3.465784   378A      3.504262  
     379A      3.526409   380A      3.527792   381A      3.550035  
     382A      3.571572   383A      3.603673   384A      3.605236  
     385A      3.629908   386A      3.655350   387A      3.667858  
     388A      3.677285   389A      3.679453   390A      3.713817  
     391A      3.720634   392A      3.727329   393A      3.748263  
     394A      3.748773   395A      3.796481   396A      3.820916  
     397A      3.835417   398A      3.857051   399A      3.879366  
     400A      3.888086   401A      3.895602   402A      3.920352  
     403A      3.924896   404A      3.928819   405A      3.934080  
     406A      3.961453   407A      3.967579   408A      3.975490  
     409A      4.013771   410A      4.030925   411A      4.033490  
     412A      4.046790   413A      4.052817   414A      4.086343  
     415A      4.126693   416A      4.142779   417A      4.144929  
     418A      4.154950   419A      4.157240   420A      4.193223  
     421A      4.202087   422A      4.252835   423A      4.269337  
     424A      4.269709   425A      4.324625   426A      4.326114  
     427A      4.339416   428A      4.370917   429A      4.380611  
     430A      4.399838   431A      4.405206   432A      4.435682  
     433A      4.438003   434A      4.467204   435A      4.471923  
     436A      4.494562   437A      4.503560   438A      4.510487  
     439A      4.551520   440A      4.566887   441A      4.568730  
     442A      4.579484   443A      4.609931   444A      4.620123  
     445A      4.669494   446A      4.691371   447A      4.698834  
     448A      4.721802   449A      4.744367   450A      4.788558  
     451A      4.827864   452A      4.856694   453A      4.883315  
     454A      4.900154   455A      4.907885   456A      4.930254  
     457A      4.975438   458A      4.998321   459A      5.001438  
     460A      5.027437   461A      5.036951   462A      5.070041  
     463A      5.123998   464A      5.148684   465A      5.202394  
     466A      5.217126   467A      5.241792   468A      5.299937  
     469A      5.378214   470A      5.409108   471A      5.432033  
     472A      5.446883   473A      5.472089   474A      5.542958  
     475A      5.619837   476A      5.699488   477A      5.743264  
     478A      5.799251   479A      5.800371   480A      5.829095  
     481A      5.847403   482A      5.889329   483A      5.913687  
     484A      5.986901   485A      6.008902   486A      6.043830  
     487A      6.053238   488A      6.078942   489A      6.099376  
     490A      6.121472   491A      6.132078   492A      6.154513  
     493A      6.158188   494A      6.185319   495A      6.215711  
     496A      6.307832   497A      6.309859   498A      6.323504  
     499A      6.379211   500A      6.384212   501A      6.414808  
     502A      6.429017   503A      6.465962   504A      6.472705  
     505A      6.514934   506A      6.545431   507A      6.583689  
     508A      6.589088   509A      6.593248   510A      6.600451  
     511A      6.616183   512A      6.637925   513A      6.640050  
     514A      6.650213   515A      6.651623   516A      6.668145  
     517A      6.683914   518A      6.712998   519A      6.752154  
     520A      6.777360   521A      6.794708   522A      6.801945  
     523A      6.821691   524A      6.853767   525A      6.865070  
     526A      6.888315   527A      6.901788   528A      6.907846  
     529A      6.937142   530A      6.957572   531A      6.978658  
     532A      6.999202   533A      7.021999   534A      7.024807  
     535A      7.034801   536A      7.053746   537A      7.062839  
     538A      7.080698   539A      7.091501   540A      7.124927  
     541A      7.148133   542A      7.151686   543A      7.166525  
     544A      7.186319   545A      7.198977   546A      7.217738  
     547A      7.219626   548A      7.242744   549A      7.289583  
     550A      7.293602   551A      7.325776   552A      7.327580  
     553A      7.342314   554A      7.389886   555A      7.397229  
     556A      7.399613   557A      7.403682   558A      7.439836  
     559A      7.466666   560A      7.505497   561A      7.520780  
     562A      7.570168   563A      7.581994   564A      7.591607  
     565A      7.635061   566A      7.640761   567A      7.642958  
     568A      7.683411   569A      7.720482   570A      7.746179  
     571A      7.773767   572A      7.777780   573A      7.780345  
     574A      7.810645   575A      7.839502   576A      7.858563  
     577A      7.876773   578A      7.927595   579A      7.941733  
     580A      8.003952   581A      8.005316   582A      8.019348  
     583A      8.031177   584A      8.063344   585A      8.075172  
     586A      8.095030   587A      8.148453   588A      8.151071  
     589A      8.152485   590A      8.280770   591A      8.303169  
     592A      8.325309   593A      8.357695   594A      8.365338  
     595A      8.380071   596A      8.459513   597A      8.492297  
     598A      8.523569   599A      8.543757   600A      8.617419  
     601A      8.622414   602A      8.639659   603A      8.665537  
     604A      8.699192   605A      8.701935   606A      8.709591  
     607A      8.718267   608A      8.811102   609A      8.821733  
     610A      8.856840   611A      8.875973   612A      8.892696  
     613A      8.892897   614A      8.940838   615A      8.945477  
     616A      8.957433   617A      8.957769   618A      8.962635  
     619A      9.040490   620A      9.050446   621A      9.080650  
     622A      9.123233   623A      9.143471   624A      9.174200  
     625A      9.196035   626A      9.205383   627A      9.221382  
     628A      9.256933   629A      9.328911   630A      9.357911  
     631A      9.394783   632A      9.399443   633A      9.418488  
     634A      9.448000   635A      9.501108   636A      9.548455  
     637A      9.554436   638A      9.554905   639A      9.592425  
     640A      9.597786   641A      9.608142   642A      9.653147  
     643A      9.705706   644A      9.725677   645A      9.726496  
     646A      9.743424   647A      9.798040   648A      9.867171  
     649A      9.902276   650A      9.962475   651A      9.963414  
     652A      9.964602   653A      9.984451   654A     10.008806  
     655A     10.017068   656A     10.029189   657A     10.092068  
     658A     10.219356   659A     10.233556   660A     10.235759  
     661A     10.246566   662A     10.294972   663A     10.320638  
     664A     10.332384   665A     10.383643   666A     10.394063  
     667A     10.470081   668A     10.479924   669A     10.500616  
     670A     10.506958   671A     10.509894   672A     10.578841  
     673A     10.638036   674A     10.652347   675A     10.720430  
     676A     10.764988   677A     10.771258   678A     10.779057  
     679A     10.795907   680A     10.847976   681A     10.881844  
     682A     11.053105   683A     11.073764   684A     11.196293  
     685A     11.201472   686A     11.368071   687A     11.380951  
     688A     11.445385   689A     11.455693   690A     11.565247  
     691A     11.637060   692A     11.670065   693A     11.697018  
     694A     11.773131   695A     11.903119   696A     12.300266  
     697A     12.494338   698A     12.731626   699A     12.850966  
     700A     13.203894   701A     13.368263   702A     13.381374  
     703A     13.528442   704A     13.577432   705A     26.172778  
     706A     26.292369   707A     26.526928   708A     26.944351  
     709A     27.198396   710A     34.210885  

    Final Occupation by Irrep:
              A 
    DOCC [    21 ]

  @DF-RHF Final Energy:  -246.79290060177996

   => Energetics <=

    Nuclear Repulsion Energy =            206.2856001935228960
    One-Electron Energy =                -741.3973422395417856
    Two-Electron Energy =                 288.3188414442388989
    Total Energy =                       -246.7929006017799907

Computation Completed


Properties will be evaluated at   0.000000,   0.000000,   0.000000 [a0]

Properties computed using the SCF density matrix

  Nuclear Dipole Moment: [e a0]
     X:    74.4818      Y:     1.4789      Z:     0.0094

  Electronic Dipole Moment: [e a0]
     X:   -73.5725      Y:    -1.5250      Z:    -0.0095

  Dipole Moment: [e a0]
     X:     0.9093      Y:    -0.0461      Z:    -0.0001     Total:     0.9105

  Dipole Moment: [D]
     X:     2.3113      Y:    -0.1171      Z:    -0.0002     Total:     2.3143


*** tstop() called on node50.bme.utexas.edu at Thu Apr 23 18:46:39 2020
Module time:
	user time   =     156.58 seconds =       2.61 minutes
	system time =       3.23 seconds =       0.05 minutes
	total time  =         23 seconds =       0.38 minutes
Total time:
	user time   =     216.58 seconds =       3.61 minutes
	system time =       4.90 seconds =       0.08 minutes
	total time  =         32 seconds =       0.53 minutes

*** tstart() called on node50.bme.utexas.edu
*** at Thu Apr 23 18:46:39 2020


  //>>>>>>>>>>>>>>>>>>>>>>>>>>>>>>>>>>>//
  //               DFMP2               //
  //<<<<<<<<<<<<<<<<<<<<<<<<<<<<<<<<<<<//

   => Loading Basis Set <=

    Name: (AUG-CC-PVQZ AUX)
    Role: RIFIT
    Keyword: DF_BASIS_MP2
    atoms 1              entry N          line   258 file /home/liuchw/anaconda3/envs/psi4env/share/psi4/basis/aug-cc-pvqz-ri.gbs 
    atoms 2, 4, 6, 8, 10 entry C          line   184 file /home/liuchw/anaconda3/envs/psi4env/share/psi4/basis/aug-cc-pvqz-ri.gbs 
    atoms 3, 5, 7, 9, 11 entry H          line    30 file /home/liuchw/anaconda3/envs/psi4env/share/psi4/basis/aug-cc-pvqz-ri.gbs 

	 --------------------------------------------------------
	                          DF-MP2                         
	      2nd-Order Density-Fitted Moller-Plesset Theory     
	              RMP2 Wavefunction,   8 Threads             
	                                                         
	        Rob Parrish, Justin Turney, Andy Simmonett,      
	           Ed Hohenstein, and C. David Sherrill          
	 --------------------------------------------------------

   => Auxiliary Basis Set <=

  Basis Set: (AUG-CC-PVQZ AUX)
    Blend: AUG-CC-PVQZ-RI
    Number of shells: 316
    Number of basis function: 1408
    Number of Cartesian functions: 1947
    Spherical Harmonics?: true
    Max angular momentum: 5

	 --------------------------------------------------------
	                 NBF =   710, NAUX =  1408
	 --------------------------------------------------------
	   CLASS    FOCC     OCC    AOCC    AVIR     VIR    FVIR
	   PAIRS       0      21      21     689     689       0
	 --------------------------------------------------------

	-----------------------------------------------------------
	 ==================> DF-MP2 Energies <==================== 
	-----------------------------------------------------------
	 Reference Energy          =    -246.7929006017799622 [Eh]
	 Singles Energy            =      -0.0000000000000000 [Eh]
	 Same-Spin Energy          =      -0.2841741608009030 [Eh]
	 Opposite-Spin Energy      =      -0.9423390125891674 [Eh]
	 Correlation Energy        =      -1.2265131733900705 [Eh]
	 Total Energy              =    -248.0194137751700225 [Eh]
	-----------------------------------------------------------
	 ================> DF-SCS-MP2 Energies <================== 
	-----------------------------------------------------------
	 SCS Same-Spin Scale       =       0.3333333333333333 [-]
	 SCS Opposite-Spin Scale   =       1.2000000000000000 [-]
	 SCS Same-Spin Energy      =      -0.0947247202669677 [Eh]
	 SCS Opposite-Spin Energy  =      -1.1308068151070008 [Eh]
	 SCS Correlation Energy    =      -1.2255315353739684 [Eh]
	 SCS Total Energy          =    -248.0184321371539227 [Eh]
	-----------------------------------------------------------


*** tstop() called on node50.bme.utexas.edu at Thu Apr 23 18:46:53 2020
Module time:
	user time   =      75.87 seconds =       1.26 minutes
	system time =       1.96 seconds =       0.03 minutes
	total time  =         14 seconds =       0.23 minutes
Total time:
	user time   =     292.46 seconds =       4.87 minutes
	system time =       6.86 seconds =       0.11 minutes
	total time  =         46 seconds =       0.77 minutes

  //>>>>>>>>>>>>>>>>>>>>>>>>>>>>>>>>>>>//
  //  CBS Results: mp2/aug-cc-pv[tq]z  //
  //<<<<<<<<<<<<<<<<<<<<<<<<<<<<<<<<<<<//


   ==> HF <==

   HI-zeta (4) Energy:               -246.792900601780


   ==> Helgaker 2-point correlated extrapolation for method: MP2 <==

   LO-zeta (3) Energy:               -247.886318470580
   HI-zeta (4) Energy:               -248.019413775170
   Alpha (exponent) Value:             3.000000000000
   Extrapolated Energy:              -248.116537375817

   @Extrapolated MP2/(T,Q):          -248.116537375817



   ==> Helgaker 2-point correlated extrapolation for method: HF <==

   LO-zeta (3) Energy:               -246.778753577788
   HI-zeta (4) Energy:               -246.792900601780
   Alpha (exponent) Value:             3.000000000000
   Extrapolated Energy:              -246.803224105774

   @Extrapolated HF/(T,Q):           -246.803224105774


   ==> Components <==

  ---------------------------------------------------------------------------------------------------------
                          Method / Basis                      Rqd      Energy [Eh]   Variable
  ---------------------------------------------------------------------------------------------------------
                              hf / aug-cc-pvtz                  *    -246.77875358   HF TOTAL ENERGY
                             mp2 / aug-cc-pvtz                  *    -247.88631847   MP2 TOTAL ENERGY
                              hf / aug-cc-pvqz                  *    -246.79290060   HF TOTAL ENERGY
                             mp2 / aug-cc-pvqz                  *    -248.01941378   MP2 TOTAL ENERGY
  ---------------------------------------------------------------------------------------------------------

   ==> Stages <==

  ---------------------------------------------------------------------------------------------------------
      Stage               Method / Basis                       Wt      Energy [Eh]   Scheme
  ---------------------------------------------------------------------------------------------------------
        scf                   hf / aug-cc-pvqz                  1    -246.79290060   xtpl_highest_1
       corl                  mp2 / aug-cc-pv[tq]z               1    -248.11653738   corl_xtpl_helgaker_2
       corl                   hf / aug-cc-pv[tq]z              -1    -246.80322411   corl_xtpl_helgaker_2
  ---------------------------------------------------------------------------------------------------------

   ==> CBS <==

  ---------------------------------------------------------------------------------------------------------
      Stage               Method / Basis                               Energy [Eh]   Scheme
  ---------------------------------------------------------------------------------------------------------
        scf                   hf / aug-cc-pvqz                       -246.79290060   xtpl_highest_1
       corl                  mp2 / aug-cc-pv[tq]z                      -1.31331327   corl_xtpl_helgaker_2
      total                  CBS                                     -248.10621387   
  ---------------------------------------------------------------------------------------------------------
   => Loading Basis Set <=

    Name: DEF2-SVP
    Role: ORBITAL
    Keyword: BASIS
    atoms 1              entry N          line   110 file /home/liuchw/anaconda3/envs/psi4env/share/psi4/basis/def2-svp.gbs 
    atoms 2, 4, 6, 8, 10 entry C          line    90 file /home/liuchw/anaconda3/envs/psi4env/share/psi4/basis/def2-svp.gbs 
    atoms 3, 5, 7, 9, 11 entry H          line    15 file /home/liuchw/anaconda3/envs/psi4env/share/psi4/basis/def2-svp.gbs 


       N-Body: Complex Energy (fragments = (2,), basis = (2,):  -248.10621387182272)

       N-Body: Computing complex (2/4) with fragments (2,) in the basis of fragments (1, 2).


Scratch directory: /scratch/liuchw/

  //>>>>>>>>>>>>>>>>>>>>>>>>>>>>>>>>>>>//
  //   CBS Setup: mp2/aug-cc-pv[tq]z   //
  //<<<<<<<<<<<<<<<<<<<<<<<<<<<<<<<<<<<//

    Naive listing of computations required.
             hf / aug-cc-pvqz              for  HF TOTAL ENERGY
            mp2 / aug-cc-pvtz              for  MP2 TOTAL ENERGY
            mp2 / aug-cc-pvqz              for  MP2 TOTAL ENERGY
             hf / aug-cc-pvtz              for  HF TOTAL ENERGY
             hf / aug-cc-pvqz              for  HF TOTAL ENERGY

    Enlightened listing of computations required.
            mp2 / aug-cc-pvtz              for  MP2 TOTAL ENERGY
            mp2 / aug-cc-pvqz              for  MP2 TOTAL ENERGY

    Full listing of computations to be obtained (required and bonus).
             hf / aug-cc-pvtz              for  HF TOTAL ENERGY
            mp2 / aug-cc-pvtz              for  MP2 TOTAL ENERGY
             hf / aug-cc-pvqz              for  HF TOTAL ENERGY
            mp2 / aug-cc-pvqz              for  MP2 TOTAL ENERGY

  //>>>>>>>>>>>>>>>>>>>>>>>>>>>>>>>>>>>>//
  // CBS Computation: MP2 / AUG-CC-PVTZ //
  //<<<<<<<<<<<<<<<<<<<<<<<<<<<<<<<<<<<<//


Scratch directory: /scratch/liuchw/

*** tstart() called on node50.bme.utexas.edu
*** at Thu Apr 23 18:46:54 2020

   => Loading Basis Set <=

    Name: AUG-CC-PVTZ
    Role: ORBITAL
    Keyword: BASIS
    atoms 1                     entry O          line   331 file /home/liuchw/anaconda3/envs/psi4env/share/psi4/basis/aug-cc-pvtz.gbs 
    atoms 2-3, 6, 8, 10, 12, 14 entry H          line    40 file /home/liuchw/anaconda3/envs/psi4env/share/psi4/basis/aug-cc-pvtz.gbs 
    atoms 4                     entry N          line   285 file /home/liuchw/anaconda3/envs/psi4env/share/psi4/basis/aug-cc-pvtz.gbs 
    atoms 5, 7, 9, 11, 13       entry C          line   239 file /home/liuchw/anaconda3/envs/psi4env/share/psi4/basis/aug-cc-pvtz.gbs 


         ---------------------------------------------------------
                                   SCF
               by Justin Turney, Rob Parrish, Andy Simmonett
                          and Daniel G. A. Smith
                              RHF Reference
                        8 Threads,  19073 MiB Core
         ---------------------------------------------------------

  ==> Geometry <==

    Molecular point group: c1
    Full point group: C1

    Geometry (in Angstrom), charge = 0, multiplicity = 1:

       Center              X                  Y                   Z               Mass       
    ------------   -----------------  -----------------  -----------------  -----------------
      Gh(O)          -4.032904544172    -0.144227505432    -0.000580565616    15.994914619570
      Gh(H)          -4.351834544172     0.759262494568     0.000059434384     1.007825032230
      Gh(H)          -3.067414544172    -0.044357505432    -0.000330565616     1.007825032230
         N           -0.476434544172     0.086372494568     0.000199434384    14.003074004430
         C            0.219475455828     0.052392494568     1.144949434384    12.000000000000
         H           -0.365204544172     0.076012494568     2.055809434384     1.007825032230
         C            1.608495455828    -0.012787505432     1.194939434384    12.000000000000
         H            2.114405455828    -0.037637505432     2.149269434384     1.007825032230
         C            2.319655455828    -0.045907505432     0.000029434384    12.000000000000
         H            3.399495455828    -0.097687505432    -0.000050565616     1.007825032230
         C            1.608345455828    -0.012857505432    -1.194770565616    12.000000000000
         H            2.114145455828    -0.037727505432    -2.149170565616     1.007825032230
         C            0.219315455828     0.052342494568    -1.144620565616    12.000000000000
         H           -0.365444544172     0.075942494568    -2.055420565616     1.007825032230

  Running in c1 symmetry.

  Rotational constants: A =      0.19913  B =      0.03816  C =      0.03216 [cm^-1]
  Rotational constants: A =   5969.75566  B =   1143.97861  C =    964.08413 [MHz]
  Nuclear repulsion =  206.285600193522896

  Charge       = 0
  Multiplicity = 1
  Electrons    = 42
  Nalpha       = 21
  Nbeta        = 21

  ==> Algorithm <==

  SCF Algorithm Type is DF.
  DIIS enabled.
  MOM disabled.
  Fractional occupation disabled.
  Guess Type is SAD.
  Energy threshold   = 1.00e-07
  Density threshold  = 1.00e-08
  Integral threshold = 0.00e+00

  ==> Primary Basis <==

  Basis Set: AUG-CC-PVTZ
    Blend: AUG-CC-PVTZ
    Number of shells: 161
    Number of basis function: 483
    Number of Cartesian functions: 560
    Spherical Harmonics?: true
    Max angular momentum: 3

   => Loading Basis Set <=

    Name: (AUG-CC-PVTZ AUX)
    Role: JKFIT
    Keyword: DF_BASIS_SCF
    atoms 1                     entry O          line   286 file /home/liuchw/anaconda3/envs/psi4env/share/psi4/basis/aug-cc-pvtz-jkfit.gbs 
    atoms 2-3, 6, 8, 10, 12, 14 entry H          line    70 file /home/liuchw/anaconda3/envs/psi4env/share/psi4/basis/aug-cc-pvtz-jkfit.gbs 
    atoms 4                     entry N          line   224 file /home/liuchw/anaconda3/envs/psi4env/share/psi4/basis/aug-cc-pvtz-jkfit.gbs 
    atoms 5, 7, 9, 11, 13       entry C          line   162 file /home/liuchw/anaconda3/envs/psi4env/share/psi4/basis/aug-cc-pvtz-jkfit.gbs 

  ==> Pre-Iterations <==

   -------------------------------------------------------
    Irrep   Nso     Nmo     Nalpha   Nbeta   Ndocc  Nsocc
   -------------------------------------------------------
     A        483     483       0       0       0       0
   -------------------------------------------------------
    Total     483     483      21      21      21       0
   -------------------------------------------------------

  ==> Integral Setup <==

  DFHelper Memory: AOs need 1.757 GiB; user supplied 13.970 GiB. Using in-core AOs.

  ==> MemDFJK: Density-Fitted J/K Matrices <==

    J tasked:                   Yes
    K tasked:                   Yes
    wK tasked:                   No
    OpenMP threads:               8
    Memory [MiB]:             14305
    Algorithm:                 Core
    Schwarz Cutoff:           1E-12
    Mask sparsity (%):       7.5366
    Fitting Condition:        1E-10

   => Auxiliary Basis Set <=

  Basis Set: (AUG-CC-PVTZ AUX)
    Blend: AUG-CC-PVTZ-JKFIT
    Number of shells: 308
    Number of basis function: 1050
    Number of Cartesian functions: 1302
    Spherical Harmonics?: true
    Max angular momentum: 4

  Minimum eigenvalue in the overlap matrix is 2.1358622845E-06.
  Using Symmetric Orthogonalization.

  SCF Guess: Superposition of Atomic Densities via on-the-fly atomic UHF.

  ==> Iterations <==

                           Total Energy        Delta E     RMS |[F,P]|

   @DF-RHF iter SAD:  -246.16084725304302   -2.46161e+02   0.00000e+00 
   @DF-RHF iter   1:  -246.63291690009706   -4.72070e-01   1.02283e-03 DIIS
   @DF-RHF iter   2:  -246.75315290879007   -1.20236e-01   4.70342e-04 DIIS
   @DF-RHF iter   3:  -246.77732256734174   -2.41697e-02   9.08781e-05 DIIS
   @DF-RHF iter   4:  -246.77870839254334   -1.38583e-03   2.70001e-05 DIIS
   @DF-RHF iter   5:  -246.77879124041027   -8.28479e-05   8.68938e-06 DIIS
   @DF-RHF iter   6:  -246.77880185888063   -1.06185e-05   1.99525e-06 DIIS
   @DF-RHF iter   7:  -246.77880262834938   -7.69469e-07   7.08046e-07 DIIS
   @DF-RHF iter   8:  -246.77880272853173   -1.00182e-07   3.00743e-07 DIIS
   @DF-RHF iter   9:  -246.77880275940001   -3.08683e-08   8.84887e-08 DIIS
   @DF-RHF iter  10:  -246.77880276349777   -4.09776e-09   3.25171e-08 DIIS
   @DF-RHF iter  11:  -246.77880276424418   -7.46411e-10   1.94375e-08 DIIS
   @DF-RHF iter  12:  -246.77880276443454   -1.90369e-10   5.52992e-09 DIIS
  Energy and wave function converged.


  ==> Post-Iterations <==

    Orbital Energies [Eh]
    ---------------------

    Doubly Occupied:                                                      

       1A    -15.566720     2A    -11.275249     3A    -11.275232  
       4A    -11.260480     5A    -11.242466     6A    -11.242414  
       7A     -1.256673     8A     -1.089782     9A     -1.034700  
      10A     -0.859694    11A     -0.856454    12A     -0.722525  
      13A     -0.660931    14A     -0.654807    15A     -0.599650  
      16A     -0.577307    17A     -0.541452    18A     -0.521018  
      19A     -0.418645    20A     -0.383864    21A     -0.348535  

    Virtual:                                                              

      22A      0.025916    23A      0.033249    24A      0.034270  
      25A      0.046534    26A      0.048773    27A      0.059363  
      28A      0.068808    29A      0.084873    30A      0.091446  
      31A      0.100316    32A      0.100341    33A      0.106333  
      34A      0.109149    35A      0.111419    36A      0.115753  
      37A      0.118706    38A      0.127883    39A      0.130516  
      40A      0.130588    41A      0.140447    42A      0.143056  
      43A      0.150436    44A      0.153582    45A      0.155483  
      46A      0.158262    47A      0.169005    48A      0.191547  
      49A      0.193934    50A      0.202784    51A      0.236522  
      52A      0.243192    53A      0.244781    54A      0.246807  
      55A      0.252142    56A      0.258312    57A      0.269325  
      58A      0.274677    59A      0.280570    60A      0.285779  
      61A      0.294015    62A      0.297553    63A      0.300966  
      64A      0.303795    65A      0.308343    66A      0.309988  
      67A      0.322876    68A      0.323467    69A      0.337521  
      70A      0.339891    71A      0.347390    72A      0.349735  
      73A      0.356641    74A      0.368123    75A      0.372721  
      76A      0.380066    77A      0.392343    78A      0.402848  
      79A      0.403627    80A      0.416896    81A      0.417296  
      82A      0.431095    83A      0.433621    84A      0.439961  
      85A      0.442268    86A      0.452629    87A      0.453264  
      88A      0.463262    89A      0.472312    90A      0.482769  
      91A      0.483631    92A      0.484583    93A      0.486158  
      94A      0.492237    95A      0.498223    96A      0.499221  
      97A      0.517557    98A      0.524946    99A      0.534306  
     100A      0.540248   101A      0.546445   102A      0.553796  
     103A      0.567222   104A      0.571398   105A      0.572349  
     106A      0.612807   107A      0.620675   108A      0.625349  
     109A      0.634596   110A      0.637755   111A      0.640947  
     112A      0.646839   113A      0.655374   114A      0.669116  
     115A      0.675152   116A      0.713946   117A      0.714907  
     118A      0.727324   119A      0.736272   120A      0.744965  
     121A      0.756077   122A      0.758926   123A      0.770819  
     124A      0.780149   125A      0.789737   126A      0.794281  
     127A      0.804539   128A      0.820403   129A      0.821712  
     130A      0.825650   131A      0.833389   132A      0.840566  
     133A      0.845641   134A      0.853016   135A      0.858518  
     136A      0.871985   137A      0.879088   138A      0.882752  
     139A      0.883465   140A      0.884156   141A      0.903254  
     142A      0.922279   143A      0.928390   144A      0.928483  
     145A      0.939368   146A      0.947711   147A      0.954089  
     148A      0.956168   149A      0.959741   150A      0.964420  
     151A      0.969825   152A      0.973069   153A      0.999487  
     154A      0.999542   155A      1.006497   156A      1.010306  
     157A      1.012589   158A      1.015767   159A      1.020931  
     160A      1.029623   161A      1.036429   162A      1.043524  
     163A      1.052693   164A      1.073145   165A      1.077653  
     166A      1.081734   167A      1.083375   168A      1.096380  
     169A      1.097385   170A      1.111196   171A      1.115147  
     172A      1.117600   173A      1.130879   174A      1.141696  
     175A      1.156560   176A      1.165006   177A      1.183845  
     178A      1.185509   179A      1.186925   180A      1.187474  
     181A      1.193547   182A      1.202903   183A      1.206604  
     184A      1.207668   185A      1.221070   186A      1.227645  
     187A      1.253772   188A      1.255930   189A      1.266108  
     190A      1.271634   191A      1.279579   192A      1.294328  
     193A      1.295871   194A      1.319953   195A      1.344068  
     196A      1.356641   197A      1.360066   198A      1.369404  
     199A      1.401716   200A      1.406100   201A      1.429893  
     202A      1.444997   203A      1.454389   204A      1.487926  
     205A      1.496655   206A      1.498595   207A      1.506581  
     208A      1.514064   209A      1.521859   210A      1.525394  
     211A      1.537986   212A      1.566943   213A      1.571916  
     214A      1.599910   215A      1.610430   216A      1.615089  
     217A      1.675911   218A      1.689574   219A      1.693850  
     220A      1.695686   221A      1.708283   222A      1.708407  
     223A      1.731878   224A      1.732256   225A      1.740939  
     226A      1.766190   227A      1.784078   228A      1.786664  
     229A      1.796558   230A      1.799557   231A      1.824750  
     232A      1.842566   233A      1.849634   234A      1.852664  
     235A      1.882595   236A      1.882972   237A      1.892721  
     238A      1.897554   239A      1.911196   240A      1.938181  
     241A      1.951267   242A      1.960935   243A      1.969966  
     244A      1.989447   245A      2.016833   246A      2.024298  
     247A      2.034240   248A      2.040109   249A      2.041015  
     250A      2.046265   251A      2.047480   252A      2.059839  
     253A      2.095176   254A      2.126107   255A      2.143069  
     256A      2.150157   257A      2.153567   258A      2.168054  
     259A      2.171529   260A      2.204518   261A      2.226034  
     262A      2.226092   263A      2.254696   264A      2.257963  
     265A      2.262116   266A      2.320092   267A      2.364185  
     268A      2.373387   269A      2.388077   270A      2.394910  
     271A      2.429686   272A      2.445837   273A      2.453259  
     274A      2.470335   275A      2.495565   276A      2.515245  
     277A      2.521828   278A      2.551400   279A      2.555767  
     280A      2.598114   281A      2.601020   282A      2.617104  
     283A      2.625112   284A      2.673398   285A      2.675169  
     286A      2.680582   287A      2.681672   288A      2.707513  
     289A      2.773056   290A      2.797980   291A      2.817759  
     292A      2.837581   293A      2.885918   294A      2.930945  
     295A      2.934257   296A      2.988457   297A      2.999131  
     298A      3.001486   299A      3.055138   300A      3.056795  
     301A      3.139067   302A      3.167721   303A      3.174782  
     304A      3.204952   305A      3.235344   306A      3.252410  
     307A      3.277136   308A      3.305636   309A      3.314788  
     310A      3.319335   311A      3.339228   312A      3.356509  
     313A      3.391646   314A      3.404515   315A      3.408676  
     316A      3.420602   317A      3.432829   318A      3.436191  
     319A      3.469921   320A      3.484413   321A      3.488885  
     322A      3.504661   323A      3.531642   324A      3.544500  
     325A      3.556647   326A      3.563152   327A      3.568305  
     328A      3.581094   329A      3.587085   330A      3.612871  
     331A      3.646230   332A      3.689515   333A      3.701294  
     334A      3.739083   335A      3.748076   336A      3.764447  
     337A      3.778055   338A      3.787608   339A      3.817766  
     340A      3.828486   341A      3.844372   342A      3.860985  
     343A      3.872453   344A      3.891684   345A      3.897593  
     346A      3.903105   347A      3.932127   348A      3.932267  
     349A      3.966555   350A      3.998696   351A      4.002181  
     352A      4.004312   353A      4.044402   354A      4.054098  
     355A      4.094959   356A      4.112242   357A      4.127562  
     358A      4.136291   359A      4.145939   360A      4.151547  
     361A      4.160251   362A      4.188266   363A      4.206837  
     364A      4.229598   365A      4.236707   366A      4.254028  
     367A      4.274134   368A      4.286584   369A      4.334845  
     370A      4.372254   371A      4.399712   372A      4.408821  
     373A      4.425693   374A      4.440918   375A      4.445448  
     376A      4.448403   377A      4.468760   378A      4.488901  
     379A      4.525437   380A      4.526228   381A      4.527511  
     382A      4.553818   383A      4.577743   384A      4.617283  
     385A      4.679241   386A      4.689228   387A      4.699437  
     388A      4.706605   389A      4.745935   390A      4.759327  
     391A      4.765036   392A      4.842829   393A      4.859318  
     394A      4.878567   395A      4.893063   396A      4.905217  
     397A      4.916239   398A      4.931897   399A      4.937549  
     400A      4.969255   401A      4.972263   402A      4.992603  
     403A      5.021637   404A      5.032688   405A      5.043530  
     406A      5.063638   407A      5.100719   408A      5.112173  
     409A      5.139061   410A      5.148618   411A      5.158116  
     412A      5.199191   413A      5.223839   414A      5.241657  
     415A      5.269009   416A      5.286869   417A      5.406187  
     418A      5.413473   419A      5.426691   420A      5.447477  
     421A      5.462140   422A      5.463795   423A      5.491550  
     424A      5.529506   425A      5.554087   426A      5.571773  
     427A      5.609973   428A      5.639338   429A      5.652844  
     430A      5.663292   431A      5.667382   432A      5.791473  
     433A      5.800004   434A      5.840124   435A      5.861028  
     436A      5.878816   437A      5.913553   438A      5.915618  
     439A      5.935509   440A      5.983948   441A      6.081651  
     442A      6.133761   443A      6.159887   444A      6.214917  
     445A      6.232089   446A      6.317394   447A      6.427680  
     448A      6.457333   449A      6.512155   450A      6.675739  
     451A      6.684707   452A      6.698743   453A      6.700250  
     454A      6.745365   455A      6.865385   456A      6.883587  
     457A      7.098280   458A      7.118838   459A      7.125535  
     460A      7.497780   461A      7.703092   462A      7.866087  
     463A      8.067385   464A      8.197832   465A      8.310176  
     466A      8.816051   467A      9.006385   468A      9.697538  
     469A      9.884792   470A     10.110990   471A     10.292673  
     472A     11.244207   473A     11.763418   474A     12.150361  
     475A     13.599635   476A     13.988528   477A     15.608822  
     478A     16.338239   479A     18.503285   480A     18.901015  
     481A     19.276134   482A     19.331178   483A     66.063798  

    Final Occupation by Irrep:
              A 
    DOCC [    21 ]

  @DF-RHF Final Energy:  -246.77880276443454

   => Energetics <=

    Nuclear Repulsion Energy =            206.2856001935228960
    One-Electron Energy =                -741.3516121672305417
    Two-Electron Energy =                 288.2872092092731009
    Total Energy =                       -246.7788027644345448

Computation Completed


Properties will be evaluated at   0.000000,   0.000000,   0.000000 [a0]

Properties computed using the SCF density matrix

  Nuclear Dipole Moment: [e a0]
     X:    74.4818      Y:     1.4789      Z:     0.0094

  Electronic Dipole Moment: [e a0]
     X:   -73.5719      Y:    -1.5250      Z:    -0.0095

  Dipole Moment: [e a0]
     X:     0.9099      Y:    -0.0461      Z:    -0.0001     Total:     0.9111

  Dipole Moment: [D]
     X:     2.3128      Y:    -0.1172      Z:    -0.0002     Total:     2.3157


*** tstop() called on node50.bme.utexas.edu at Thu Apr 23 18:47:03 2020
Module time:
	user time   =      64.13 seconds =       1.07 minutes
	system time =       1.35 seconds =       0.02 minutes
	total time  =          9 seconds =       0.15 minutes
Total time:
	user time   =     358.41 seconds =       5.97 minutes
	system time =       8.24 seconds =       0.14 minutes
	total time  =         56 seconds =       0.93 minutes

*** tstart() called on node50.bme.utexas.edu
*** at Thu Apr 23 18:47:03 2020


  //>>>>>>>>>>>>>>>>>>>>>>>>>>>>>>>>>>>//
  //               DFMP2               //
  //<<<<<<<<<<<<<<<<<<<<<<<<<<<<<<<<<<<//

   => Loading Basis Set <=

    Name: (AUG-CC-PVTZ AUX)
    Role: RIFIT
    Keyword: DF_BASIS_MP2
    atoms 1                     entry O          line   264 file /home/liuchw/anaconda3/envs/psi4env/share/psi4/basis/aug-cc-pvtz-ri.gbs 
    atoms 2-3, 6, 8, 10, 12, 14 entry H          line    30 file /home/liuchw/anaconda3/envs/psi4env/share/psi4/basis/aug-cc-pvtz-ri.gbs 
    atoms 4                     entry N          line   206 file /home/liuchw/anaconda3/envs/psi4env/share/psi4/basis/aug-cc-pvtz-ri.gbs 
    atoms 5, 7, 9, 11, 13       entry C          line   148 file /home/liuchw/anaconda3/envs/psi4env/share/psi4/basis/aug-cc-pvtz-ri.gbs 

	 --------------------------------------------------------
	                          DF-MP2                         
	      2nd-Order Density-Fitted Moller-Plesset Theory     
	              RMP2 Wavefunction,   8 Threads             
	                                                         
	        Rob Parrish, Justin Turney, Andy Simmonett,      
	           Ed Hohenstein, and C. David Sherrill          
	 --------------------------------------------------------

   => Auxiliary Basis Set <=

  Basis Set: (AUG-CC-PVTZ AUX)
    Blend: AUG-CC-PVTZ-RI
    Number of shells: 294
    Number of basis function: 1064
    Number of Cartesian functions: 1337
    Spherical Harmonics?: true
    Max angular momentum: 4

	 --------------------------------------------------------
	                 NBF =   483, NAUX =  1064
	 --------------------------------------------------------
	   CLASS    FOCC     OCC    AOCC    AVIR     VIR    FVIR
	   PAIRS       0      21      21     462     462       0
	 --------------------------------------------------------

	-----------------------------------------------------------
	 ==================> DF-MP2 Energies <==================== 
	-----------------------------------------------------------
	 Reference Energy          =    -246.7788027644345448 [Eh]
	 Singles Energy            =      -0.0000000000000000 [Eh]
	 Same-Spin Energy          =      -0.2688503344957125 [Eh]
	 Opposite-Spin Energy      =      -0.8393349831650125 [Eh]
	 Correlation Energy        =      -1.1081853176607250 [Eh]
	 Total Energy              =    -247.8869880820952574 [Eh]
	-----------------------------------------------------------
	 ================> DF-SCS-MP2 Energies <================== 
	-----------------------------------------------------------
	 SCS Same-Spin Scale       =       0.3333333333333333 [-]
	 SCS Opposite-Spin Scale   =       1.2000000000000000 [-]
	 SCS Same-Spin Energy      =      -0.0896167781652375 [Eh]
	 SCS Opposite-Spin Energy  =      -1.0072019797980150 [Eh]
	 SCS Correlation Energy    =      -1.0968187579632525 [Eh]
	 SCS Total Energy          =    -247.8756215223978074 [Eh]
	-----------------------------------------------------------


*** tstop() called on node50.bme.utexas.edu at Thu Apr 23 18:47:09 2020
Module time:
	user time   =      31.71 seconds =       0.53 minutes
	system time =       0.87 seconds =       0.01 minutes
	total time  =          6 seconds =       0.10 minutes
Total time:
	user time   =     390.13 seconds =       6.50 minutes
	system time =       9.11 seconds =       0.15 minutes
	total time  =         62 seconds =       1.03 minutes

  //>>>>>>>>>>>>>>>>>>>>>>>>>>>>>>>>>>>>//
  // CBS Computation: MP2 / AUG-CC-PVQZ //
  //<<<<<<<<<<<<<<<<<<<<<<<<<<<<<<<<<<<<//


Scratch directory: /scratch/liuchw/

*** tstart() called on node50.bme.utexas.edu
*** at Thu Apr 23 18:47:09 2020

   => Loading Basis Set <=

    Name: AUG-CC-PVQZ
    Role: ORBITAL
    Keyword: BASIS
    atoms 1                     entry O          line   423 file /home/liuchw/anaconda3/envs/psi4env/share/psi4/basis/aug-cc-pvqz.gbs 
    atoms 2-3, 6, 8, 10, 12, 14 entry H          line    40 file /home/liuchw/anaconda3/envs/psi4env/share/psi4/basis/aug-cc-pvqz.gbs 
    atoms 4                     entry N          line   363 file /home/liuchw/anaconda3/envs/psi4env/share/psi4/basis/aug-cc-pvqz.gbs 
    atoms 5, 7, 9, 11, 13       entry C          line   303 file /home/liuchw/anaconda3/envs/psi4env/share/psi4/basis/aug-cc-pvqz.gbs 


         ---------------------------------------------------------
                                   SCF
               by Justin Turney, Rob Parrish, Andy Simmonett
                          and Daniel G. A. Smith
                              RHF Reference
                        8 Threads,  19073 MiB Core
         ---------------------------------------------------------

  ==> Geometry <==

[...]
     435A      3.161113   436A      3.185083   437A      3.185731  
     438A      3.205317   439A      3.229598   440A      3.239721  
     441A      3.243569   442A      3.268181   443A      3.270347  
     444A      3.290929   445A      3.293460   446A      3.312134  
     447A      3.321301   448A      3.332319   449A      3.334702  
     450A      3.342804   451A      3.380072   452A      3.381139  
     453A      3.386964   454A      3.388767   455A      3.418711  
     456A      3.440754   457A      3.453702   458A      3.462761  
     459A      3.469564   460A      3.480068   461A      3.512085  
     462A      3.532097   463A      3.558937   464A      3.568290  
     465A      3.582745   466A      3.583204   467A      3.603489  
     468A      3.621666   469A      3.640203   470A      3.649366  
     471A      3.657672   472A      3.671868   473A      3.675388  
     474A      3.703027   475A      3.718289   476A      3.738794  
     477A      3.747892   478A      3.748243   479A      3.752966  
     480A      3.764745   481A      3.787451   482A      3.804640  
     483A      3.819172   484A      3.832600   485A      3.850670  
     486A      3.868262   487A      3.886446   488A      3.892650  
     489A      3.903781   490A      3.918380   491A      3.920103  
     492A      3.924003   493A      3.945081   494A      3.956764  
     495A      3.976091   496A      3.980279   497A      3.990148  
     498A      4.019947   499A      4.035398   500A      4.050527  
     501A      4.062511   502A      4.073278   503A      4.081179  
     504A      4.087677   505A      4.091255   506A      4.125285  
     507A      4.145124   508A      4.149783   509A      4.175060  
     510A      4.180853   511A      4.188404   512A      4.202375  
     513A      4.217235   514A      4.234482   515A      4.260155  
     516A      4.270582   517A      4.292133   518A      4.309765  
     519A      4.310933   520A      4.314235   521A      4.331990  
     522A      4.347208   523A      4.363443   524A      4.382318  
     525A      4.400260   526A      4.403723   527A      4.410528  
     528A      4.427712   529A      4.439741   530A      4.470585  
     531A      4.476503   532A      4.478377   533A      4.498990  
     534A      4.499998   535A      4.506469   536A      4.540931  
     537A      4.560667   538A      4.564422   539A      4.591444  
     540A      4.619940   541A      4.626832   542A      4.640398  
     543A      4.669263   544A      4.679995   545A      4.711049  
     546A      4.719579   547A      4.719744   548A      4.760314  
     549A      4.798158   550A      4.818675   551A      4.843362  
     552A      4.850332   553A      4.863044   554A      4.895924  
     555A      4.897929   556A      4.903058   557A      4.927271  
     558A      4.927833   559A      4.947210   560A      4.959224  
     561A      4.972893   562A      4.974406   563A      4.997817  
     564A      5.029590   565A      5.049019   566A      5.072501  
     567A      5.113026   568A      5.124611   569A      5.148466  
     570A      5.165254   571A      5.220848   572A      5.229893  
     573A      5.242809   574A      5.245274   575A      5.339020  
     576A      5.366565   577A      5.409087   578A      5.430406  
     579A      5.444484   580A      5.482166   581A      5.532920  
     582A      5.544401   583A      5.553228   584A      5.629662  
     585A      5.698749   586A      5.707967   587A      5.722961  
     588A      5.754683   589A      5.821679   590A      5.835362  
     591A      5.839611   592A      5.843371   593A      5.893861  
     594A      5.947798   595A      5.958436   596A      5.986977  
     597A      5.991441   598A      6.008056   599A      6.040669  
     600A      6.082325   601A      6.099035   602A      6.118123  
     603A      6.118131   604A      6.150403   605A      6.151755  
     606A      6.161958   607A      6.184145   608A      6.213623  
     609A      6.213646   610A      6.309109   611A      6.316793  
     612A      6.317811   613A      6.379401   614A      6.382776  
     615A      6.431762   616A      6.433841   617A      6.463959  
     618A      6.466569   619A      6.497663   620A      6.543648  
     621A      6.556205   622A      6.577800   623A      6.599777  
     624A      6.600560   625A      6.605105   626A      6.611018  
     627A      6.650757   628A      6.652635   629A      6.661133  
     630A      6.673369   631A      6.674937   632A      6.711071  
     633A      6.716380   634A      6.745118   635A      6.789374  
     636A      6.803072   637A      6.805748   638A      6.840471  
     639A      6.855983   640A      6.865115   641A      6.866607  
     642A      6.891210   643A      6.905443   644A      6.917627  
     645A      6.924442   646A      6.928973   647A      6.943377  
     648A      6.969684   649A      6.984737   650A      7.001841  
     651A      7.002252   652A      7.026093   653A      7.026652  
     654A      7.032184   655A      7.050225   656A      7.074495  
     657A      7.085405   658A      7.090844   659A      7.120314  
     660A      7.159386   661A      7.164700   662A      7.167455  
     663A      7.185317   664A      7.221724   665A      7.221876  
     666A      7.230182   667A      7.260743   668A      7.296947  
     669A      7.314686   670A      7.319995   671A      7.325216  
     672A      7.369932   673A      7.400052   674A      7.402023  
     675A      7.405278   676A      7.415078   677A      7.462202  
     678A      7.498067   679A      7.507227   680A      7.541384  
     681A      7.578375   682A      7.585683   683A      7.598681  
     684A      7.644726   685A      7.646723   686A      7.679794  
     687A      7.700328   688A      7.741559   689A      7.750083  
     690A      7.781116   691A      7.790938   692A      7.791430  
     693A      7.803654   694A      7.804483   695A      7.822147  
     696A      7.839857   697A      7.855595   698A      7.856530  
     699A      7.872838   700A      7.898452   701A      7.924188  
     702A      7.952674   703A      7.957839   704A      7.976639  
     705A      8.006350   706A      8.006359   707A      8.012377  
     708A      8.023468   709A      8.056001   710A      8.066150  
     711A      8.071228   712A      8.095534   713A      8.111536  
     714A      8.144067   715A      8.160998   716A      8.169559  
     717A      8.226288   718A      8.277022   719A      8.288859  
     720A      8.319121   721A      8.319245   722A      8.359377  
     723A      8.375355   724A      8.395071   725A      8.452795  
     726A      8.496905   727A      8.528557   728A      8.577804  
     729A      8.622435   730A      8.632356   731A      8.639383  
     732A      8.654762   733A      8.691644   734A      8.694245  
     735A      8.715967   736A      8.716697   737A      8.729053  
     738A      8.731709   739A      8.767234   740A      8.786026  
     741A      8.816181   742A      8.827193   743A      8.866012  
     744A      8.868321   745A      8.892074   746A      8.898037  
     747A      8.921877   748A      8.941525   749A      8.951066  
     750A      8.953939   751A      8.954756   752A      8.961239  
     753A      9.033569   754A      9.050081   755A      9.079111  
     756A      9.086406   757A      9.105829   758A      9.131398  
     759A      9.135840   760A      9.178282   761A      9.204084  
     762A      9.216628   763A      9.227731   764A      9.248308  
     765A      9.262378   766A      9.319379   767A      9.341242  
     768A      9.393168   769A      9.398733   770A      9.408873  
     771A      9.434607   772A      9.442775   773A      9.512300  
     774A      9.547955   775A      9.549659   776A      9.565489  
     777A      9.591530   778A      9.593337   779A      9.606287  
     780A      9.667534   781A      9.718763   782A      9.722758  
     783A      9.735987   784A      9.760737   785A      9.791567  
     786A      9.794078   787A      9.865605   788A      9.921910  
     789A      9.942094   790A      9.960175   791A      9.964805  
     792A      9.978925   793A      9.979286   794A     10.017388  
     795A     10.019963   796A     10.024437   797A     10.025100  
     798A     10.029823   799A     10.068480   800A     10.097559  
     801A     10.227534   802A     10.234248   803A     10.239000  
     804A     10.252443   805A     10.301780   806A     10.329487  
     807A     10.333263   808A     10.374599   809A     10.384713  
     810A     10.397876   811A     10.488362   812A     10.491980  
     813A     10.493181   814A     10.503295   815A     10.523289  
     816A     10.540534   817A     10.589169   818A     10.645804  
     819A     10.715273   820A     10.724086   821A     10.770309  
     822A     10.779474   823A     10.788901   824A     10.796534  
     825A     10.855324   826A     10.896725   827A     10.907268  
     828A     11.052858   829A     11.095727   830A     11.130903  
     831A     11.143074   832A     11.203417   833A     11.210368  
     834A     11.329483   835A     11.369239   836A     11.372067  
     837A     11.391632   838A     11.436529   839A     11.476689  
     840A     11.480332   841A     11.500107   842A     11.565946  
     843A     11.653229   844A     11.676981   845A     11.717906  
     846A     11.779636   847A     11.812883   848A     11.867457  
     849A     11.942469   850A     11.964811   851A     12.076939  
     852A     12.269255   853A     12.287882   854A     12.301344  
     855A     12.492552   856A     12.723365   857A     12.727039  
     858A     12.794551   859A     12.873279   860A     12.889593  
     861A     12.969527   862A     13.221248   863A     13.240168  
     864A     13.369374   865A     13.386840   866A     13.531114  
     867A     13.601034   868A     13.995263   869A     14.211776  
     870A     14.536147   871A     14.821759   872A     14.931272  
     873A     15.274357   874A     16.951341   875A     17.341078  
     876A     26.194394   877A     26.343286   878A     26.553055  
     879A     26.958625   880A     27.202502   881A     34.261537  
     882A     45.748922  

    Final Occupation by Irrep:
              A 
    DOCC [    26 ]

  @DF-RHF Final Energy:  -322.86397578747096

   => Energetics <=

    Nuclear Repulsion Energy =            261.9176360254393785
    One-Electron Energy =                -957.2217155921404128
    Two-Electron Energy =                 372.4401037792300713
    Total Energy =                       -322.8639757874709630

Computation Completed


Properties will be evaluated at   0.000000,   0.000000,   0.000000 [a0]

Properties computed using the SCF density matrix

  Nuclear Dipole Moment: [e a0]
     X:    -0.5072      Y:     0.6495      Z:     0.0002

  Electronic Dipole Moment: [e a0]
     X:     2.0678      Y:    -0.0549      Z:     0.0004

  Dipole Moment: [e a0]
     X:     1.5606      Y:     0.5946      Z:     0.0005     Total:     1.6701

  Dipole Moment: [D]
     X:     3.9667      Y:     1.5113      Z:     0.0013     Total:     4.2448


*** tstop() called on node50.bme.utexas.edu at Thu Apr 23 18:50:19 2020
Module time:
	user time   =     277.46 seconds =       4.62 minutes
	system time =       5.69 seconds =       0.09 minutes
	total time  =         39 seconds =       0.65 minutes
Total time:
	user time   =    1608.82 seconds =      26.81 minutes
	system time =      39.48 seconds =       0.66 minutes
	total time  =        252 seconds =       4.20 minutes

*** tstart() called on node50.bme.utexas.edu
*** at Thu Apr 23 18:50:19 2020


  //>>>>>>>>>>>>>>>>>>>>>>>>>>>>>>>>>>>//
  //               DFMP2               //
  //<<<<<<<<<<<<<<<<<<<<<<<<<<<<<<<<<<<//

   => Loading Basis Set <=

    Name: (AUG-CC-PVQZ AUX)
    Role: RIFIT
    Keyword: DF_BASIS_MP2
    atoms 1                     entry O          line   332 file /home/liuchw/anaconda3/envs/psi4env/share/psi4/basis/aug-cc-pvqz-ri.gbs 
    atoms 2-3, 6, 8, 10, 12, 14 entry H          line    30 file /home/liuchw/anaconda3/envs/psi4env/share/psi4/basis/aug-cc-pvqz-ri.gbs 
    atoms 4                     entry N          line   258 file /home/liuchw/anaconda3/envs/psi4env/share/psi4/basis/aug-cc-pvqz-ri.gbs 
    atoms 5, 7, 9, 11, 13       entry C          line   184 file /home/liuchw/anaconda3/envs/psi4env/share/psi4/basis/aug-cc-pvqz-ri.gbs 

	 --------------------------------------------------------
	                          DF-MP2                         
	      2nd-Order Density-Fitted Moller-Plesset Theory     
	              RMP2 Wavefunction,   8 Threads             
	                                                         
	        Rob Parrish, Justin Turney, Andy Simmonett,      
	           Ed Hohenstein, and C. David Sherrill          
	 --------------------------------------------------------

   => Auxiliary Basis Set <=

  Basis Set: (AUG-CC-PVQZ AUX)
    Blend: AUG-CC-PVQZ-RI
    Number of shells: 392
    Number of basis function: 1736
    Number of Cartesian functions: 2394
    Spherical Harmonics?: true
    Max angular momentum: 5

	 --------------------------------------------------------
	                 NBF =   882, NAUX =  1736
	 --------------------------------------------------------
	   CLASS    FOCC     OCC    AOCC    AVIR     VIR    FVIR
	   PAIRS       0      26      26     856     856       0
	 --------------------------------------------------------

	-----------------------------------------------------------
	 ==================> DF-MP2 Energies <==================== 
	-----------------------------------------------------------
	 Reference Energy          =    -322.8639757874709630 [Eh]
	 Singles Energy            =      -0.0000000000000000 [Eh]
	 Same-Spin Energy          =      -0.3577774764698760 [Eh]
	 Opposite-Spin Energy      =      -1.1878877770830338 [Eh]
	 Correlation Energy        =      -1.5456652535529098 [Eh]
	 Total Energy              =    -324.4096410410238605 [Eh]
	-----------------------------------------------------------
	 ================> DF-SCS-MP2 Energies <================== 
	-----------------------------------------------------------
	 SCS Same-Spin Scale       =       0.3333333333333333 [-]
	 SCS Opposite-Spin Scale   =       1.2000000000000000 [-]
	 SCS Same-Spin Energy      =      -0.1192591588232920 [Eh]
	 SCS Opposite-Spin Energy  =      -1.4254653324996405 [Eh]
	 SCS Correlation Energy    =      -1.5447244913229325 [Eh]
	 SCS Total Energy          =    -324.4087002787939014 [Eh]
	-----------------------------------------------------------


*** tstop() called on node50.bme.utexas.edu at Thu Apr 23 18:50:47 2020
Module time:
	user time   =     152.36 seconds =       2.54 minutes
	system time =       3.60 seconds =       0.06 minutes
	total time  =         28 seconds =       0.47 minutes
Total time:
	user time   =    1761.19 seconds =      29.35 minutes
	system time =      43.08 seconds =       0.72 minutes
	total time  =        280 seconds =       4.67 minutes

  //>>>>>>>>>>>>>>>>>>>>>>>>>>>>>>>>>>>//
  //  CBS Results: mp2/aug-cc-pv[tq]z  //
  //<<<<<<<<<<<<<<<<<<<<<<<<<<<<<<<<<<<//


   ==> HF <==

   HI-zeta (4) Energy:               -322.863975787471


   ==> Helgaker 2-point correlated extrapolation for method: MP2 <==

   LO-zeta (3) Energy:               -324.238770615958
   HI-zeta (4) Energy:               -324.409641041024
   Alpha (exponent) Value:             3.000000000000
   Extrapolated Energy:              -324.534330270126

   @Extrapolated MP2/(T,Q):          -324.534330270126



   ==> Helgaker 2-point correlated extrapolation for method: HF <==

   LO-zeta (3) Energy:               -322.844536269035
   HI-zeta (4) Energy:               -322.863975787471
   Alpha (exponent) Value:             3.000000000000
   Extrapolated Energy:              -322.878161382006

   @Extrapolated HF/(T,Q):           -322.878161382006


   ==> Components <==

  ---------------------------------------------------------------------------------------------------------
                          Method / Basis                      Rqd      Energy [Eh]   Variable
  ---------------------------------------------------------------------------------------------------------
                              hf / aug-cc-pvtz                  *    -322.84453627   HF TOTAL ENERGY
                             mp2 / aug-cc-pvtz                  *    -324.23877062   MP2 TOTAL ENERGY
                              hf / aug-cc-pvqz                  *    -322.86397579   HF TOTAL ENERGY
                             mp2 / aug-cc-pvqz                  *    -324.40964104   MP2 TOTAL ENERGY
  ---------------------------------------------------------------------------------------------------------

   ==> Stages <==

  ---------------------------------------------------------------------------------------------------------
      Stage               Method / Basis                       Wt      Energy [Eh]   Scheme
  ---------------------------------------------------------------------------------------------------------
        scf                   hf / aug-cc-pvqz                  1    -322.86397579   xtpl_highest_1
       corl                  mp2 / aug-cc-pv[tq]z               1    -324.53433027   corl_xtpl_helgaker_2
       corl                   hf / aug-cc-pv[tq]z              -1    -322.87816138   corl_xtpl_helgaker_2
  ---------------------------------------------------------------------------------------------------------

   ==> CBS <==

  ---------------------------------------------------------------------------------------------------------
      Stage               Method / Basis                               Energy [Eh]   Scheme
  ---------------------------------------------------------------------------------------------------------
        scf                   hf / aug-cc-pvqz                       -322.86397579   xtpl_highest_1
       corl                  mp2 / aug-cc-pv[tq]z                      -1.65616889   corl_xtpl_helgaker_2
      total                  CBS                                     -324.52014468   
  ---------------------------------------------------------------------------------------------------------
   => Loading Basis Set <=

    Name: DEF2-SVP
    Role: ORBITAL
    Keyword: BASIS
    atoms 1                     entry O          line   130 file /home/liuchw/anaconda3/envs/psi4env/share/psi4/basis/def2-svp.gbs 
    atoms 2-3, 6, 8, 10, 12, 14 entry H          line    15 file /home/liuchw/anaconda3/envs/psi4env/share/psi4/basis/def2-svp.gbs 
    atoms 4                     entry N          line   110 file /home/liuchw/anaconda3/envs/psi4env/share/psi4/basis/def2-svp.gbs 
    atoms 5, 7, 9, 11, 13       entry C          line    90 file /home/liuchw/anaconda3/envs/psi4env/share/psi4/basis/def2-svp.gbs 


       N-Body: Complex Energy (fragments = (1, 2), basis = (1, 2):  -324.52014467559133)

   ==> N-Body: Counterpoise Corrected (CP) energies <==

   n-Body     Total Energy [Eh]       I.E. [kcal/mol]      Delta [kcal/mol]
        1     -324.513066245864        0.000000000000        0.000000000000
        2     -324.520319980458       -4.551787178236       -4.551787178236

   => Loading Basis Set <=

    Name: DEF2-SVP
    Role: ORBITAL
    Keyword: BASIS
    atoms 1                     entry O          line   130 file /home/liuchw/anaconda3/envs/psi4env/share/psi4/basis/def2-svp.gbs 
    atoms 2-3, 6, 8, 10, 12, 14 entry H          line    15 file /home/liuchw/anaconda3/envs/psi4env/share/psi4/basis/def2-svp.gbs 
    atoms 4                     entry N          line   110 file /home/liuchw/anaconda3/envs/psi4env/share/psi4/basis/def2-svp.gbs 
    atoms 5, 7, 9, 11, 13       entry C          line    90 file /home/liuchw/anaconda3/envs/psi4env/share/psi4/basis/def2-svp.gbs 


    Psi4 stopped on: Thursday, 23 April 2020 06:50PM
    Psi4 wall time for execution: 0:04:41.64

*** Psi4 exiting successfully. Buy a developer a beer!
