
    -----------------------------------------------------------------------
          Psi4: An Open-Source Ab Initio Electronic Structure Package
                               Psi4 1.4a2.dev224 

                         Git: Rev {master} e453b16 


    R. M. Parrish, L. A. Burns, D. G. A. Smith, A. C. Simmonett,
    A. E. DePrince III, E. G. Hohenstein, U. Bozkaya, A. Yu. Sokolov,
    R. Di Remigio, R. M. Richard, J. F. Gonthier, A. M. James,
    H. R. McAlexander, A. Kumar, M. Saitow, X. Wang, B. P. Pritchard,
    P. Verma, H. F. Schaefer III, K. Patkowski, R. A. King, E. F. Valeev,
    F. A. Evangelista, J. M. Turney, T. D. Crawford, and C. D. Sherrill,
    J. Chem. Theory Comput. 13(7) pp 3185--3197 (2017).
    (doi: 10.1021/acs.jctc.7b00174)


                         Additional Contributions by
    P. Kraus, H. Kruse, M. H. Lechner, M. C. Schieber, R. A. Shaw,
    A. Alenaizan, R. Galvelis, Z. L. Glick, S. Lehtola, and J. P. Misiewicz

    -----------------------------------------------------------------------


    Psi4 started on: Thursday, 23 April 2020 06:51PM

    Process ID: 54128
    Host:       node97.bme.utexas.edu
    PSIDATADIR: /home/liuchw/anaconda3/envs/psi4env/share/psi4
    Memory:     500.0 MiB
    Threads:    8
    
  ==> Input File <==

--------------------------------------------------------------------------
#Generated by lconvert.py for cbs job

memory 20 GB

molecule  {
0 1
  O      -0.627650    0.087470    0.001470
  H       0.343600    0.122300   -0.000600
  C      -0.977930   -1.278560    0.001240
  H      -2.063390   -1.342040    0.005010
  H      -0.614880   -1.806380   -0.885380
  H      -0.608640   -1.808240    0.884170
--
0 1
  N       2.878510   -0.016840   -0.001950
  C       3.574880   -0.041280   -1.146670
  H       2.990400   -0.018050   -2.057640
  C       4.964520   -0.091020   -1.195350
  H       5.471870   -0.108310   -2.149140
  C       5.674890   -0.116730    0.000260
  H       6.755230   -0.154500    0.001110
  C       4.962640   -0.091710    1.194800
  H       5.468440   -0.109540    2.149280
  C       3.573090   -0.041960    1.143840
  H       2.987080   -0.019290    2.053960
units angstrom
no_reorient
symmetry c1
}

set {
scf_type DF
mp2_type DF
e_convergence 7
reference rhf
}

energy('mp2/aug-cc-pv[tq]z', bsse_type='cp')
--------------------------------------------------------------------------

  Memory set to  18.626 GiB by Python driver.

Scratch directory: /scratch/liuchw/


   ===> N-Body Interaction Abacus <===
        BSSE Treatment:                     cp
        Number of 1-body computations:     4
        Number of 2-body computations:     1

   ==> N-Body: Now computing 1-body complexes <==


       N-Body: Computing complex (1/4) with fragments (2,) in the basis of fragments (2,).


Scratch directory: /scratch/liuchw/

  //>>>>>>>>>>>>>>>>>>>>>>>>>>>>>>>>>>>//
  //   CBS Setup: mp2/aug-cc-pv[tq]z   //
  //<<<<<<<<<<<<<<<<<<<<<<<<<<<<<<<<<<<//

    Naive listing of computations required.
             hf / aug-cc-pvqz              for  HF TOTAL ENERGY
            mp2 / aug-cc-pvtz              for  MP2 TOTAL ENERGY
            mp2 / aug-cc-pvqz              for  MP2 TOTAL ENERGY
             hf / aug-cc-pvtz              for  HF TOTAL ENERGY
             hf / aug-cc-pvqz              for  HF TOTAL ENERGY

    Enlightened listing of computations required.
            mp2 / aug-cc-pvtz              for  MP2 TOTAL ENERGY
            mp2 / aug-cc-pvqz              for  MP2 TOTAL ENERGY

    Full listing of computations to be obtained (required and bonus).
             hf / aug-cc-pvtz              for  HF TOTAL ENERGY
            mp2 / aug-cc-pvtz              for  MP2 TOTAL ENERGY
             hf / aug-cc-pvqz              for  HF TOTAL ENERGY
            mp2 / aug-cc-pvqz              for  MP2 TOTAL ENERGY

  //>>>>>>>>>>>>>>>>>>>>>>>>>>>>>>>>>>>>//
  // CBS Computation: MP2 / AUG-CC-PVTZ //
  //<<<<<<<<<<<<<<<<<<<<<<<<<<<<<<<<<<<<//


Scratch directory: /scratch/liuchw/

*** tstart() called on node97.bme.utexas.edu
*** at Thu Apr 23 18:51:38 2020

   => Loading Basis Set <=

    Name: AUG-CC-PVTZ
    Role: ORBITAL
    Keyword: BASIS
    atoms 1              entry N          line   285 file /home/liuchw/anaconda3/envs/psi4env/share/psi4/basis/aug-cc-pvtz.gbs 
    atoms 2, 4, 6, 8, 10 entry C          line   239 file /home/liuchw/anaconda3/envs/psi4env/share/psi4/basis/aug-cc-pvtz.gbs 
    atoms 3, 5, 7, 9, 11 entry H          line    40 file /home/liuchw/anaconda3/envs/psi4env/share/psi4/basis/aug-cc-pvtz.gbs 


         ---------------------------------------------------------
                                   SCF
               by Justin Turney, Rob Parrish, Andy Simmonett
                          and Daniel G. A. Smith
                              RHF Reference
                        8 Threads,  19073 MiB Core
         ---------------------------------------------------------

  ==> Geometry <==

    Molecular point group: c1
    Full point group: C1

    Geometry (in Angstrom), charge = 0, multiplicity = 1:

       Center              X                  Y                   Z               Mass       
    ------------   -----------------  -----------------  -----------------  -----------------
         N            0.065597039146     0.199755705268    -0.001719714506    14.003074004430
         C            0.761967039146     0.175315705268    -1.146439714506    12.000000000000
         H            0.177487039146     0.198545705268    -2.057409714506     1.007825032230
         C            2.151607039146     0.125575705268    -1.195119714506    12.000000000000
         H            2.658957039146     0.108285705268    -2.148909714506     1.007825032230
         C            2.861977039146     0.099865705268     0.000490285494    12.000000000000
         H            3.942317039146     0.062095705268     0.001340285494     1.007825032230
         C            2.149727039146     0.124885705268     1.195030285494    12.000000000000
         H            2.655527039146     0.107055705268     2.149510285494     1.007825032230
         C            0.760177039146     0.174635705268     1.144070285494    12.000000000000
         H            0.174167039146     0.197305705268     2.054190285494     1.007825032230

  Running in c1 symmetry.

  Rotational constants: A =      0.19906  B =      0.06608  C =      0.04993 [cm^-1]
  Rotational constants: A =   5967.77674  B =   1980.97991  C =   1496.97249 [MHz]
  Nuclear repulsion =  206.284346948697049

  Charge       = 0
  Multiplicity = 1
  Electrons    = 42
  Nalpha       = 21
  Nbeta        = 21

  ==> Algorithm <==

  SCF Algorithm Type is DF.
  DIIS enabled.
  MOM disabled.
  Fractional occupation disabled.
  Guess Type is SAD.
  Energy threshold   = 1.00e-07
  Density threshold  = 1.00e-08
  Integral threshold = 0.00e+00

  ==> Primary Basis <==

  Basis Set: AUG-CC-PVTZ
    Blend: AUG-CC-PVTZ
    Number of shells: 129
    Number of basis function: 391
    Number of Cartesian functions: 455
    Spherical Harmonics?: true
    Max angular momentum: 3

   => Loading Basis Set <=

    Name: (AUG-CC-PVTZ AUX)
    Role: JKFIT
    Keyword: DF_BASIS_SCF
    atoms 1              entry N          line   224 file /home/liuchw/anaconda3/envs/psi4env/share/psi4/basis/aug-cc-pvtz-jkfit.gbs 
    atoms 2, 4, 6, 8, 10 entry C          line   162 file /home/liuchw/anaconda3/envs/psi4env/share/psi4/basis/aug-cc-pvtz-jkfit.gbs 
    atoms 3, 5, 7, 9, 11 entry H          line    70 file /home/liuchw/anaconda3/envs/psi4env/share/psi4/basis/aug-cc-pvtz-jkfit.gbs 

  ==> Pre-Iterations <==

   -------------------------------------------------------
    Irrep   Nso     Nmo     Nalpha   Nbeta   Ndocc  Nsocc
   -------------------------------------------------------
     A        391     391       0       0       0       0
   -------------------------------------------------------
    Total     391     391      21      21      21       0
   -------------------------------------------------------

  ==> Integral Setup <==

  DFHelper Memory: AOs need 1.009 GiB; user supplied 13.970 GiB. Using in-core AOs.

  ==> MemDFJK: Density-Fitted J/K Matrices <==

    J tasked:                   Yes
    K tasked:                   Yes
    wK tasked:                   No
    OpenMP threads:               8
    Memory [MiB]:             14305
    Algorithm:                 Core
    Schwarz Cutoff:           1E-12
    Mask sparsity (%):       0.8883
    Fitting Condition:        1E-10

   => Auxiliary Basis Set <=

  Basis Set: (AUG-CC-PVTZ AUX)
    Blend: AUG-CC-PVTZ-JKFIT
    Number of shells: 250
    Number of basis function: 854
    Number of Cartesian functions: 1061
    Spherical Harmonics?: true
    Max angular momentum: 4

  Minimum eigenvalue in the overlap matrix is 2.3280809514E-06.
  Using Symmetric Orthogonalization.

  SCF Guess: Superposition of Atomic Densities via on-the-fly atomic UHF.

  ==> Iterations <==

                           Total Energy        Delta E     RMS |[F,P]|

   @DF-RHF iter SAD:  -246.16057259193917   -2.46161e+02   0.00000e+00 
   @DF-RHF iter   1:  -246.63284551731994   -4.72273e-01   1.26362e-03 DIIS
   @DF-RHF iter   2:  -246.75308152978093   -1.20236e-01   5.81261e-04 DIIS
   @DF-RHF iter   3:  -246.77726816790798   -2.41866e-02   1.12328e-04 DIIS
   @DF-RHF iter   4:  -246.77865476489950   -1.38660e-03   3.34742e-05 DIIS
   @DF-RHF iter   5:  -246.77873817296933   -8.34081e-05   1.07321e-05 DIIS
   @DF-RHF iter   6:  -246.77874880605228   -1.06331e-05   2.46912e-06 DIIS
   @DF-RHF iter   7:  -246.77874957961146   -7.73559e-07   8.79102e-07 DIIS
   @DF-RHF iter   8:  -246.77874968124587   -1.01634e-07   3.74204e-07 DIIS
   @DF-RHF iter   9:  -246.77874971287372   -3.16278e-08   1.10797e-07 DIIS
   @DF-RHF iter  10:  -246.77874971713558   -4.26186e-09   4.06336e-08 DIIS
   @DF-RHF iter  11:  -246.77874971790399   -7.68409e-10   2.42624e-08 DIIS
   @DF-RHF iter  12:  -246.77874971809734   -1.93353e-10   6.80978e-09 DIIS
  Energy and wave function converged.


  ==> Post-Iterations <==

    Orbital Energies [Eh]
    ---------------------

    Doubly Occupied:                                                      

       1A    -15.566640     2A    -11.275252     3A    -11.275234  
       4A    -11.260451     5A    -11.242478     6A    -11.242425  
       7A     -1.256608     8A     -1.089686     9A     -1.034766  
      10A     -0.859653    11A     -0.856474    12A     -0.722524  
      13A     -0.660917    14A     -0.654826    15A     -0.599772  
      16A     -0.577240    17A     -0.541426    18A     -0.521088  
      19A     -0.418475    20A     -0.383788    21A     -0.348576  

    Virtual:                                                              

      22A      0.026164    23A      0.033282    24A      0.037744  
      25A      0.048790    26A      0.053300    27A      0.077815  
      28A      0.091172    29A      0.100342    30A      0.101928  
      31A      0.104065    32A      0.108687    33A      0.109261  
      34A      0.110357    35A      0.116559    36A      0.118804  
      37A      0.129017    38A      0.130997    39A      0.141780  
      40A      0.148445    41A      0.150966    42A      0.151985  
      43A      0.157315    44A      0.158527    45A      0.196849  
      46A      0.223534    47A      0.240930    48A      0.242685  
      49A      0.243841    50A      0.254339    51A      0.256714  
      52A      0.270146    53A      0.272428    54A      0.285296  
      55A      0.291341    56A      0.292461    57A      0.304034  
      58A      0.306052    59A      0.321932    60A      0.326887  
      61A      0.334620    62A      0.339969    63A      0.341643  
      64A      0.352376    65A      0.353978    66A      0.373422  
      67A      0.384863    68A      0.400190    69A      0.409569  
      70A      0.419136    71A      0.429157    72A      0.432916  
      73A      0.433055    74A      0.439707    75A      0.441440  
      76A      0.451747    77A      0.460369    78A      0.464961  
      79A      0.471185    80A      0.476235    81A      0.480654  
      82A      0.490658    83A      0.493619    84A      0.496798  
      85A      0.510547    86A      0.523541    87A      0.535392  
      88A      0.541691    89A      0.542126    90A      0.544149  
      91A      0.561541    92A      0.589849    93A      0.614659  
      94A      0.616022    95A      0.620679    96A      0.625602  
      97A      0.634626    98A      0.648624    99A      0.650898  
     100A      0.651988   101A      0.672071   102A      0.696110  
     103A      0.710388   104A      0.713564   105A      0.732809  
     106A      0.739860   107A      0.767879   108A      0.771507  
     109A      0.775556   110A      0.779217   111A      0.794380  
     112A      0.801216   113A      0.816204   114A      0.834105  
     115A      0.836330   116A      0.845476   117A      0.849228  
     118A      0.863490   119A      0.882227   120A      0.883281  
     121A      0.885674   122A      0.887684   123A      0.903215  
     124A      0.925800   125A      0.931249   126A      0.937340  
     127A      0.949505   128A      0.953536   129A      0.955686  
     130A      0.959976   131A      0.986103   132A      0.989439  
     133A      1.006342   134A      1.007358   135A      1.014645  
     136A      1.040992   137A      1.044768   138A      1.064507  
     139A      1.070731   140A      1.071712   141A      1.074761  
     142A      1.081184   143A      1.086824   144A      1.088746  
     145A      1.111791   146A      1.113247   147A      1.141234  
     148A      1.152623   149A      1.168699   150A      1.170694  
     151A      1.176535   152A      1.184664   153A      1.186965  
     154A      1.186990   155A      1.195591   156A      1.197914  
     157A      1.209540   158A      1.222473   159A      1.226540  
     160A      1.240136   161A      1.268040   162A      1.275247  
     163A      1.280913   164A      1.287768   165A      1.291615  
     166A      1.297514   167A      1.351135   168A      1.374471  
     169A      1.403174   170A      1.424344   171A      1.443722  
     172A      1.446293   173A      1.460459   174A      1.495935  
     175A      1.504322   176A      1.510530   177A      1.518436  
     178A      1.537357   179A      1.540800   180A      1.587028  
     181A      1.597627   182A      1.629701   183A      1.630921  
     184A      1.669509   185A      1.687100   186A      1.693880  
     187A      1.708201   188A      1.713534   189A      1.717262  
     190A      1.743799   191A      1.758285   192A      1.779048  
     193A      1.786172   194A      1.804761   195A      1.826478  
     196A      1.835942   197A      1.846841   198A      1.855078  
     199A      1.874216   200A      1.883152   201A      1.887986  
     202A      1.914387   203A      1.948539   204A      1.957468  
     205A      1.961796   206A      1.963946   207A      2.013517  
     208A      2.024251   209A      2.025597   210A      2.038704  
     211A      2.040450   212A      2.040479   213A      2.069845  
     214A      2.084962   215A      2.095143   216A      2.130568  
     217A      2.145352   218A      2.156310   219A      2.162392  
     220A      2.163960   221A      2.214873   222A      2.215668  
     223A      2.249633   224A      2.252350   225A      2.295396  
     226A      2.317062   227A      2.359067   228A      2.375879  
     229A      2.387075   230A      2.409049   231A      2.429510  
     232A      2.435411   233A      2.448460   234A      2.511920  
     235A      2.534053   236A      2.542156   237A      2.584476  
     238A      2.646468   239A      2.658690   240A      2.674318  
     241A      2.674673   242A      2.807696   243A      2.809405  
     244A      2.816877   245A      2.914677   246A      2.923608  
     247A      2.973276   248A      2.987902   249A      3.047933  
     250A      3.048503   251A      3.136191   252A      3.159670  
     253A      3.162244   254A      3.248651   255A      3.260546  
     256A      3.304286   257A      3.310445   258A      3.317412  
     259A      3.345777   260A      3.356004   261A      3.386195  
     262A      3.406996   263A      3.407529   264A      3.430103  
     265A      3.431437   266A      3.453975   267A      3.473312  
     268A      3.495207   269A      3.533843   270A      3.544469  
     271A      3.552155   272A      3.563542   273A      3.564655  
     274A      3.579717   275A      3.637538   276A      3.653775  
     277A      3.686110   278A      3.703997   279A      3.712008  
     280A      3.731874   281A      3.764647   282A      3.773458  
     283A      3.774121   284A      3.819859   285A      3.839956  
     286A      3.858908   287A      3.863683   288A      3.874773  
     289A      3.895320   290A      3.922190   291A      3.924477  
     292A      3.952994   293A      3.975855   294A      3.991097  
     295A      3.996039   296A      4.034399   297A      4.043927  
     298A      4.068588   299A      4.090239   300A      4.099794  
     301A      4.129244   302A      4.131763   303A      4.137910  
     304A      4.144306   305A      4.169674   306A      4.206488  
     307A      4.223972   308A      4.226693   309A      4.229246  
     310A      4.266276   311A      4.272649   312A      4.331195  
     313A      4.370977   314A      4.381669   315A      4.413508  
     316A      4.428841   317A      4.436166   318A      4.440480  
     319A      4.466811   320A      4.520052   321A      4.521158  
     322A      4.522187   323A      4.564371   324A      4.648804  
     325A      4.664180   326A      4.695567   327A      4.744974  
     328A      4.755802   329A      4.791268   330A      4.838999  
     331A      4.872300   332A      4.889891   333A      4.900915  
     334A      4.935079   335A      4.959122   336A      4.968075  
     337A      4.989012   338A      5.023978   339A      5.039219  
     340A      5.062826   341A      5.078940   342A      5.107472  
     343A      5.120850   344A      5.142039   345A      5.146176  
     346A      5.196868   347A      5.223544   348A      5.227082  
     349A      5.234752   350A      5.329780   351A      5.384061  
     352A      5.397871   353A      5.402814   354A      5.431577  
     355A      5.447447   356A      5.478051   357A      5.518075  
     358A      5.527821   359A      5.590124   360A      5.606290  
     361A      5.656431   362A      5.780335   363A      5.795779  
     364A      5.814355   365A      5.854357   366A      5.869392  
     367A      5.910607   368A      5.913506   369A      5.980006  
     370A      6.080762   371A      6.118970   372A      6.199201  
     373A      6.227285   374A      6.300315   375A      6.396586  
     376A      6.509606   377A      6.670577   378A      6.680949  
     379A      6.684033   380A      6.740972   381A      6.819633  
     382A      6.880573   383A      7.078208   384A      7.096217  
     385A      7.488604   386A     15.501785   387A     16.296362  
     388A     18.273575   389A     18.587265   390A     19.206963  
     391A     19.274885  

    Final Occupation by Irrep:
              A 
    DOCC [    21 ]

  @DF-RHF Final Energy:  -246.77874971809734

   => Energetics <=

    Nuclear Repulsion Energy =            206.2843469486970491
    One-Electron Energy =                -741.3495939097841756
    Two-Electron Energy =                 288.2864972429898103
    Total Energy =                       -246.7787497180973446

Computation Completed


Properties will be evaluated at   0.000000,   0.000000,   0.000000 [a0]

Properties computed using the SCF density matrix

  Nuclear Dipole Moment: [e a0]
     X:   117.5039      Y:    11.8547      Z:    -0.0475

  Electronic Dipole Moment: [e a0]
     X:  -116.5938      Y:   -11.8858      Z:     0.0482

  Dipole Moment: [e a0]
     X:     0.9100      Y:    -0.0311      Z:     0.0007     Total:     0.9106

  Dipole Moment: [D]
     X:     2.3131      Y:    -0.0789      Z:     0.0017     Total:     2.3144


*** tstop() called on node97.bme.utexas.edu at Thu Apr 23 18:51:44 2020
Module time:
	user time   =      41.68 seconds =       0.69 minutes
	system time =       1.09 seconds =       0.02 minutes
	total time  =          6 seconds =       0.10 minutes
Total time:
	user time   =      41.68 seconds =       0.69 minutes
	system time =       1.09 seconds =       0.02 minutes
	total time  =          6 seconds =       0.10 minutes

*** tstart() called on node97.bme.utexas.edu
*** at Thu Apr 23 18:51:44 2020


  //>>>>>>>>>>>>>>>>>>>>>>>>>>>>>>>>>>>//
  //               DFMP2               //
  //<<<<<<<<<<<<<<<<<<<<<<<<<<<<<<<<<<<//

   => Loading Basis Set <=

    Name: (AUG-CC-PVTZ AUX)
    Role: RIFIT
    Keyword: DF_BASIS_MP2
    atoms 1              entry N          line   206 file /home/liuchw/anaconda3/envs/psi4env/share/psi4/basis/aug-cc-pvtz-ri.gbs 
    atoms 2, 4, 6, 8, 10 entry C          line   148 file /home/liuchw/anaconda3/envs/psi4env/share/psi4/basis/aug-cc-pvtz-ri.gbs 
    atoms 3, 5, 7, 9, 11 entry H          line    30 file /home/liuchw/anaconda3/envs/psi4env/share/psi4/basis/aug-cc-pvtz-ri.gbs 

	 --------------------------------------------------------
	                          DF-MP2                         
	      2nd-Order Density-Fitted Moller-Plesset Theory     
	              RMP2 Wavefunction,   8 Threads             
	                                                         
	        Rob Parrish, Justin Turney, Andy Simmonett,      
	           Ed Hohenstein, and C. David Sherrill          
	 --------------------------------------------------------

   => Auxiliary Basis Set <=

  Basis Set: (AUG-CC-PVTZ AUX)
    Blend: AUG-CC-PVTZ-RI
    Number of shells: 238
    Number of basis function: 866
    Number of Cartesian functions: 1091
    Spherical Harmonics?: true
    Max angular momentum: 4

	 --------------------------------------------------------
	                 NBF =   391, NAUX =   866
	 --------------------------------------------------------
	   CLASS    FOCC     OCC    AOCC    AVIR     VIR    FVIR
	   PAIRS       0      21      21     370     370       0
	 --------------------------------------------------------

	-----------------------------------------------------------
	 ==================> DF-MP2 Energies <==================== 
	-----------------------------------------------------------
	 Reference Energy          =    -246.7787497180973446 [Eh]
	 Singles Energy            =      -0.0000000000000000 [Eh]
	 Same-Spin Energy          =      -0.2687957874015734 [Eh]
	 Opposite-Spin Energy      =      -0.8387689510323924 [Eh]
	 Correlation Energy        =      -1.1075647384339657 [Eh]
	 Total Energy              =    -247.8863144565313235 [Eh]
	-----------------------------------------------------------
	 ================> DF-SCS-MP2 Energies <================== 
	-----------------------------------------------------------
	 SCS Same-Spin Scale       =       0.3333333333333333 [-]
	 SCS Opposite-Spin Scale   =       1.2000000000000000 [-]
	 SCS Same-Spin Energy      =      -0.0895985958005245 [Eh]
	 SCS Opposite-Spin Energy  =      -1.0065227412388709 [Eh]
	 SCS Correlation Energy    =      -1.0961213370393954 [Eh]
	 SCS Total Energy          =    -247.8748710551367367 [Eh]
	-----------------------------------------------------------


*** tstop() called on node97.bme.utexas.edu at Thu Apr 23 18:51:47 2020
Module time:
	user time   =      19.56 seconds =       0.33 minutes
	system time =       0.60 seconds =       0.01 minutes
	total time  =          3 seconds =       0.05 minutes
Total time:
	user time   =      61.25 seconds =       1.02 minutes
	system time =       1.69 seconds =       0.03 minutes
	total time  =          9 seconds =       0.15 minutes

  //>>>>>>>>>>>>>>>>>>>>>>>>>>>>>>>>>>>>//
  // CBS Computation: MP2 / AUG-CC-PVQZ //
  //<<<<<<<<<<<<<<<<<<<<<<<<<<<<<<<<<<<<//


Scratch directory: /scratch/liuchw/

*** tstart() called on node97.bme.utexas.edu
*** at Thu Apr 23 18:51:47 2020

   => Loading Basis Set <=

    Name: AUG-CC-PVQZ
    Role: ORBITAL
    Keyword: BASIS
    atoms 1              entry N          line   363 file /home/liuchw/anaconda3/envs/psi4env/share/psi4/basis/aug-cc-pvqz.gbs 
    atoms 2, 4, 6, 8, 10 entry C          line   303 file /home/liuchw/anaconda3/envs/psi4env/share/psi4/basis/aug-cc-pvqz.gbs 
    atoms 3, 5, 7, 9, 11 entry H          line    40 file /home/liuchw/anaconda3/envs/psi4env/share/psi4/basis/aug-cc-pvqz.gbs 


         ---------------------------------------------------------
                                   SCF
               by Justin Turney, Rob Parrish, Andy Simmonett
                          and Daniel G. A. Smith
                              RHF Reference
                        8 Threads,  19073 MiB Core
         ---------------------------------------------------------

  ==> Geometry <==

    Molecular point group: c1
    Full point group: C1

    Geometry (in Angstrom), charge = 0, multiplicity = 1:

       Center              X                  Y                   Z               Mass       
    ------------   -----------------  -----------------  -----------------  -----------------
         N            0.065597039146     0.199755705268    -0.001719714506    14.003074004430
         C            0.761967039146     0.175315705268    -1.146439714506    12.000000000000
         H            0.177487039146     0.198545705268    -2.057409714506     1.007825032230
         C            2.151607039146     0.125575705268    -1.195119714506    12.000000000000
         H            2.658957039146     0.108285705268    -2.148909714506     1.007825032230
         C            2.861977039146     0.099865705268     0.000490285494    12.000000000000
         H            3.942317039146     0.062095705268     0.001340285494     1.007825032230
         C            2.149727039146     0.124885705268     1.195030285494    12.000000000000
         H            2.655527039146     0.107055705268     2.149510285494     1.007825032230
         C            0.760177039146     0.174635705268     1.144070285494    12.000000000000
         H            0.174167039146     0.197305705268     2.054190285494     1.007825032230

  Running in c1 symmetry.

  Rotational constants: A =      0.19906  B =      0.06608  C =      0.04993 [cm^-1]
  Rotational constants: A =   5967.77674  B =   1980.97991  C =   1496.97249 [MHz]
  Nuclear repulsion =  206.284346948697049

  Charge       = 0
  Multiplicity = 1
  Electrons    = 42
  Nalpha       = 21
  Nbeta        = 21

  ==> Algorithm <==

  SCF Algorithm Type is DF.
  DIIS enabled.
  MOM disabled.
  Fractional occupation disabled.
  Guess Type is SAD.
  Energy threshold   = 1.00e-07
  Density threshold  = 1.00e-08
  Integral threshold = 0.00e+00

  ==> Primary Basis <==

  Basis Set: AUG-CC-PVQZ
    Blend: AUG-CC-PVQZ
    Number of shells: 190
    Number of basis function: 710
    Number of Cartesian functions: 905
    Spherical Harmonics?: true
    Max angular momentum: 4

   => Loading Basis Set <=

    Name: (AUG-CC-PVQZ AUX)
    Role: JKFIT
    Keyword: DF_BASIS_SCF
    atoms 1              entry N          line   248 file /home/liuchw/anaconda3/envs/psi4env/share/psi4/basis/aug-cc-pvqz-jkfit.gbs 
    atoms 2, 4, 6, 8, 10 entry C          line   178 file /home/liuchw/anaconda3/envs/psi4env/share/psi4/basis/aug-cc-pvqz-jkfit.gbs 
    atoms 3, 5, 7, 9, 11 entry H          line    70 file /home/liuchw/anaconda3/envs/psi4env/share/psi4/basis/aug-cc-pvqz-jkfit.gbs 

  ==> Pre-Iterations <==

   -------------------------------------------------------
    Irrep   Nso     Nmo     Nalpha   Nbeta   Ndocc  Nsocc
   -------------------------------------------------------
     A        710     710       0       0       0       0
   -------------------------------------------------------
    Total     710     710      21      21      21       0
   -------------------------------------------------------

  ==> Integral Setup <==

  DFHelper Memory: AOs need 4.659 GiB; user supplied 13.970 GiB. Using in-core AOs.

  ==> MemDFJK: Density-Fitted J/K Matrices <==

    J tasked:                   Yes
    K tasked:                   Yes
    wK tasked:                   No
    OpenMP threads:               8
    Memory [MiB]:             14305
    Algorithm:                 Core
    Schwarz Cutoff:           1E-12
    Mask sparsity (%):       2.8955
    Fitting Condition:        1E-10

   => Auxiliary Basis Set <=

  Basis Set: (AUG-CC-PVQZ AUX)
    Blend: AUG-CC-PVQZ-JKFIT
    Number of shells: 294
    Number of basis function: 1232
    Number of Cartesian functions: 1693
    Spherical Harmonics?: true
    Max angular momentum: 5

  Minimum eigenvalue in the overlap matrix is 6.8829542106E-07.
  Using Symmetric Orthogonalization.

  SCF Guess: Superposition of Atomic Densities via on-the-fly atomic UHF.

  ==> Iterations <==

                           Total Energy        Delta E     RMS |[F,P]|

   @DF-RHF iter SAD:  -246.17060740248718   -2.46171e+02   0.00000e+00 
   @DF-RHF iter   1:  -246.64638810731626   -4.75781e-01   7.00208e-04 DIIS
   @DF-RHF iter   2:  -246.76699202709918   -1.20604e-01   3.22609e-04 DIIS
   @DF-RHF iter   3:  -246.79139859885618   -2.44066e-02   6.28550e-05 DIIS
   @DF-RHF iter   4:  -246.79280170216094   -1.40310e-03   1.83495e-05 DIIS
   @DF-RHF iter   5:  -246.79288487827677   -8.31761e-05   6.13964e-06 DIIS
   @DF-RHF iter   6:  -246.79289607573156   -1.11975e-05   1.39305e-06 DIIS
   @DF-RHF iter   7:  -246.79289687726586   -8.01534e-07   4.87152e-07 DIIS
   @DF-RHF iter   8:  -246.79289697947311   -1.02207e-07   2.10338e-07 DIIS
   @DF-RHF iter   9:  -246.79289701160241   -3.21293e-08   6.23639e-08 DIIS
   @DF-RHF iter  10:  -246.79289701599038   -4.38797e-09   2.28201e-08 DIIS
   @DF-RHF iter  11:  -246.79289701677871   -7.88333e-10   1.36620e-08 DIIS
   @DF-RHF iter  12:  -246.79289701698085   -2.02135e-10   3.85474e-09 DIIS
  Energy and wave function converged.


  ==> Post-Iterations <==

    Orbital Energies [Eh]
    ---------------------

    Doubly Occupied:                                                      

       1A    -15.564464     2A    -11.274199     3A    -11.274181  
       4A    -11.259391     5A    -11.241347     6A    -11.241294  
       7A     -1.256035     8A     -1.089281     9A     -1.034427  
      10A     -0.859446    11A     -0.856275    12A     -0.722561  
      13A     -0.660887    14A     -0.654811    15A     -0.599791  
      16A     -0.577282    17A     -0.541526    18A     -0.521140  
      19A     -0.418622    20A     -0.383874    21A     -0.348664  

    Virtual:                                                              

      22A      0.023040    23A      0.028862    24A      0.033224  
      25A      0.043040    26A      0.047120    27A      0.065897  
      28A      0.081906    29A      0.087662    30A      0.088924  
      31A      0.091294    32A      0.095076    33A      0.096010  
      34A      0.097162    35A      0.099873    36A      0.102477  
      37A      0.113006    38A      0.114982    39A      0.124432  
      40A      0.127434    41A      0.128366    42A      0.132016  
      43A      0.133571    44A      0.137015    45A      0.170425  
      46A      0.186599    47A      0.205013    48A      0.210263  
      49A      0.211653    50A      0.215842    51A      0.221526  
      52A      0.228900    53A      0.237148    54A      0.244850  
      55A      0.245544    56A      0.253925    57A      0.254144  
      58A      0.254304    59A      0.266455    60A      0.280585  
      61A      0.286266    62A      0.290066    63A      0.294041  
      64A      0.296062    65A      0.300012    66A      0.300962  
      67A      0.309189    68A      0.318613    69A      0.318822  
      70A      0.319886    71A      0.338417    72A      0.350135  
      73A      0.351295    74A      0.362366    75A      0.365046  
      76A      0.368853    77A      0.369270    78A      0.384163  
      79A      0.386137    80A      0.400033    81A      0.401049  
      82A      0.419806    83A      0.423562    84A      0.424979  
      85A      0.427392    86A      0.429596    87A      0.435207  
      88A      0.437175    89A      0.440388    90A      0.455734  
      91A      0.458789    92A      0.467848    93A      0.470325  
      94A      0.471210    95A      0.490795    96A      0.491036  
      97A      0.506046    98A      0.506848    99A      0.512901  
     100A      0.517843   101A      0.518517   102A      0.530077  
     103A      0.542474   104A      0.567220   105A      0.567247  
     106A      0.572360   107A      0.580605   108A      0.582467  
     109A      0.587611   110A      0.602939   111A      0.610176  
     112A      0.612433   113A      0.623681   114A      0.645240  
     115A      0.656251   116A      0.659277   117A      0.663321  
     118A      0.667913   119A      0.670027   120A      0.674993  
     121A      0.702735   122A      0.706007   123A      0.707024  
     124A      0.719846   125A      0.731537   126A      0.735398  
     127A      0.736410   128A      0.744166   129A      0.748773  
     130A      0.758956   131A      0.765606   132A      0.778644  
     133A      0.780907   134A      0.787629   135A      0.790428  
     136A      0.797877   137A      0.801479   138A      0.801659  
     139A      0.809710   140A      0.823110   141A      0.834014  
     142A      0.840174   143A      0.843426   144A      0.849937  
     145A      0.855294   146A      0.860211   147A      0.891686  
     148A      0.892894   149A      0.899189   150A      0.903905  
     151A      0.920582   152A      0.926365   153A      0.933443  
     154A      0.937179   155A      0.951483   156A      0.951596  
     157A      0.953277   158A      0.962531   159A      0.964121  
     160A      0.966890   161A      0.978236   162A      0.988219  
     163A      0.989624   164A      1.001656   165A      1.023487  
     166A      1.028202   167A      1.046154   168A      1.058330  
     169A      1.082961   170A      1.089985   171A      1.091817  
     172A      1.110372   173A      1.123971   174A      1.131577  
     175A      1.142113   176A      1.162622   177A      1.166192  
     178A      1.179411   179A      1.181772   180A      1.182091  
     181A      1.194636   182A      1.212828   183A      1.228849  
     184A      1.231020   185A      1.231034   186A      1.248884  
     187A      1.259345   188A      1.260979   189A      1.298744  
     190A      1.302419   191A      1.317418   192A      1.317538  
     193A      1.330540   194A      1.330576   195A      1.354818  
     196A      1.365760   197A      1.370963   198A      1.381326  
     199A      1.384685   200A      1.388797   201A      1.395827  
     202A      1.402781   203A      1.420774   204A      1.421788  
     205A      1.426357   206A      1.434610   207A      1.459718  
     208A      1.471731   209A      1.494460   210A      1.516203  
     211A      1.526789   212A      1.543415   213A      1.546871  
     214A      1.548315   215A      1.549045   216A      1.553094  
     217A      1.555873   218A      1.573416   219A      1.579699  
     220A      1.583196   221A      1.587438   222A      1.601847  
     223A      1.608570   224A      1.613814   225A      1.620999  
     226A      1.626526   227A      1.644837   228A      1.670230  
     229A      1.672264   230A      1.699857   231A      1.721164  
     232A      1.730457   233A      1.734623   234A      1.739145  
     235A      1.749519   236A      1.773537   237A      1.780328  
     238A      1.798069   239A      1.835325   240A      1.836313  
     241A      1.836876   242A      1.850931   243A      1.854611  
     244A      1.863939   245A      1.909622   246A      1.910202  
     247A      1.921361   248A      1.933097   249A      1.937408  
     250A      1.937987   251A      1.974573   252A      1.974714  
     253A      1.976981   254A      1.990256   255A      1.993949  
     256A      2.003858   257A      2.008923   258A      2.011055  
     259A      2.014237   260A      2.039065   261A      2.049211  
     262A      2.059750   263A      2.069248   264A      2.076158  
     265A      2.081758   266A      2.084670   267A      2.092042  
     268A      2.099876   269A      2.122815   270A      2.127160  
     271A      2.151860   272A      2.152329   273A      2.154001  
     274A      2.168057   275A      2.190211   276A      2.197406  
     277A      2.232277   278A      2.237699   279A      2.240899  
     280A      2.249506   281A      2.253663   282A      2.259267  
     283A      2.276039   284A      2.278008   285A      2.279957  
     286A      2.294086   287A      2.303826   288A      2.304508  
     289A      2.315975   290A      2.340123   291A      2.340998  
     292A      2.344066   293A      2.365539   294A      2.377196  
     295A      2.383130   296A      2.384697   297A      2.387266  
     298A      2.414599   299A      2.416938   300A      2.423499  
     301A      2.424672   302A      2.448192   303A      2.457795  
     304A      2.469292   305A      2.469893   306A      2.470139  
     307A      2.484708   308A      2.508756   309A      2.510283  
     310A      2.518682   311A      2.528554   312A      2.559978  
     313A      2.561588   314A      2.568359   315A      2.574542  
     316A      2.576715   317A      2.586607   318A      2.595561  
     319A      2.596159   320A      2.612526   321A      2.629082  
     322A      2.629498   323A      2.634136   324A      2.708355  
     325A      2.708933   326A      2.709652   327A      2.726727  
     328A      2.759184   329A      2.764164   330A      2.770957  
     331A      2.773408   332A      2.785482   333A      2.804146  
     334A      2.804882   335A      2.805655   336A      2.820054  
     337A      2.838606   338A      2.859769   339A      2.882655  
     340A      2.905075   341A      2.907049   342A      2.930606  
     343A      2.944026   344A      2.966819   345A      2.996064  
     346A      3.005316   347A      3.018335   348A      3.026493  
     349A      3.030142   350A      3.030653   351A      3.071728  
     352A      3.079128   353A      3.099654   354A      3.135010  
     355A      3.137232   356A      3.137529   357A      3.147707  
     358A      3.168046   359A      3.209889   360A      3.215934  
     361A      3.230349   362A      3.234980   363A      3.270437  
     364A      3.275845   365A      3.298455   366A      3.301387  
     367A      3.311243   368A      3.312818   369A      3.340969  
     370A      3.353415   371A      3.361907   372A      3.375459  
     373A      3.379999   374A      3.390440   375A      3.446770  
     376A      3.453613   377A      3.465874   378A      3.504372  
     379A      3.526678   380A      3.527638   381A      3.550289  
     382A      3.571488   383A      3.603612   384A      3.605247  
     385A      3.629843   386A      3.655325   387A      3.667682  
     388A      3.677033   389A      3.679568   390A      3.713750  
     391A      3.720658   392A      3.727435   393A      3.748258  
     394A      3.748937   395A      3.796536   396A      3.820690  
     397A      3.835365   398A      3.857344   399A      3.879381  
     400A      3.887922   401A      3.895472   402A      3.920368  
     403A      3.924640   404A      3.928632   405A      3.934171  
     406A      3.961177   407A      3.967532   408A      3.975632  
     409A      4.013660   410A      4.030873   411A      4.033441  
     412A      4.046812   413A      4.052865   414A      4.086426  
     415A      4.126805   416A      4.143076   417A      4.144933  
     418A      4.155258   419A      4.157020   420A      4.193313  
     421A      4.201999   422A      4.252779   423A      4.269226  
     424A      4.269749   425A      4.324558   426A      4.326138  
     427A      4.339416   428A      4.370769   429A      4.381232  
     430A      4.399342   431A      4.405060   432A      4.435569  
     433A      4.437988   434A      4.467165   435A      4.472010  
     436A      4.493944   437A      4.503669   438A      4.510213  
     439A      4.551744   440A      4.566530   441A      4.569123  
     442A      4.579708   443A      4.610029   444A      4.620482  
     445A      4.669563   446A      4.691252   447A      4.698689  
     448A      4.721502   449A      4.744132   450A      4.788473  
     451A      4.827906   452A      4.856990   453A      4.882942  
     454A      4.900779   455A      4.907933   456A      4.929926  
     457A      4.975483   458A      4.998300   459A      5.001695  
     460A      5.027411   461A      5.037096   462A      5.069790  
     463A      5.124683   464A      5.149117   465A      5.202831  
     466A      5.216642   467A      5.241849   468A      5.299991  
     469A      5.378907   470A      5.409070   471A      5.432063  
     472A      5.447164   473A      5.472024   474A      5.542191  
     475A      5.619696   476A      5.699151   477A      5.743747  
     478A      5.799279   479A      5.800570   480A      5.829123  
     481A      5.847459   482A      5.889247   483A      5.913279  
     484A      5.986892   485A      6.008837   486A      6.043807  
     487A      6.053338   488A      6.078791   489A      6.099267  
     490A      6.121404   491A      6.132045   492A      6.154508  
     493A      6.158432   494A      6.185277   495A      6.215503  
     496A      6.307907   497A      6.310028   498A      6.323387  
     499A      6.379126   500A      6.384130   501A      6.414840  
     502A      6.429038   503A      6.465864   504A      6.472683  
     505A      6.514826   506A      6.545369   507A      6.583601  
     508A      6.589183   509A      6.593221   510A      6.600201  
     511A      6.616275   512A      6.637965   513A      6.640460  
     514A      6.650118   515A      6.651237   516A      6.668111  
     517A      6.683916   518A      6.713522   519A      6.751918  
     520A      6.777711   521A      6.794606   522A      6.801780  
     523A      6.821768   524A      6.853569   525A      6.865333  
     526A      6.887843   527A      6.902087   528A      6.908333  
     529A      6.936990   530A      6.957680   531A      6.978315  
     532A      6.998816   533A      7.021812   534A      7.025029  
     535A      7.035279   536A      7.053949   537A      7.062589  
     538A      7.080550   539A      7.091305   540A      7.125038  
     541A      7.148292   542A      7.152034   543A      7.166481  
     544A      7.186303   545A      7.198564   546A      7.217890  
     547A      7.220039   548A      7.242654   549A      7.290368  
     550A      7.293842   551A      7.325541   552A      7.327722  
     553A      7.342081   554A      7.390308   555A      7.397664  
     556A      7.398981   557A      7.403247   558A      7.440032  
     559A      7.466887   560A      7.505655   561A      7.520597  
     562A      7.570245   563A      7.581813   564A      7.591609  
     565A      7.635266   566A      7.640645   567A      7.642807  
     568A      7.683272   569A      7.721369   570A      7.746232  
     571A      7.774254   572A      7.778215   573A      7.779794  
     574A      7.810560   575A      7.839222   576A      7.858607  
     577A      7.876508   578A      7.927225   579A      7.941302  
     580A      8.003897   581A      8.004873   582A      8.019406  
     583A      8.031630   584A      8.063130   585A      8.075599  
     586A      8.095418   587A      8.148506   588A      8.151744  
     589A      8.152580   590A      8.280839   591A      8.303137  
     592A      8.325525   593A      8.357927   594A      8.365340  
     595A      8.379596   596A      8.459308   597A      8.492413  
     598A      8.523591   599A      8.543228   600A      8.617053  
     601A      8.622889   602A      8.639589   603A      8.665567  
     604A      8.699225   605A      8.702501   606A      8.709585  
     607A      8.718171   608A      8.811089   609A      8.821358  
     610A      8.856413   611A      8.876145   612A      8.892684  
     613A      8.893060   614A      8.941086   615A      8.945282  
     616A      8.956923   617A      8.957602   618A      8.962395  
     619A      9.040456   620A      9.050522   621A      9.080515  
     622A      9.123588   623A      9.143467   624A      9.174172  
     625A      9.196152   626A      9.205541   627A      9.221802  
     628A      9.256698   629A      9.328790   630A      9.358381  
     631A      9.394814   632A      9.399209   633A      9.418432  
     634A      9.447824   635A      9.501273   636A      9.548146  
     637A      9.554400   638A      9.554963   639A      9.592238  
     640A      9.598014   641A      9.607769   642A      9.653387  
     643A      9.705947   644A      9.725813   645A      9.726858  
     646A      9.744070   647A      9.798173   648A      9.867246  
     649A      9.902282   650A      9.962096   651A      9.963360  
     652A      9.964396   653A      9.984390   654A     10.008535  
     655A     10.017119   656A     10.029097   657A     10.091721  
     658A     10.219481   659A     10.233822   660A     10.235886  
     661A     10.246460   662A     10.295204   663A     10.320867  
     664A     10.332284   665A     10.383630   666A     10.394207  
     667A     10.470311   668A     10.479965   669A     10.500647  
     670A     10.507225   671A     10.509008   672A     10.578286  
     673A     10.637675   674A     10.651612   675A     10.720536  
     676A     10.764659   677A     10.771513   678A     10.778986  
     679A     10.795703   680A     10.848203   681A     10.881333  
     682A     11.052847   683A     11.074406   684A     11.196073  
     685A     11.201830   686A     11.367913   687A     11.381185  
     688A     11.444828   689A     11.455635   690A     11.564452  
     691A     11.636852   692A     11.669977   693A     11.696507  
     694A     11.772932   695A     11.903784   696A     12.301550  
     697A     12.494975   698A     12.731361   699A     12.851833  
     700A     13.203619   701A     13.368121   702A     13.381645  
     703A     13.528745   704A     13.577819   705A     26.173199  
     706A     26.293129   707A     26.526607   708A     26.944105  
     709A     27.199566   710A     34.210763  

    Final Occupation by Irrep:
              A 
    DOCC [    21 ]

  @DF-RHF Final Energy:  -246.79289701698085

   => Energetics <=

    Nuclear Repulsion Energy =            206.2843469486970491
    One-Electron Energy =                -741.3954961427408534
    Two-Electron Energy =                 288.3182521770630160
    Total Energy =                       -246.7928970169808167

Computation Completed


Properties will be evaluated at   0.000000,   0.000000,   0.000000 [a0]

Properties computed using the SCF density matrix

  Nuclear Dipole Moment: [e a0]
     X:   117.5039      Y:    11.8547      Z:    -0.0475

  Electronic Dipole Moment: [e a0]
     X:  -116.5946      Y:   -11.8858      Z:     0.0482

  Dipole Moment: [e a0]
     X:     0.9093      Y:    -0.0310      Z:     0.0007     Total:     0.9098

  Dipole Moment: [D]
     X:     2.3111      Y:    -0.0789      Z:     0.0017     Total:     2.3125


*** tstop() called on node97.bme.utexas.edu at Thu Apr 23 18:52:09 2020
Module time:
	user time   =     153.74 seconds =       2.56 minutes
	system time =       2.96 seconds =       0.05 minutes
	total time  =         22 seconds =       0.37 minutes
Total time:
	user time   =     215.04 seconds =       3.58 minutes
	system time =       4.66 seconds =       0.08 minutes
	total time  =         31 seconds =       0.52 minutes

*** tstart() called on node97.bme.utexas.edu
*** at Thu Apr 23 18:52:09 2020


  //>>>>>>>>>>>>>>>>>>>>>>>>>>>>>>>>>>>//
  //               DFMP2               //
  //<<<<<<<<<<<<<<<<<<<<<<<<<<<<<<<<<<<//

   => Loading Basis Set <=

    Name: (AUG-CC-PVQZ AUX)
    Role: RIFIT
    Keyword: DF_BASIS_MP2
    atoms 1              entry N          line   258 file /home/liuchw/anaconda3/envs/psi4env/share/psi4/basis/aug-cc-pvqz-ri.gbs 
    atoms 2, 4, 6, 8, 10 entry C          line   184 file /home/liuchw/anaconda3/envs/psi4env/share/psi4/basis/aug-cc-pvqz-ri.gbs 
    atoms 3, 5, 7, 9, 11 entry H          line    30 file /home/liuchw/anaconda3/envs/psi4env/share/psi4/basis/aug-cc-pvqz-ri.gbs 

	 --------------------------------------------------------
	                          DF-MP2                         
	      2nd-Order Density-Fitted Moller-Plesset Theory     
	              RMP2 Wavefunction,   8 Threads             
	                                                         
	        Rob Parrish, Justin Turney, Andy Simmonett,      
	           Ed Hohenstein, and C. David Sherrill          
	 --------------------------------------------------------

   => Auxiliary Basis Set <=

  Basis Set: (AUG-CC-PVQZ AUX)
    Blend: AUG-CC-PVQZ-RI
    Number of shells: 316
    Number of basis function: 1408
    Number of Cartesian functions: 1947
    Spherical Harmonics?: true
    Max angular momentum: 5

	 --------------------------------------------------------
	                 NBF =   710, NAUX =  1408
	 --------------------------------------------------------
	   CLASS    FOCC     OCC    AOCC    AVIR     VIR    FVIR
	   PAIRS       0      21      21     689     689       0
	 --------------------------------------------------------

	-----------------------------------------------------------
	 ==================> DF-MP2 Energies <==================== 
	-----------------------------------------------------------
	 Reference Energy          =    -246.7928970169808451 [Eh]
	 Singles Energy            =      -0.0000000000000000 [Eh]
	 Same-Spin Energy          =      -0.2841751298214353 [Eh]
	 Opposite-Spin Energy      =      -0.9423377811541700 [Eh]
	 Correlation Energy        =      -1.2265129109756052 [Eh]
	 Total Energy              =    -248.0194099279564455 [Eh]
	-----------------------------------------------------------
	 ================> DF-SCS-MP2 Energies <================== 
	-----------------------------------------------------------
	 SCS Same-Spin Scale       =       0.3333333333333333 [-]
	 SCS Opposite-Spin Scale   =       1.2000000000000000 [-]
	 SCS Same-Spin Energy      =      -0.0947250432738118 [Eh]
	 SCS Opposite-Spin Energy  =      -1.1308053373850040 [Eh]
	 SCS Correlation Energy    =      -1.2255303806588158 [Eh]
	 SCS Total Energy          =    -248.0184273976396696 [Eh]
	-----------------------------------------------------------


*** tstop() called on node97.bme.utexas.edu at Thu Apr 23 18:52:23 2020
Module time:
	user time   =      74.91 seconds =       1.25 minutes
	system time =       1.92 seconds =       0.03 minutes
	total time  =         14 seconds =       0.23 minutes
Total time:
	user time   =     289.96 seconds =       4.83 minutes
	system time =       6.58 seconds =       0.11 minutes
	total time  =         45 seconds =       0.75 minutes

  //>>>>>>>>>>>>>>>>>>>>>>>>>>>>>>>>>>>//
  //  CBS Results: mp2/aug-cc-pv[tq]z  //
  //<<<<<<<<<<<<<<<<<<<<<<<<<<<<<<<<<<<//


   ==> HF <==

   HI-zeta (4) Energy:               -246.792897016981


   ==> Helgaker 2-point correlated extrapolation for method: MP2 <==

   LO-zeta (3) Energy:               -247.886314456531
   HI-zeta (4) Energy:               -248.019409927956
   Alpha (exponent) Value:             3.000000000000
   Extrapolated Energy:              -248.116533650348

   @Extrapolated MP2/(T,Q):          -248.116533650348



   ==> Helgaker 2-point correlated extrapolation for method: HF <==

   LO-zeta (3) Energy:               -246.778749718097
   HI-zeta (4) Energy:               -246.792897016981
   Alpha (exponent) Value:             3.000000000000
   Extrapolated Energy:              -246.803220721572

   @Extrapolated HF/(T,Q):           -246.803220721572


   ==> Components <==

  ---------------------------------------------------------------------------------------------------------
                          Method / Basis                      Rqd      Energy [Eh]   Variable
  ---------------------------------------------------------------------------------------------------------
                              hf / aug-cc-pvtz                  *    -246.77874972   HF TOTAL ENERGY
                             mp2 / aug-cc-pvtz                  *    -247.88631446   MP2 TOTAL ENERGY
                              hf / aug-cc-pvqz                  *    -246.79289702   HF TOTAL ENERGY
                             mp2 / aug-cc-pvqz                  *    -248.01940993   MP2 TOTAL ENERGY
  ---------------------------------------------------------------------------------------------------------

   ==> Stages <==

  ---------------------------------------------------------------------------------------------------------
      Stage               Method / Basis                       Wt      Energy [Eh]   Scheme
  ---------------------------------------------------------------------------------------------------------
        scf                   hf / aug-cc-pvqz                  1    -246.79289702   xtpl_highest_1
       corl                  mp2 / aug-cc-pv[tq]z               1    -248.11653365   corl_xtpl_helgaker_2
       corl                   hf / aug-cc-pv[tq]z              -1    -246.80322072   corl_xtpl_helgaker_2
  ---------------------------------------------------------------------------------------------------------

   ==> CBS <==

  ---------------------------------------------------------------------------------------------------------
      Stage               Method / Basis                               Energy [Eh]   Scheme
  ---------------------------------------------------------------------------------------------------------
        scf                   hf / aug-cc-pvqz                       -246.79289702   xtpl_highest_1
       corl                  mp2 / aug-cc-pv[tq]z                      -1.31331293   corl_xtpl_helgaker_2
      total                  CBS                                     -248.10620995   
  ---------------------------------------------------------------------------------------------------------
   => Loading Basis Set <=

    Name: DEF2-SVP
    Role: ORBITAL
    Keyword: BASIS
    atoms 1              entry N          line   110 file /home/liuchw/anaconda3/envs/psi4env/share/psi4/basis/def2-svp.gbs 
    atoms 2, 4, 6, 8, 10 entry C          line    90 file /home/liuchw/anaconda3/envs/psi4env/share/psi4/basis/def2-svp.gbs 
    atoms 3, 5, 7, 9, 11 entry H          line    15 file /home/liuchw/anaconda3/envs/psi4env/share/psi4/basis/def2-svp.gbs 


       N-Body: Complex Energy (fragments = (2,), basis = (2,):  -248.10620994575709)

       N-Body: Computing complex (2/4) with fragments (2,) in the basis of fragments (1, 2).


Scratch directory: /scratch/liuchw/

  //>>>>>>>>>>>>>>>>>>>>>>>>>>>>>>>>>>>//
  //   CBS Setup: mp2/aug-cc-pv[tq]z   //
  //<<<<<<<<<<<<<<<<<<<<<<<<<<<<<<<<<<<//

    Naive listing of computations required.
             hf / aug-cc-pvqz              for  HF TOTAL ENERGY
            mp2 / aug-cc-pvtz              for  MP2 TOTAL ENERGY
            mp2 / aug-cc-pvqz              for  MP2 TOTAL ENERGY
             hf / aug-cc-pvtz              for  HF TOTAL ENERGY
             hf / aug-cc-pvqz              for  HF TOTAL ENERGY

    Enlightened listing of computations required.
            mp2 / aug-cc-pvtz              for  MP2 TOTAL ENERGY
            mp2 / aug-cc-pvqz              for  MP2 TOTAL ENERGY

    Full listing of computations to be obtained (required and bonus).
             hf / aug-cc-pvtz              for  HF TOTAL ENERGY
            mp2 / aug-cc-pvtz              for  MP2 TOTAL ENERGY
             hf / aug-cc-pvqz              for  HF TOTAL ENERGY
            mp2 / aug-cc-pvqz              for  MP2 TOTAL ENERGY

  //>>>>>>>>>>>>>>>>>>>>>>>>>>>>>>>>>>>>//
  // CBS Computation: MP2 / AUG-CC-PVTZ //
  //<<<<<<<<<<<<<<<<<<<<<<<<<<<<<<<<<<<<//


Scratch directory: /scratch/liuchw/

*** tstart() called on node97.bme.utexas.edu
*** at Thu Apr 23 18:52:24 2020

   => Loading Basis Set <=

    Name: AUG-CC-PVTZ
    Role: ORBITAL
    Keyword: BASIS
    atoms 1                         entry O          line   331 file /home/liuchw/anaconda3/envs/psi4env/share/psi4/basis/aug-cc-pvtz.gbs 
    atoms 2, 4-6, 9, 11, 13, 15, 17 entry H          line    40 file /home/liuchw/anaconda3/envs/psi4env/share/psi4/basis/aug-cc-pvtz.gbs 
    atoms 3, 8, 10, 12, 14, 16      entry C          line   239 file /home/liuchw/anaconda3/envs/psi4env/share/psi4/basis/aug-cc-pvtz.gbs 
    atoms 7                         entry N          line   285 file /home/liuchw/anaconda3/envs/psi4env/share/psi4/basis/aug-cc-pvtz.gbs 


         ---------------------------------------------------------
                                   SCF
               by Justin Turney, Rob Parrish, Andy Simmonett
                          and Daniel G. A. Smith
                              RHF Reference
                        8 Threads,  19073 MiB Core
         ---------------------------------------------------------

  ==> Geometry <==

    Molecular point group: c1
    Full point group: C1

    Geometry (in Angstrom), charge = 0, multiplicity = 1:

       Center              X                  Y                   Z               Mass       
    ------------   -----------------  -----------------  -----------------  -----------------
      Gh(O)          -3.440562960854     0.304065705268     0.001700285494    15.994914619570
      Gh(H)          -2.469312960854     0.338895705268    -0.000369714506     1.007825032230
      Gh(C)          -3.790842960854    -1.061964294732     0.001470285494    12.000000000000
      Gh(H)          -4.876302960854    -1.125444294732     0.005240285494     1.007825032230
      Gh(H)          -3.427792960854    -1.589784294732    -0.885149714506     1.007825032230
      Gh(H)          -3.421552960854    -1.591644294732     0.884400285494     1.007825032230
         N            0.065597039146     0.199755705268    -0.001719714506    14.003074004430
         C            0.761967039146     0.175315705268    -1.146439714506    12.000000000000
         H            0.177487039146     0.198545705268    -2.057409714506     1.007825032230
         C            2.151607039146     0.125575705268    -1.195119714506    12.000000000000
         H            2.658957039146     0.108285705268    -2.148909714506     1.007825032230
         C            2.861977039146     0.099865705268     0.000490285494    12.000000000000
         H            3.942317039146     0.062095705268     0.001340285494     1.007825032230
         C            2.149727039146     0.124885705268     1.195030285494    12.000000000000
         H            2.655527039146     0.107055705268     2.149510285494     1.007825032230
         C            0.760177039146     0.174635705268     1.144070285494    12.000000000000
         H            0.174167039146     0.197305705268     2.054190285494     1.007825032230

  Running in c1 symmetry.

  Rotational constants: A =      0.16403  B =      0.02436  C =      0.02219 [cm^-1]
  Rotational constants: A =   4917.49931  B =    730.15227  C =    665.22652 [MHz]
  Nuclear repulsion =  206.284346948697049

  Charge       = 0
  Multiplicity = 1
  Electrons    = 42
  Nalpha       = 21
  Nbeta        = 21

  ==> Algorithm <==

  SCF Algorithm Type is DF.
  DIIS enabled.
  MOM disabled.
  Fractional occupation disabled.
  Guess Type is SAD.
  Energy threshold   = 1.00e-07
  Density threshold  = 1.00e-08
  Integral threshold = 0.00e+00

  ==> Primary Basis <==

  Basis Set: AUG-CC-PVTZ
    Blend: AUG-CC-PVTZ
    Number of shells: 193
    Number of basis function: 575
    Number of Cartesian functions: 665
    Spherical Harmonics?: true
    Max angular momentum: 3

   => Loading Basis Set <=

    Name: (AUG-CC-PVTZ AUX)
    Role: JKFIT
    Keyword: DF_BASIS_SCF
    atoms 1                         entry O          line   286 file /home/liuchw/anaconda3/envs/psi4env/share/psi4/basis/aug-cc-pvtz-jkfit.gbs 
    atoms 2, 4-6, 9, 11, 13, 15, 17 entry H          line    70 file /home/liuchw/anaconda3/envs/psi4env/share/psi4/basis/aug-cc-pvtz-jkfit.gbs 
    atoms 3, 8, 10, 12, 14, 16      entry C          line   162 file /home/liuchw/anaconda3/envs/psi4env/share/psi4/basis/aug-cc-pvtz-jkfit.gbs 
    atoms 7                         entry N          line   224 file /home/liuchw/anaconda3/envs/psi4env/share/psi4/basis/aug-cc-pvtz-jkfit.gbs 

  ==> Pre-Iterations <==

   -------------------------------------------------------
    Irrep   Nso     Nmo     Nalpha   Nbeta   Ndocc  Nsocc
   -------------------------------------------------------
     A        575     575       0       0       0       0
   -------------------------------------------------------
    Total     575     575      21      21      21       0
   -------------------------------------------------------

  ==> Integral Setup <==

  DFHelper Memory: AOs need 2.837 GiB; user supplied 13.970 GiB. Using in-core AOs.

  ==> MemDFJK: Density-Fitted J/K Matrices <==

    J tasked:                   Yes
    K tasked:                   Yes
    wK tasked:                   No
    OpenMP threads:               8
    Memory [MiB]:             14305
    Algorithm:                 Core
    Schwarz Cutoff:           1E-12
    Mask sparsity (%):      10.7481
    Fitting Condition:        1E-10

   => Auxiliary Basis Set <=

  Basis Set: (AUG-CC-PVTZ AUX)
    Blend: AUG-CC-PVTZ-JKFIT
    Number of shells: 366
    Number of basis function: 1246
    Number of Cartesian functions: 1543
    Spherical Harmonics?: true
    Max angular momentum: 4

  Minimum eigenvalue in the overlap matrix is 2.0051685470E-06.
  Using Symmetric Orthogonalization.

  SCF Guess: Superposition of Atomic Densities via on-the-fly atomic UHF.

  ==> Iterations <==

                           Total Energy        Delta E     RMS |[F,P]|

   @DF-RHF iter SAD:  -246.16057319561202   -2.46161e+02   0.00000e+00 
   @DF-RHF iter   1:  -246.63289431116488   -4.72321e-01   8.59304e-04 DIIS
   @DF-RHF iter   2:  -246.75313996356761   -1.20246e-01   3.95328e-04 DIIS
   @DF-RHF iter   3:  -246.77733346929068   -2.41935e-02   7.63911e-05 DIIS
   @DF-RHF iter   4:  -246.77872023652901   -1.38677e-03   2.27690e-05 DIIS
   @DF-RHF iter   5:  -246.77880369380370   -8.34573e-05   7.30043e-06 DIIS
   @DF-RHF iter   6:  -246.77881433478069   -1.06410e-05   1.67952e-06 DIIS
   @DF-RHF iter   7:  -246.77881510907739   -7.74297e-07   5.97906e-07 DIIS
   @DF-RHF iter   8:  -246.77881521077356   -1.01696e-07   2.54594e-07 DIIS
   @DF-RHF iter   9:  -246.77881524243887   -3.16653e-08   7.53837e-08 DIIS
   @DF-RHF iter  10:  -246.77881524670406   -4.26519e-09   2.76532e-08 DIIS
   @DF-RHF iter  11:  -246.77881524747514   -7.71081e-10   1.65096e-08 DIIS
   @DF-RHF iter  12:  -246.77881524766647   -1.91335e-10   4.63332e-09 DIIS
  Energy and wave function converged.


  ==> Post-Iterations <==

    Orbital Energies [Eh]
    ---------------------

    Doubly Occupied:                                                      

       1A    -15.566647     2A    -11.275254     3A    -11.275236  
       4A    -11.260448     5A    -11.242468     6A    -11.242415  
       7A     -1.256607     8A     -1.089684     9A     -1.034761  
      10A     -0.859649    11A     -0.856470    12A     -0.722521  
      13A     -0.660914    14A     -0.654824    15A     -0.599766  
      16A     -0.577237    17A     -0.541425    18A     -0.521082  
      19A     -0.418479    20A     -0.383788    21A     -0.348575  

    Virtual:                                                              

      22A      0.025271    23A      0.030226    24A      0.032853  
      25A      0.043063    26A      0.047069    27A      0.050734  
      28A      0.057322    29A      0.066347    30A      0.079777  
      31A      0.082170    32A      0.090454    33A      0.095799  
      34A      0.100300    35A      0.103899    36A      0.108301  
      37A      0.111879    38A      0.114612    39A      0.119907  
      40A      0.121770    41A      0.124660    42A      0.125695  
      43A      0.133625    44A      0.134976    45A      0.137946  
      46A      0.148104    47A      0.148870    48A      0.152452  
      49A      0.162904    50A      0.165009    51A      0.170976  
      52A      0.175119    53A      0.184833    54A      0.209206  
      55A      0.214349    56A      0.236409    57A      0.238933  
      58A      0.244602    59A      0.245550    60A      0.253628  
      61A      0.255073    62A      0.260814    63A      0.266959  
      64A      0.269402    65A      0.283253    66A      0.287621  
      67A      0.291648    68A      0.291709    69A      0.294644  
      70A      0.297779    71A      0.304611    72A      0.306871  
      73A      0.315432    74A      0.318503    75A      0.325890  
      76A      0.326440    77A      0.332529    78A      0.336508  
      79A      0.337207    80A      0.349350    81A      0.352712  
      82A      0.360396    83A      0.362443    84A      0.362681  
      85A      0.375422    86A      0.378812    87A      0.390178  
      88A      0.390197    89A      0.404697    90A      0.416389  
      91A      0.418382    92A      0.426841    93A      0.428636  
      94A      0.430677    95A      0.439868    96A      0.450391  
      97A      0.450785    98A      0.451577    99A      0.454524  
     100A      0.462296   101A      0.467959   102A      0.469063  
     103A      0.481364   104A      0.489378   105A      0.490771  
     106A      0.491865   107A      0.494871   108A      0.500813  
     109A      0.505014   110A      0.512692   111A      0.513601  
     112A      0.517419   113A      0.522404   114A      0.524855  
     115A      0.525864   116A      0.538364   117A      0.540796  
     118A      0.548431   119A      0.553590   120A      0.564923  
     121A      0.575729   122A      0.587204   123A      0.597666  
     124A      0.609325   125A      0.620680   126A      0.630255  
     127A      0.631809   128A      0.634403   129A      0.646991  
     130A      0.649416   131A      0.650982   132A      0.659734  
     133A      0.666335   134A      0.673562   135A      0.689027  
     136A      0.700571   137A      0.711852   138A      0.722062  
     139A      0.726190   140A      0.731622   141A      0.748352  
     142A      0.749530   143A      0.768486   144A      0.772387  
     145A      0.790515   146A      0.804665   147A      0.805143  
     148A      0.814031   149A      0.819056   150A      0.828554  
     151A      0.846219   152A      0.846364   153A      0.848870  
     154A      0.854618   155A      0.868273   156A      0.877877  
     157A      0.878992   158A      0.891770   159A      0.892529  
     160A      0.902605   161A      0.905154   162A      0.919673  
     163A      0.926811   164A      0.932677   165A      0.933463  
     166A      0.946357   167A      0.953882   168A      0.966080  
     169A      0.970026   170A      0.972991   171A      0.975386  
     172A      0.983294   173A      0.994437   174A      0.998389  
     175A      1.002059   176A      1.004861   177A      1.010728  
     178A      1.012385   179A      1.018060   180A      1.019116  
     181A      1.029422   182A      1.038566   183A      1.046878  
     184A      1.047476   185A      1.053973   186A      1.060024  
     187A      1.073737   188A      1.076362   189A      1.082069  
     190A      1.085570   191A      1.086944   192A      1.089814  
     193A      1.095026   194A      1.096539   195A      1.105285  
     196A      1.116185   197A      1.120162   198A      1.139291  
     199A      1.141105   200A      1.144929   201A      1.150636  
     202A      1.156413   203A      1.159070   204A      1.175886  
     205A      1.186990   206A      1.187641   207A      1.190968  
     208A      1.195056   209A      1.199697   210A      1.204747  
     211A      1.206408   212A      1.213038   213A      1.219445  
     214A      1.228555   215A      1.230407   216A      1.233115  
     217A      1.244660   218A      1.245803   219A      1.253294  
     220A      1.264407   221A      1.267270   222A      1.273253  
     223A      1.293131   224A      1.303647   225A      1.304424  
     226A      1.315572   227A      1.320111   228A      1.338796  
     229A      1.345462   230A      1.361391   231A      1.369630  
     232A      1.378692   233A      1.383914   234A      1.406625  
     235A      1.407846   236A      1.421055   237A      1.436577  
     238A      1.456998   239A      1.459333   240A      1.470358  
     241A      1.494045   242A      1.505671   243A      1.507514  
     244A      1.521758   245A      1.523204   246A      1.523714  
     247A      1.533706   248A      1.544469   249A      1.555994  
     250A      1.574373   251A      1.604929   252A      1.605360  
     253A      1.627035   254A      1.629920   255A      1.637554  
     256A      1.680786   257A      1.691235   258A      1.695725  
     259A      1.700987   260A      1.709765   261A      1.719064  
     262A      1.731376   263A      1.736129   264A      1.739688  
     265A      1.749036   266A      1.777389   267A      1.781215  
     268A      1.788691   269A      1.791258   270A      1.809807  
     271A      1.842495   272A      1.844210   273A      1.847323  
     274A      1.851746   275A      1.859994   276A      1.876403  
     277A      1.879319   278A      1.888510   279A      1.890990  
     280A      1.900026   281A      1.907070   282A      1.921478  
     283A      1.933125   284A      1.940493   285A      1.970738  
     286A      1.971185   287A      1.976206   288A      1.988514  
     289A      2.016459   290A      2.025989   291A      2.035552  
     292A      2.041097   293A      2.044831   294A      2.046031  
     295A      2.056186   296A      2.060353   297A      2.073390  
     298A      2.082644   299A      2.098797   300A      2.138274  
     301A      2.148430   302A      2.150089   303A      2.160796  
     304A      2.167925   305A      2.179462   306A      2.194079  
     307A      2.196549   308A      2.212875   309A      2.217146  
     310A      2.233386   311A      2.256040   312A      2.256328  
     313A      2.263391   314A      2.278611   315A      2.286370  
     316A      2.338660   317A      2.350984   318A      2.374441  
     319A      2.396022   320A      2.396412   321A      2.413544  
     322A      2.423106   323A      2.432661   324A      2.439823  
     325A      2.455980   326A      2.466794   327A      2.482718  
     328A      2.485228   329A      2.531034   330A      2.557548  
     331A      2.610913   332A      2.615751   333A      2.646364  
     334A      2.654476   335A      2.680094   336A      2.683309  
     337A      2.696432   338A      2.705004   339A      2.734226  
     340A      2.761064   341A      2.787965   342A      2.806194  
     343A      2.820916   344A      2.848655   345A      2.888885  
     346A      2.907542   347A      2.933420   348A      2.943162  
     349A      2.946172   350A      2.992858   351A      3.003824  
     352A      3.048502   353A      3.061959   354A      3.066254  
     355A      3.075881   356A      3.140714   357A      3.165005  
     358A      3.183318   359A      3.186928   360A      3.256117  
     361A      3.285002   362A      3.311351   363A      3.320851  
     364A      3.324739   365A      3.339831   366A      3.357548  
     367A      3.394507   368A      3.407232   369A      3.418957  
     370A      3.426073   371A      3.433682   372A      3.451954  
     373A      3.460511   374A      3.474175   375A      3.482603  
     376A      3.501816   377A      3.507653   378A      3.508605  
     379A      3.534418   380A      3.557663   381A      3.566014  
     382A      3.569000   383A      3.573431   384A      3.587293  
     385A      3.601516   386A      3.613329   387A      3.647907  
     388A      3.698868   389A      3.701513   390A      3.740507  
     391A      3.754672   392A      3.755808   393A      3.779971  
     394A      3.784345   395A      3.794743   396A      3.834798  
     397A      3.844229   398A      3.847249   399A      3.874887  
     400A      3.893299   401A      3.898377   402A      3.899023  
     403A      3.933052   404A      3.934805   405A      3.944777  
     406A      3.968639   407A      3.998405   408A      3.998510  
     409A      4.010059   410A      4.041304   411A      4.047088  
     412A      4.063877   413A      4.072548   414A      4.101208  
     415A      4.121347   416A      4.129951   417A      4.136174  
     418A      4.142515   419A      4.146551   420A      4.154181  
     421A      4.158166   422A      4.167151   423A      4.188030  
     424A      4.197311   425A      4.208426   426A      4.220544  
     427A      4.232703   428A      4.240928   429A      4.264909  
     430A      4.277678   431A      4.291513   432A      4.336401  
     433A      4.375707   434A      4.400348   435A      4.422764  
     436A      4.429963   437A      4.445803   438A      4.448959  
     439A      4.453074   440A      4.456917   441A      4.490600  
     442A      4.505020   443A      4.522208   444A      4.525198  
     445A      4.526210   446A      4.531829   447A      4.541720  
     448A      4.554948   449A      4.582327   450A      4.621662  
     451A      4.657106   452A      4.691144   453A      4.699884  
     454A      4.703827   455A      4.703949   456A      4.742141  
     457A      4.751685   458A      4.762892   459A      4.794310  
     460A      4.842212   461A      4.852166   462A      4.854306  
     463A      4.883166   464A      4.884795   465A      4.909867  
     466A      4.924611   467A      4.939644   468A      4.975865  
     469A      4.986488   470A      5.012940   471A      5.014253  
     472A      5.026935   473A      5.044700   474A      5.045847  
     475A      5.056978   476A      5.066227   477A      5.082990  
     478A      5.110531   479A      5.114535   480A      5.148705  
     481A      5.153861   482A      5.168908   483A      5.199147  
     484A      5.207156   485A      5.223789   486A      5.245604  
     487A      5.273459   488A      5.301652   489A      5.336620  
     490A      5.351352   491A      5.397773   492A      5.407157  
     493A      5.409466   494A      5.430464   495A      5.436115  
     496A      5.447828   497A      5.470801   498A      5.478312  
     499A      5.478509   500A      5.487155   501A      5.528808  
     502A      5.536276   503A      5.548683   504A      5.566444  
     505A      5.617459   506A      5.647791   507A      5.661075  
     508A      5.711301   509A      5.745519   510A      5.793988  
     511A      5.799788   512A      5.826666   513A      5.849246  
     514A      5.855708   515A      5.882002   516A      5.893198  
     517A      5.914687   518A      5.940121   519A      5.988416  
     520A      6.082856   521A      6.101467   522A      6.145723  
     523A      6.177864   524A      6.218576   525A      6.234177  
     526A      6.243147   527A      6.269220   528A      6.318744  
     529A      6.385377   530A      6.441244   531A      6.515105  
     532A      6.521575   533A      6.678190   534A      6.695148  
     535A      6.703276   536A      6.744734   537A      6.827071  
     538A      6.828144   539A      6.871019   540A      6.885868  
     541A      7.106196   542A      7.113213   543A      7.135699  
     544A      7.275222   545A      7.501047   546A      7.720211  
     547A      7.742276   548A      7.820703   549A      7.885143  
     550A      7.895470   551A      8.070123   552A      8.125593  
     553A      8.157817   554A      8.245980   555A      8.337354  
     556A      8.616839   557A      8.941105   558A      9.890913  
     559A     10.054342   560A     10.369978   561A     10.384141  
     562A     10.643662   563A     11.021044   564A     11.861436  
     565A     12.132869   566A     13.206871   567A     14.262014  
     568A     15.624205   569A     16.346447   570A     18.549170  
     571A     18.975705   572A     19.350075   573A     19.377453  
     574A     52.887028   575A     66.208433  

    Final Occupation by Irrep:
              A 
    DOCC [    21 ]

  @DF-RHF Final Energy:  -246.77881524766647

   => Energetics <=

    Nuclear Repulsion Energy =            206.2843469486970491
    One-Electron Energy =                -741.3498226379260814
    Two-Electron Energy =                 288.2866604415625602
    Total Energy =                       -246.7788152476665005

Computation Completed


Properties will be evaluated at   0.000000,   0.000000,   0.000000 [a0]

Properties computed using the SCF density matrix

  Nuclear Dipole Moment: [e a0]
     X:   117.5039      Y:    11.8547      Z:    -0.0475

  Electronic Dipole Moment: [e a0]
     X:  -116.5940      Y:   -11.8858      Z:     0.0482

  Dipole Moment: [e a0]
     X:     0.9098      Y:    -0.0310      Z:     0.0007     Total:     0.9103

  Dipole Moment: [D]
     X:     2.3125      Y:    -0.0789      Z:     0.0017     Total:     2.3139


*** tstop() called on node97.bme.utexas.edu at Thu Apr 23 18:52:39 2020
Module time:
	user time   =     100.62 seconds =       1.68 minutes
	system time =       2.04 seconds =       0.03 minutes
	total time  =         15 seconds =       0.25 minutes
Total time:
	user time   =     392.77 seconds =       6.55 minutes
	system time =       8.68 seconds =       0.14 minutes
	total time  =         61 seconds =       1.02 minutes

*** tstart() called on node97.bme.utexas.edu
*** at Thu Apr 23 18:52:39 2020


  //>>>>>>>>>>>>>>>>>>>>>>>>>>>>>>>>>>>//
  //               DFMP2               //
  //<<<<<<<<<<<<<<<<<<<<<<<<<<<<<<<<<<<//

   => Loading Basis Set <=

    Name: (AUG-CC-PVTZ AUX)
    Role: RIFIT
    Keyword: DF_BASIS_MP2
    atoms 1                         entry O          line   264 file /home/liuchw/anaconda3/envs/psi4env/share/psi4/basis/aug-cc-pvtz-ri.gbs 
    atoms 2, 4-6, 9, 11, 13, 15, 17 entry H          line    30 file /home/liuchw/anaconda3/envs/psi4env/share/psi4/basis/aug-cc-pvtz-ri.gbs 
    atoms 3, 8, 10, 12, 14, 16      entry C          line   148 file /home/liuchw/anaconda3/envs/psi4env/share/psi4/basis/aug-cc-pvtz-ri.gbs 
    atoms 7                         entry N          line   206 file /home/liuchw/anaconda3/envs/psi4env/share/psi4/basis/aug-cc-pvtz-ri.gbs 

	 --------------------------------------------------------
	                          DF-MP2                         
	      2nd-Order Density-Fitted Moller-Plesset Theory     
	              RMP2 Wavefunction,   8 Threads             
	                                                         
	        Rob Parrish, Justin Turney, Andy Simmonett,      
	           Ed Hohenstein, and C. David Sherrill          
	 --------------------------------------------------------

   => Auxiliary Basis Set <=

  Basis Set: (AUG-CC-PVTZ AUX)
    Blend: AUG-CC-PVTZ-RI
    Number of shells: 350
    Number of basis function: 1262
    Number of Cartesian functions: 1583
    Spherical Harmonics?: true
    Max angular momentum: 4

	 --------------------------------------------------------
	                 NBF =   575, NAUX =  1262
	 --------------------------------------------------------
	   CLASS    FOCC     OCC    AOCC    AVIR     VIR    FVIR
	   PAIRS       0      21      21     554     554       0
	 --------------------------------------------------------

	-----------------------------------------------------------
	 ==================> DF-MP2 Energies <==================== 
	-----------------------------------------------------------
	 Reference Energy          =    -246.7788152476664720 [Eh]
	 Singles Energy            =      -0.0000000000000000 [Eh]
[...]
     610A      4.166874   611A      4.201127   612A      4.208066  
     613A      4.213067   614A      4.225375   615A      4.234193  
     616A      4.265005   617A      4.274610   618A      4.285447  
     619A      4.295332   620A      4.314234   621A      4.322503  
     622A      4.336070   623A      4.339926   624A      4.350748  
     625A      4.370843   626A      4.393228   627A      4.400033  
     628A      4.406484   629A      4.406587   630A      4.433487  
     631A      4.434223   632A      4.447954   633A      4.474680  
     634A      4.480350   635A      4.487905   636A      4.498067  
     637A      4.500246   638A      4.501536   639A      4.508488  
     640A      4.522306   641A      4.541545   642A      4.565244  
     643A      4.567494   644A      4.587814   645A      4.597652  
     646A      4.610637   647A      4.628697   648A      4.639593  
     649A      4.646682   650A      4.654038   651A      4.665802  
     652A      4.686259   653A      4.714753   654A      4.724322  
     655A      4.724618   656A      4.758513   657A      4.765062  
     658A      4.768337   659A      4.803575   660A      4.808958  
     661A      4.824729   662A      4.827176   663A      4.896319  
     664A      4.898303   665A      4.933775   666A      4.941603  
     667A      4.942869   668A      4.953692   669A      4.970975  
     670A      4.996653   671A      5.002861   672A      5.009435  
     673A      5.025203   674A      5.036570   675A      5.059349  
     676A      5.070250   677A      5.108397   678A      5.147998  
     679A      5.171772   680A      5.204540   681A      5.224278  
     682A      5.225489   683A      5.233343   684A      5.257765  
     685A      5.269327   686A      5.331844   687A      5.342170  
     688A      5.347519   689A      5.398742   690A      5.413203  
     691A      5.439986   692A      5.454183   693A      5.463603  
     694A      5.470442   695A      5.487716   696A      5.519899  
     697A      5.544603   698A      5.595958   699A      5.609313  
     700A      5.641850   701A      5.723867   702A      5.755486  
     703A      5.792762   704A      5.833574   705A      5.844477  
     706A      5.845055   707A      5.849340   708A      5.879931  
     709A      5.898072   710A      5.957833   711A      5.990928  
     712A      5.991161   713A      6.005631   714A      6.041410  
     715A      6.083660   716A      6.093141   717A      6.111796  
     718A      6.120578   719A      6.150506   720A      6.157862  
     721A      6.163829   722A      6.173669   723A      6.190931  
     724A      6.217371   725A      6.239564   726A      6.256280  
     727A      6.272089   728A      6.314035   729A      6.317077  
     730A      6.336853   731A      6.379620   732A      6.383839  
     733A      6.413999   734A      6.433994   735A      6.467222  
     736A      6.472361   737A      6.498291   738A      6.519302  
     739A      6.538933   740A      6.556224   741A      6.571727  
     742A      6.579394   743A      6.604989   744A      6.606888  
     745A      6.608051   746A      6.612350   747A      6.624842  
     748A      6.657275   749A      6.657573   750A      6.662937  
     751A      6.680970   752A      6.696085   753A      6.710928  
     754A      6.717843   755A      6.725193   756A      6.734675  
     757A      6.745353   758A      6.784224   759A      6.794007  
     760A      6.807956   761A      6.817657   762A      6.831182  
     763A      6.847420   764A      6.857163   765A      6.872982  
     766A      6.895531   767A      6.901336   768A      6.912586  
     769A      6.924161   770A      6.930848   771A      6.933766  
     772A      6.948618   773A      6.972214   774A      6.978988  
     775A      6.994499   776A      6.998148   777A      7.006096  
     778A      7.018594   779A      7.027938   780A      7.029415  
     781A      7.037055   782A      7.045018   783A      7.050711  
     784A      7.074976   785A      7.092380   786A      7.103204  
     787A      7.121704   788A      7.164012   789A      7.166052  
     790A      7.180176   791A      7.183516   792A      7.187056  
     793A      7.193147   794A      7.222521   795A      7.223029  
     796A      7.232278   797A      7.255978   798A      7.271800  
     799A      7.279194   800A      7.302937   801A      7.317549  
     802A      7.320622   803A      7.330623   804A      7.377382  
     805A      7.403584   806A      7.403601   807A      7.410298  
     808A      7.419128   809A      7.435182   810A      7.459148  
     811A      7.466428   812A      7.498180   813A      7.518350  
     814A      7.523061   815A      7.550210   816A      7.580657  
     817A      7.586121   818A      7.601599   819A      7.611805  
     820A      7.633281   821A      7.640154   822A      7.653813  
     823A      7.654750   824A      7.682428   825A      7.701010  
     826A      7.713137   827A      7.730574   828A      7.753250  
     829A      7.765636   830A      7.789077   831A      7.795674  
     832A      7.808041   833A      7.820395   834A      7.851514  
     835A      7.856125   836A      7.858007   837A      7.908261  
     838A      7.921567   839A      7.927780   840A      7.961278  
     841A      7.970056   842A      7.982861   843A      7.989643  
     844A      8.010271   845A      8.015524   846A      8.027767  
     847A      8.058274   848A      8.070209   849A      8.072523  
     850A      8.089286   851A      8.109245   852A      8.113694  
     853A      8.119899   854A      8.146046   855A      8.166001  
     856A      8.175168   857A      8.205133   858A      8.287741  
     859A      8.312371   860A      8.319487   861A      8.321157  
     862A      8.363353   863A      8.377031   864A      8.397449  
     865A      8.404790   866A      8.431289   867A      8.442868  
     868A      8.454309   869A      8.502902   870A      8.532756  
     871A      8.556004   872A      8.576515   873A      8.594527  
     874A      8.637018   875A      8.648637   876A      8.656639  
     877A      8.678346   878A      8.695355   879A      8.720802  
     880A      8.722079   881A      8.726920   882A      8.744841  
     883A      8.748096   884A      8.768541   885A      8.816417  
     886A      8.834121   887A      8.850932   888A      8.869312  
     889A      8.871146   890A      8.894858   891A      8.895288  
     892A      8.904461   893A      8.926670   894A      8.946473  
     895A      8.952680   896A      8.954832   897A      8.955147  
     898A      8.957633   899A      8.981636   900A      9.013481  
     901A      9.043754   902A      9.068234   903A      9.083664  
     904A      9.124662   905A      9.136131   906A      9.179887  
     907A      9.180890   908A      9.191942   909A      9.221128  
     910A      9.223069   911A      9.235850   912A      9.241781  
     913A      9.247321   914A      9.255462   915A      9.274487  
     916A      9.310957   917A      9.345480   918A      9.350693  
     919A      9.398779   920A      9.410524   921A      9.418387  
     922A      9.421420   923A      9.443970   924A      9.465738  
     925A      9.517552   926A      9.527386   927A      9.528775  
     928A      9.548550   929A      9.554358   930A      9.576835  
     931A      9.593169   932A      9.598534   933A      9.606014  
     934A      9.648785   935A      9.677891   936A      9.689659  
     937A      9.726530   938A      9.727349   939A      9.744419  
     940A      9.753315   941A      9.769687   942A      9.796092  
     943A      9.798197   944A      9.848134   945A      9.871952  
     946A      9.926194   947A      9.956079   948A      9.960804  
     949A      9.970108   950A      9.982711   951A      9.992133  
     952A     10.020606   953A     10.030130   954A     10.033278  
     955A     10.069274   956A     10.075558   957A     10.106983  
     958A     10.149818   959A     10.161255   960A     10.226111  
     961A     10.227638   962A     10.232587   963A     10.238870  
     964A     10.240375   965A     10.270924   966A     10.306304  
     967A     10.334365   968A     10.341086   969A     10.376428  
     970A     10.400005   971A     10.418108   972A     10.472115  
     973A     10.492203   974A     10.493446   975A     10.506998  
     976A     10.509044   977A     10.526166   978A     10.545292  
     979A     10.594160   980A     10.595461   981A     10.645815  
     982A     10.716540   983A     10.739596   984A     10.763873  
     985A     10.771876   986A     10.786942   987A     10.801757  
     988A     10.842356   989A     10.859098   990A     10.908052  
     991A     10.939377   992A     11.026247   993A     11.042302  
     994A     11.062014   995A     11.135921   996A     11.140908  
     997A     11.179308   998A     11.208683   999A     11.211416  
    1000A     11.254890  1001A     11.347548  1002A     11.367394  
    1003A     11.372464  1004A     11.416070  1005A     11.441725  
    1006A     11.483137  1007A     11.507086  1008A     11.560424  
    1009A     11.569253  1010A     11.646974  1011A     11.676346  
    1012A     11.681538  1013A     11.720281  1014A     11.787594  
    1015A     11.832370  1016A     11.896994  1017A     11.956205  
    1018A     12.023742  1019A     12.158610  1020A     12.281146  
    1021A     12.304215  1022A     12.495961  1023A     12.511828  
    1024A     12.535790  1025A     12.644455  1026A     12.737367  
    1027A     12.881052  1028A     12.977759  1029A     13.006210  
    1030A     13.156957  1031A     13.228795  1032A     13.296042  
    1033A     13.369683  1034A     13.379907  1035A     13.391730  
    1036A     13.395223  1037A     13.535555  1038A     13.608630  
    1039A     13.656468  1040A     13.713023  1041A     13.804330  
    1042A     14.200699  1043A     14.684217  1044A     14.894913  
    1045A     15.084001  1046A     17.318784  1047A     26.215655  
    1048A     26.364867  1049A     26.557223  1050A     26.966955  
    1051A     27.208493  1052A     29.220072  1053A     34.282411  
    1054A     45.718333  

    Final Occupation by Irrep:
              A 
    DOCC [    30 ]

  @DF-RHF Final Energy:  -361.89776727095347

   => Energetics <=

    Nuclear Repulsion Energy =            326.4523790269867618
    One-Electron Energy =               -1137.9362899205511894
    Two-Electron Energy =                 449.5861436226109049
    Total Energy =                       -361.8977672709534659

Computation Completed


Properties will be evaluated at   0.000000,   0.000000,   0.000000 [a0]

Properties computed using the SCF density matrix

  Nuclear Dipole Moment: [e a0]
     X:    -4.3164      Y:    -3.0878      Z:     0.0027

  Electronic Dipole Moment: [e a0]
     X:     5.9457      Y:     2.5560      Z:    -0.0034

  Dipole Moment: [e a0]
     X:     1.6292      Y:    -0.5318      Z:    -0.0007     Total:     1.7138

  Dipole Moment: [D]
     X:     4.1411      Y:    -1.3518      Z:    -0.0018     Total:     4.3561


*** tstop() called on node97.bme.utexas.edu at Thu Apr 23 18:58:39 2020
Module time:
	user time   =     496.15 seconds =       8.27 minutes
	system time =      35.82 seconds =       0.60 minutes
	total time  =         71 seconds =       1.18 minutes
Total time:
	user time   =    2533.99 seconds =      42.23 minutes
	system time =     167.08 seconds =       2.78 minutes
	total time  =        421 seconds =       7.02 minutes

*** tstart() called on node97.bme.utexas.edu
*** at Thu Apr 23 18:58:39 2020


  //>>>>>>>>>>>>>>>>>>>>>>>>>>>>>>>>>>>//
  //               DFMP2               //
  //<<<<<<<<<<<<<<<<<<<<<<<<<<<<<<<<<<<//

   => Loading Basis Set <=

    Name: (AUG-CC-PVQZ AUX)
    Role: RIFIT
    Keyword: DF_BASIS_MP2
    atoms 1                         entry O          line   332 file /home/liuchw/anaconda3/envs/psi4env/share/psi4/basis/aug-cc-pvqz-ri.gbs 
    atoms 2, 4-6, 9, 11, 13, 15, 17 entry H          line    30 file /home/liuchw/anaconda3/envs/psi4env/share/psi4/basis/aug-cc-pvqz-ri.gbs 
    atoms 3, 8, 10, 12, 14, 16      entry C          line   184 file /home/liuchw/anaconda3/envs/psi4env/share/psi4/basis/aug-cc-pvqz-ri.gbs 
    atoms 7                         entry N          line   258 file /home/liuchw/anaconda3/envs/psi4env/share/psi4/basis/aug-cc-pvqz-ri.gbs 

	 --------------------------------------------------------
	                          DF-MP2                         
	      2nd-Order Density-Fitted Moller-Plesset Theory     
	              RMP2 Wavefunction,   8 Threads             
	                                                         
	        Rob Parrish, Justin Turney, Andy Simmonett,      
	           Ed Hohenstein, and C. David Sherrill          
	 --------------------------------------------------------

   => Auxiliary Basis Set <=

  Basis Set: (AUG-CC-PVQZ AUX)
    Blend: AUG-CC-PVQZ-RI
    Number of shells: 468
    Number of basis function: 2064
    Number of Cartesian functions: 2841
    Spherical Harmonics?: true
    Max angular momentum: 5

	 --------------------------------------------------------
	                 NBF =  1054, NAUX =  2064
	 --------------------------------------------------------
	   CLASS    FOCC     OCC    AOCC    AVIR     VIR    FVIR
	   PAIRS       0      30      30    1024    1024       0
	 --------------------------------------------------------

	-----------------------------------------------------------
	 ==================> DF-MP2 Energies <==================== 
	-----------------------------------------------------------
	 Reference Energy          =    -361.8977672709534659 [Eh]
	 Singles Energy            =      -0.0000000000000000 [Eh]
	 Same-Spin Energy          =      -0.3979545012170074 [Eh]
	 Opposite-Spin Energy      =      -1.3545966938320961 [Eh]
	 Correlation Energy        =      -1.7525511950491035 [Eh]
	 Total Energy              =    -363.6503184660025454 [Eh]
	-----------------------------------------------------------
	 ================> DF-SCS-MP2 Energies <================== 
	-----------------------------------------------------------
	 SCS Same-Spin Scale       =       0.3333333333333333 [-]
	 SCS Opposite-Spin Scale   =       1.2000000000000000 [-]
	 SCS Same-Spin Energy      =      -0.1326515004056691 [Eh]
	 SCS Opposite-Spin Energy  =      -1.6255160325985154 [Eh]
	 SCS Correlation Energy    =      -1.7581675330041846 [Eh]
	 SCS Total Energy          =    -363.6559348039576776 [Eh]
	-----------------------------------------------------------


*** tstop() called on node97.bme.utexas.edu at Thu Apr 23 18:59:40 2020
Module time:
	user time   =     275.61 seconds =       4.59 minutes
	system time =      19.01 seconds =       0.32 minutes
	total time  =         61 seconds =       1.02 minutes
Total time:
	user time   =    2809.61 seconds =      46.83 minutes
	system time =     186.09 seconds =       3.10 minutes
	total time  =        482 seconds =       8.03 minutes

  //>>>>>>>>>>>>>>>>>>>>>>>>>>>>>>>>>>>//
  //  CBS Results: mp2/aug-cc-pv[tq]z  //
  //<<<<<<<<<<<<<<<<<<<<<<<<<<<<<<<<<<<//


   ==> HF <==

   HI-zeta (4) Energy:               -361.897767270953


   ==> Helgaker 2-point correlated extrapolation for method: MP2 <==

   LO-zeta (3) Energy:               -363.458103432309
   HI-zeta (4) Energy:               -363.650318466003
   Alpha (exponent) Value:             3.000000000000
   Extrapolated Energy:              -363.790583490590

   @Extrapolated MP2/(T,Q):          -363.790583490590



   ==> Helgaker 2-point correlated extrapolation for method: HF <==

   LO-zeta (3) Energy:               -361.876196262843
   HI-zeta (4) Energy:               -361.897767270953
   Alpha (exponent) Value:             3.000000000000
   Extrapolated Energy:              -361.913508276872

   @Extrapolated HF/(T,Q):           -361.913508276872


   ==> Components <==

  ---------------------------------------------------------------------------------------------------------
                          Method / Basis                      Rqd      Energy [Eh]   Variable
  ---------------------------------------------------------------------------------------------------------
                              hf / aug-cc-pvtz                  *    -361.87619626   HF TOTAL ENERGY
                             mp2 / aug-cc-pvtz                  *    -363.45810343   MP2 TOTAL ENERGY
                              hf / aug-cc-pvqz                  *    -361.89776727   HF TOTAL ENERGY
                             mp2 / aug-cc-pvqz                  *    -363.65031847   MP2 TOTAL ENERGY
  ---------------------------------------------------------------------------------------------------------

   ==> Stages <==

  ---------------------------------------------------------------------------------------------------------
      Stage               Method / Basis                       Wt      Energy [Eh]   Scheme
  ---------------------------------------------------------------------------------------------------------
        scf                   hf / aug-cc-pvqz                  1    -361.89776727   xtpl_highest_1
       corl                  mp2 / aug-cc-pv[tq]z               1    -363.79058349   corl_xtpl_helgaker_2
       corl                   hf / aug-cc-pv[tq]z              -1    -361.91350828   corl_xtpl_helgaker_2
  ---------------------------------------------------------------------------------------------------------

   ==> CBS <==

  ---------------------------------------------------------------------------------------------------------
      Stage               Method / Basis                               Energy [Eh]   Scheme
  ---------------------------------------------------------------------------------------------------------
        scf                   hf / aug-cc-pvqz                       -361.89776727   xtpl_highest_1
       corl                  mp2 / aug-cc-pv[tq]z                      -1.87707521   corl_xtpl_helgaker_2
      total                  CBS                                     -363.77484248   
  ---------------------------------------------------------------------------------------------------------
   => Loading Basis Set <=

    Name: DEF2-SVP
    Role: ORBITAL
    Keyword: BASIS
    atoms 1                         entry O          line   130 file /home/liuchw/anaconda3/envs/psi4env/share/psi4/basis/def2-svp.gbs 
    atoms 2, 4-6, 9, 11, 13, 15, 17 entry H          line    15 file /home/liuchw/anaconda3/envs/psi4env/share/psi4/basis/def2-svp.gbs 
    atoms 3, 8, 10, 12, 14, 16      entry C          line    90 file /home/liuchw/anaconda3/envs/psi4env/share/psi4/basis/def2-svp.gbs 
    atoms 7                         entry N          line   110 file /home/liuchw/anaconda3/envs/psi4env/share/psi4/basis/def2-svp.gbs 


       N-Body: Complex Energy (fragments = (1, 2), basis = (1, 2):  -363.77484248467118)

   ==> N-Body: Counterpoise Corrected (CP) energies <==

   n-Body     Total Energy [Eh]       I.E. [kcal/mol]      Delta [kcal/mol]
        1     -363.766934910161        0.000000000000        0.000000000000
        2     -363.775015951788       -5.070930178938       -5.070930178938

   => Loading Basis Set <=

    Name: DEF2-SVP
    Role: ORBITAL
    Keyword: BASIS
    atoms 1                         entry O          line   130 file /home/liuchw/anaconda3/envs/psi4env/share/psi4/basis/def2-svp.gbs 
    atoms 2, 4-6, 9, 11, 13, 15, 17 entry H          line    15 file /home/liuchw/anaconda3/envs/psi4env/share/psi4/basis/def2-svp.gbs 
    atoms 3, 8, 10, 12, 14, 16      entry C          line    90 file /home/liuchw/anaconda3/envs/psi4env/share/psi4/basis/def2-svp.gbs 
    atoms 7                         entry N          line   110 file /home/liuchw/anaconda3/envs/psi4env/share/psi4/basis/def2-svp.gbs 


    Psi4 stopped on: Thursday, 23 April 2020 06:59PM
    Psi4 wall time for execution: 0:08:03.68

*** Psi4 exiting successfully. Buy a developer a beer!
