
    -----------------------------------------------------------------------
          Psi4: An Open-Source Ab Initio Electronic Structure Package
                               Psi4 1.4a2.dev224 

                         Git: Rev {master} e453b16 


    R. M. Parrish, L. A. Burns, D. G. A. Smith, A. C. Simmonett,
    A. E. DePrince III, E. G. Hohenstein, U. Bozkaya, A. Yu. Sokolov,
    R. Di Remigio, R. M. Richard, J. F. Gonthier, A. M. James,
    H. R. McAlexander, A. Kumar, M. Saitow, X. Wang, B. P. Pritchard,
    P. Verma, H. F. Schaefer III, K. Patkowski, R. A. King, E. F. Valeev,
    F. A. Evangelista, J. M. Turney, T. D. Crawford, and C. D. Sherrill,
    J. Chem. Theory Comput. 13(7) pp 3185--3197 (2017).
    (doi: 10.1021/acs.jctc.7b00174)


                         Additional Contributions by
    P. Kraus, H. Kruse, M. H. Lechner, M. C. Schieber, R. A. Shaw,
    A. Alenaizan, R. Galvelis, Z. L. Glick, S. Lehtola, and J. P. Misiewicz

    -----------------------------------------------------------------------


    Psi4 started on: Saturday, 11 April 2020 05:07PM

    Process ID: 64199
    Host:       node59.bme.utexas.edu
    PSIDATADIR: /home/liuchw/anaconda3/envs/psi4env/share/psi4
    Memory:     500.0 MiB
    Threads:    6
    
  ==> Input File <==

--------------------------------------------------------------------------
#Generated by lconvert.py for cbs job

memory 40 GB

molecule  {
0 1
  C       -1.0617090     1.2971410     0.2920600
  O       -0.3581610     2.2704590     0.5318130
  O       -0.5893040     0.0949180     0.0037890
  H        0.4044360     0.1277230     0.0184120
  C       -2.5584280     1.3425500     0.2962570
  H       -2.8959980     2.3474640     0.5183160
  H       -2.9328890     1.0223900    -0.6729960
  H       -2.9372120     0.6449100     1.0395570
--
0 1
  C        2.4612630     1.1069560     0.2686960
  O        1.7576440     0.1336410     0.0289090
  O        1.9888360     2.3093910     0.5564750
  H        0.9950480     2.2764930     0.5420740
  C        3.9579750     1.0610530     0.2667320
  H        4.2955550     0.0597340     0.0292070
  H        4.3394740     1.7714060    -0.4627370
  H        4.3294910     1.3637480     1.2427870
units angstrom
no_reorient
symmetry c1
}

set {
scf_type DF
mp2_type DF
e_convergence 7
reference rhf
}

energy('mp2/aug-cc-pv[tq]z', bsse_type='cp')
--------------------------------------------------------------------------

  Memory set to  37.253 GiB by Python driver.

Scratch directory: /scratch//


   ===> N-Body Interaction Abacus <===
        BSSE Treatment:                     cp
        Number of 1-body computations:     4
        Number of 2-body computations:     1

   ==> N-Body: Now computing 1-body complexes <==


       N-Body: Computing complex (1/4) with fragments (2,) in the basis of fragments (2,).


Scratch directory: /scratch//

  //>>>>>>>>>>>>>>>>>>>>>>>>>>>>>>>>>>>//
  //   CBS Setup: mp2/aug-cc-pv[tq]z   //
  //<<<<<<<<<<<<<<<<<<<<<<<<<<<<<<<<<<<//

    Naive listing of computations required.
             hf / aug-cc-pvqz              for  HF TOTAL ENERGY
            mp2 / aug-cc-pvtz              for  MP2 TOTAL ENERGY
            mp2 / aug-cc-pvqz              for  MP2 TOTAL ENERGY
             hf / aug-cc-pvtz              for  HF TOTAL ENERGY
             hf / aug-cc-pvqz              for  HF TOTAL ENERGY

    Enlightened listing of computations required.
            mp2 / aug-cc-pvtz              for  MP2 TOTAL ENERGY
            mp2 / aug-cc-pvqz              for  MP2 TOTAL ENERGY

    Full listing of computations to be obtained (required and bonus).
             hf / aug-cc-pvtz              for  HF TOTAL ENERGY
            mp2 / aug-cc-pvtz              for  MP2 TOTAL ENERGY
             hf / aug-cc-pvqz              for  HF TOTAL ENERGY
            mp2 / aug-cc-pvqz              for  MP2 TOTAL ENERGY

  //>>>>>>>>>>>>>>>>>>>>>>>>>>>>>>>>>>>>//
  // CBS Computation: MP2 / AUG-CC-PVTZ //
  //<<<<<<<<<<<<<<<<<<<<<<<<<<<<<<<<<<<<//


Scratch directory: /scratch//

*** tstart() called on node59.bme.utexas.edu
*** at Sat Apr 11 17:07:14 2020

   => Loading Basis Set <=

    Name: AUG-CC-PVTZ
    Role: ORBITAL
    Keyword: BASIS
    atoms 1, 5   entry C          line   239 file /home/liuchw/anaconda3/envs/psi4env/share/psi4/basis/aug-cc-pvtz.gbs 
    atoms 2-3    entry O          line   331 file /home/liuchw/anaconda3/envs/psi4env/share/psi4/basis/aug-cc-pvtz.gbs 
    atoms 4, 6-8 entry H          line    40 file /home/liuchw/anaconda3/envs/psi4env/share/psi4/basis/aug-cc-pvtz.gbs 


         ---------------------------------------------------------
                                   SCF
               by Justin Turney, Rob Parrish, Andy Simmonett
                          and Daniel G. A. Smith
                              RHF Reference
                        6 Threads,  38146 MiB Core
         ---------------------------------------------------------

  ==> Geometry <==

    Molecular point group: c1
    Full point group: C1

    Geometry (in Angstrom), charge = 0, multiplicity = 1:

       Center              X                  Y                   Z               Mass       
    ------------   -----------------  -----------------  -----------------  -----------------
         C            1.761501702476    -0.095050607982    -0.011932490238    12.000000000000
         O            1.057882702476    -1.068365607982    -0.251719490238    15.994914619570
         O            1.289074702476     1.107384392018     0.275846509762    15.994914619570
         H            0.295286702476     1.074486392018     0.261445509762     1.007825032230
         C            3.258213702476    -0.140953607982    -0.013896490238    12.000000000000
         H            3.595793702476    -1.142272607982    -0.251421490238     1.007825032230
         H            3.639712702476     0.569399392018    -0.743365490238     1.007825032230
         H            3.629729702476     0.161741392018     0.962158509762     1.007825032230

  Running in c1 symmetry.

  Rotational constants: A =      0.37601  B =      0.06730  C =      0.05769 [cm^-1]
  Rotational constants: A =  11272.52943  B =   2017.66740  C =   1729.50323 [MHz]
  Nuclear repulsion =  121.350368754509077

  Charge       = 0
  Multiplicity = 1
  Electrons    = 32
  Nalpha       = 16
  Nbeta        = 16

  ==> Algorithm <==

  SCF Algorithm Type is DF.
  DIIS enabled.
  MOM disabled.
  Fractional occupation disabled.
  Guess Type is SAD.
  Energy threshold   = 1.00e-07
  Density threshold  = 1.00e-08
  Integral threshold = 0.00e+00

  ==> Primary Basis <==

  Basis Set: AUG-CC-PVTZ
    Blend: AUG-CC-PVTZ
    Number of shells: 92
    Number of basis function: 276
    Number of Cartesian functions: 320
    Spherical Harmonics?: true
    Max angular momentum: 3

   => Loading Basis Set <=

    Name: (AUG-CC-PVTZ AUX)
    Role: JKFIT
    Keyword: DF_BASIS_SCF
    atoms 1, 5   entry C          line   162 file /home/liuchw/anaconda3/envs/psi4env/share/psi4/basis/aug-cc-pvtz-jkfit.gbs 
    atoms 2-3    entry O          line   286 file /home/liuchw/anaconda3/envs/psi4env/share/psi4/basis/aug-cc-pvtz-jkfit.gbs 
    atoms 4, 6-8 entry H          line    70 file /home/liuchw/anaconda3/envs/psi4env/share/psi4/basis/aug-cc-pvtz-jkfit.gbs 

  ==> Pre-Iterations <==

   -------------------------------------------------------
    Irrep   Nso     Nmo     Nalpha   Nbeta   Ndocc  Nsocc
   -------------------------------------------------------
     A        276     276       0       0       0       0
   -------------------------------------------------------
    Total     276     276      16      16      16       0
   -------------------------------------------------------

  ==> Integral Setup <==

  DFHelper Memory: AOs need 0.361 GiB; user supplied 27.940 GiB. Using in-core AOs.

  ==> MemDFJK: Density-Fitted J/K Matrices <==

    J tasked:                   Yes
    K tasked:                   Yes
    wK tasked:                   No
    OpenMP threads:               6
    Memory [MiB]:             28610
    Algorithm:                 Core
    Schwarz Cutoff:           1E-12
    Mask sparsity (%):       0.2415
    Fitting Condition:        1E-10

   => Auxiliary Basis Set <=

  Basis Set: (AUG-CC-PVTZ AUX)
    Blend: AUG-CC-PVTZ-JKFIT
    Number of shells: 176
    Number of basis function: 600
    Number of Cartesian functions: 744
    Spherical Harmonics?: true
    Max angular momentum: 4

  Minimum eigenvalue in the overlap matrix is 2.0456879329E-05.
  Using Symmetric Orthogonalization.

  SCF Guess: Superposition of Atomic Densities via on-the-fly atomic UHF.

  ==> Iterations <==

                           Total Energy        Delta E     RMS |[F,P]|

   @DF-RHF iter SAD:  -227.00118542289607   -2.27001e+02   0.00000e+00 
   @DF-RHF iter   1:  -227.73854745738987   -7.37362e-01   2.19285e-03 DIIS
   @DF-RHF iter   2:  -227.85680185594811   -1.18254e-01   1.33540e-03 DIIS
   @DF-RHF iter   3:  -227.89975941585661   -4.29576e-02   2.24854e-04 DIIS
   @DF-RHF iter   4:  -227.90205118117132   -2.29177e-03   1.01759e-04 DIIS
   @DF-RHF iter   5:  -227.90256205767199   -5.10877e-04   2.39946e-05 DIIS
   @DF-RHF iter   6:  -227.90260254188379   -4.04842e-05   1.14599e-05 DIIS
   @DF-RHF iter   7:  -227.90261257514612   -1.00333e-05   3.81546e-06 DIIS
   @DF-RHF iter   8:  -227.90261431702316   -1.74188e-06   1.03736e-06 DIIS
   @DF-RHF iter   9:  -227.90261446501313   -1.47990e-07   2.20894e-07 DIIS
   @DF-RHF iter  10:  -227.90261447060777   -5.59464e-09   5.34101e-08 DIIS
   @DF-RHF iter  11:  -227.90261447083077   -2.22997e-10   1.23982e-08 DIIS
   @DF-RHF iter  12:  -227.90261447084407   -1.33014e-11   4.02826e-09 DIIS
  Energy and wave function converged.


  ==> Post-Iterations <==

    Orbital Energies [Eh]
    ---------------------

    Doubly Occupied:                                                      

       1A    -20.625059     2A    -20.545305     3A    -11.389441  
       4A    -11.243648     5A     -1.471762     6A     -1.354696  
       7A     -1.028807     8A     -0.833707     9A     -0.705233  
      10A     -0.682435    11A     -0.656306    12A     -0.580207  
      13A     -0.572736    14A     -0.565094    15A     -0.477873  
      16A     -0.452431  

    Virtual:                                                              

      17A      0.026687    18A      0.037932    19A      0.044830  
      20A      0.051689    21A      0.082369    22A      0.098177  
      23A      0.099090    24A      0.118844    25A      0.126483  
      26A      0.126505    27A      0.136209    28A      0.160795  
      29A      0.168304    30A      0.171492    31A      0.180692  
      32A      0.187880    33A      0.215489    34A      0.228377  
      35A      0.239880    36A      0.249003    37A      0.262040  
      38A      0.274098    39A      0.287701    40A      0.300238  
      41A      0.311961    42A      0.328101    43A      0.333077  
      44A      0.343307    45A      0.348312    46A      0.362332  
      47A      0.371327    48A      0.377009    49A      0.401103  
      50A      0.405741    51A      0.410099    52A      0.413077  
      53A      0.426440    54A      0.437721    55A      0.453689  
      56A      0.454083    57A      0.478625    58A      0.487077  
      59A      0.511309    60A      0.519411    61A      0.521321  
      62A      0.544897    63A      0.562820    64A      0.604510  
      65A      0.618856    66A      0.642008    67A      0.660542  
      68A      0.697429    69A      0.710146    70A      0.722232  
      71A      0.763034    72A      0.771960    73A      0.787205  
      74A      0.804154    75A      0.806788    76A      0.812683  
      77A      0.834828    78A      0.839888    79A      0.871238  
      80A      0.878734    81A      0.888539    82A      0.899246  
      83A      0.905254    84A      0.910791    85A      0.920963  
      86A      0.944697    87A      0.966091    88A      0.971674  
      89A      0.975650    90A      0.998906    91A      1.013226  
      92A      1.014616    93A      1.022104    94A      1.046361  
      95A      1.046956    96A      1.061109    97A      1.103887  
      98A      1.109970    99A      1.114888   100A      1.131255  
     101A      1.162482   102A      1.185630   103A      1.192592  
     104A      1.196963   105A      1.198774   106A      1.210924  
     107A      1.222735   108A      1.260739   109A      1.289485  
     110A      1.318544   111A      1.333261   112A      1.345071  
     113A      1.399505   114A      1.421657   115A      1.446696  
     116A      1.462688   117A      1.466097   118A      1.484042  
     119A      1.509868   120A      1.530523   121A      1.557978  
     122A      1.594371   123A      1.605088   124A      1.627754  
     125A      1.647680   126A      1.658340   127A      1.660289  
     128A      1.693394   129A      1.708212   130A      1.749753  
     131A      1.768194   132A      1.781313   133A      1.802203  
     134A      1.814215   135A      1.832858   136A      1.890706  
     137A      1.911057   138A      1.935673   139A      1.964596  
     140A      2.043206   141A      2.057038   142A      2.082735  
     143A      2.129317   144A      2.162465   145A      2.175813  
     146A      2.208752   147A      2.212247   148A      2.271901  
     149A      2.297838   150A      2.327940   151A      2.329316  
     152A      2.413107   153A      2.424836   154A      2.450135  
     155A      2.463205   156A      2.516878   157A      2.560311  
     158A      2.579378   159A      2.591410   160A      2.610645  
     161A      2.688497   162A      2.736288   163A      2.749711  
     164A      2.770642   165A      2.772659   166A      2.799131  
     167A      2.861045   168A      2.902497   169A      2.915071  
     170A      2.962323   171A      2.964653   172A      2.990037  
     173A      3.043222   174A      3.146001   175A      3.202003  
     176A      3.227454   177A      3.255360   178A      3.360623  
     179A      3.379616   180A      3.421520   181A      3.461736  
     182A      3.538625   183A      3.558583   184A      3.590936  
     185A      3.602801   186A      3.605863   187A      3.660444  
     188A      3.721592   189A      3.778917   190A      3.817773  
     191A      3.843715   192A      3.881334   193A      3.914720  
     194A      3.933862   195A      3.965968   196A      3.971305  
     197A      4.009601   198A      4.020966   199A      4.061735  
     200A      4.065493   201A      4.107272   202A      4.132134  
     203A      4.162822   204A      4.232999   205A      4.288830  
     206A      4.321215   207A      4.329994   208A      4.372209  
     209A      4.398094   210A      4.439822   211A      4.461929  
     212A      4.498964   213A      4.546173   214A      4.615107  
     215A      4.644257   216A      4.673575   217A      4.738141  
     218A      4.758411   219A      4.791931   220A      4.807755  
     221A      4.873849   222A      4.918386   223A      4.973968  
     224A      5.024003   225A      5.040708   226A      5.098859  
     227A      5.115573   228A      5.132716   229A      5.260578  
     230A      5.278473   231A      5.341749   232A      5.342692  
     233A      5.380074   234A      5.501214   235A      5.502860  
     236A      5.633408   237A      5.646758   238A      5.686456  
     239A      5.771769   240A      5.898555   241A      6.038251  
     242A      6.085423   243A      6.119753   244A      6.207025  
     245A      6.341722   246A      6.570898   247A      6.645421  
     248A      6.676876   249A      6.692612   250A      6.734477  
     251A      6.817106   252A      6.850172   253A      6.856405  
     254A      6.989156   255A      7.046762   256A      7.164108  
     257A      7.213995   258A      7.253997   259A      7.310414  
     260A      7.316205   261A      7.352552   262A      7.379815  
     263A      7.502275   264A      7.539978   265A      7.607966  
     266A      7.665907   267A      7.715141   268A      7.846469  
     269A      7.905300   270A      8.016588   271A      8.226017  
     272A      8.499992   273A     14.988305   274A     15.582860  
     275A     17.191847   276A     18.920815  

    Final Occupation by Irrep:
              A 
    DOCC [    16 ]

  @DF-RHF Final Energy:  -227.90261447084407

   => Energetics <=

    Nuclear Repulsion Energy =            121.3503687545090770
    One-Electron Energy =                -552.1364879024297352
    Two-Electron Energy =                 202.8835046770765871
    Total Energy =                       -227.9026144708440711

Computation Completed


Properties will be evaluated at   0.000000,   0.000000,   0.000000 [a0]

Properties computed using the SCF density matrix

  Nuclear Dipole Moment: [e a0]
     X:   113.4865      Y:    -0.8325      Z:     0.5043

  Electronic Dipole Moment: [e a0]
     X:  -113.0475      Y:     1.5714      Z:    -0.3232

  Dipole Moment: [e a0]
     X:     0.4390      Y:     0.7390      Z:     0.1811     Total:     0.8784

  Dipole Moment: [D]
     X:     1.1159      Y:     1.8783      Z:     0.4604     Total:     2.2327


*** tstop() called on node59.bme.utexas.edu at Sat Apr 11 17:07:17 2020
Module time:
	user time   =      17.09 seconds =       0.28 minutes
	system time =       0.72 seconds =       0.01 minutes
	total time  =          3 seconds =       0.05 minutes
Total time:
	user time   =      17.09 seconds =       0.28 minutes
	system time =       0.72 seconds =       0.01 minutes
	total time  =          3 seconds =       0.05 minutes

*** tstart() called on node59.bme.utexas.edu
*** at Sat Apr 11 17:07:17 2020


  //>>>>>>>>>>>>>>>>>>>>>>>>>>>>>>>>>>>//
  //               DFMP2               //
  //<<<<<<<<<<<<<<<<<<<<<<<<<<<<<<<<<<<//

   => Loading Basis Set <=

    Name: (AUG-CC-PVTZ AUX)
    Role: RIFIT
    Keyword: DF_BASIS_MP2
    atoms 1, 5   entry C          line   148 file /home/liuchw/anaconda3/envs/psi4env/share/psi4/basis/aug-cc-pvtz-ri.gbs 
    atoms 2-3    entry O          line   264 file /home/liuchw/anaconda3/envs/psi4env/share/psi4/basis/aug-cc-pvtz-ri.gbs 
    atoms 4, 6-8 entry H          line    30 file /home/liuchw/anaconda3/envs/psi4env/share/psi4/basis/aug-cc-pvtz-ri.gbs 

	 --------------------------------------------------------
	                          DF-MP2                         
	      2nd-Order Density-Fitted Moller-Plesset Theory     
	              RMP2 Wavefunction,   6 Threads             
	                                                         
	        Rob Parrish, Justin Turney, Andy Simmonett,      
	           Ed Hohenstein, and C. David Sherrill          
	 --------------------------------------------------------

   => Auxiliary Basis Set <=

  Basis Set: (AUG-CC-PVTZ AUX)
    Blend: AUG-CC-PVTZ-RI
    Number of shells: 168
    Number of basis function: 608
    Number of Cartesian functions: 764
    Spherical Harmonics?: true
    Max angular momentum: 4

	 --------------------------------------------------------
	                 NBF =   276, NAUX =   608
	 --------------------------------------------------------
	   CLASS    FOCC     OCC    AOCC    AVIR     VIR    FVIR
	   PAIRS       0      16      16     260     260       0
	 --------------------------------------------------------

	-----------------------------------------------------------
	 ==================> DF-MP2 Energies <==================== 
	-----------------------------------------------------------
	 Reference Energy          =    -227.9026144708440711 [Eh]
	 Singles Energy            =      -0.0000000000000000 [Eh]
	 Same-Spin Energy          =      -0.2152390289001731 [Eh]
	 Opposite-Spin Energy      =      -0.6696504969356414 [Eh]
	 Correlation Energy        =      -0.8848895258358145 [Eh]
	 Total Energy              =    -228.7875039966798738 [Eh]
	-----------------------------------------------------------
	 ================> DF-SCS-MP2 Energies <================== 
	-----------------------------------------------------------
	 SCS Same-Spin Scale       =       0.3333333333333333 [-]
	 SCS Opposite-Spin Scale   =       1.2000000000000000 [-]
	 SCS Same-Spin Energy      =      -0.0717463429667244 [Eh]
	 SCS Opposite-Spin Energy  =      -0.8035805963227697 [Eh]
	 SCS Correlation Energy    =      -0.8753269392894940 [Eh]
	 SCS Total Energy          =    -228.7779414101335647 [Eh]
	-----------------------------------------------------------


*** tstop() called on node59.bme.utexas.edu at Sat Apr 11 17:07:19 2020
Module time:
	user time   =       6.62 seconds =       0.11 minutes
	system time =       0.34 seconds =       0.01 minutes
	total time  =          2 seconds =       0.03 minutes
Total time:
	user time   =      23.71 seconds =       0.40 minutes
	system time =       1.06 seconds =       0.02 minutes
	total time  =          5 seconds =       0.08 minutes

  //>>>>>>>>>>>>>>>>>>>>>>>>>>>>>>>>>>>>//
  // CBS Computation: MP2 / AUG-CC-PVQZ //
  //<<<<<<<<<<<<<<<<<<<<<<<<<<<<<<<<<<<<//


Scratch directory: /scratch//

*** tstart() called on node59.bme.utexas.edu
*** at Sat Apr 11 17:07:19 2020

   => Loading Basis Set <=

    Name: AUG-CC-PVQZ
    Role: ORBITAL
    Keyword: BASIS
    atoms 1, 5   entry C          line   303 file /home/liuchw/anaconda3/envs/psi4env/share/psi4/basis/aug-cc-pvqz.gbs 
    atoms 2-3    entry O          line   423 file /home/liuchw/anaconda3/envs/psi4env/share/psi4/basis/aug-cc-pvqz.gbs 
    atoms 4, 6-8 entry H          line    40 file /home/liuchw/anaconda3/envs/psi4env/share/psi4/basis/aug-cc-pvqz.gbs 


         ---------------------------------------------------------
                                   SCF
               by Justin Turney, Rob Parrish, Andy Simmonett
                          and Daniel G. A. Smith
                              RHF Reference
                        6 Threads,  38146 MiB Core
         ---------------------------------------------------------

  ==> Geometry <==

    Molecular point group: c1
    Full point group: C1

    Geometry (in Angstrom), charge = 0, multiplicity = 1:

       Center              X                  Y                   Z               Mass       
    ------------   -----------------  -----------------  -----------------  -----------------
         C            1.761501702476    -0.095050607982    -0.011932490238    12.000000000000
         O            1.057882702476    -1.068365607982    -0.251719490238    15.994914619570
         O            1.289074702476     1.107384392018     0.275846509762    15.994914619570
         H            0.295286702476     1.074486392018     0.261445509762     1.007825032230
         C            3.258213702476    -0.140953607982    -0.013896490238    12.000000000000
         H            3.595793702476    -1.142272607982    -0.251421490238     1.007825032230
         H            3.639712702476     0.569399392018    -0.743365490238     1.007825032230
         H            3.629729702476     0.161741392018     0.962158509762     1.007825032230

  Running in c1 symmetry.

  Rotational constants: A =      0.37601  B =      0.06730  C =      0.05769 [cm^-1]
  Rotational constants: A =  11272.52943  B =   2017.66740  C =   1729.50323 [MHz]
  Nuclear repulsion =  121.350368754509077

  Charge       = 0
  Multiplicity = 1
  Electrons    = 32
  Nalpha       = 16
  Nbeta        = 16

  ==> Algorithm <==

  SCF Algorithm Type is DF.
  DIIS enabled.
  MOM disabled.
  Fractional occupation disabled.
  Guess Type is SAD.
  Energy threshold   = 1.00e-07
  Density threshold  = 1.00e-08
  Integral threshold = 0.00e+00

  ==> Primary Basis <==

  Basis Set: AUG-CC-PVQZ
    Blend: AUG-CC-PVQZ
    Number of shells: 136
    Number of basis function: 504
    Number of Cartesian functions: 640
    Spherical Harmonics?: true
    Max angular momentum: 4

   => Loading Basis Set <=

    Name: (AUG-CC-PVQZ AUX)
    Role: JKFIT
    Keyword: DF_BASIS_SCF
    atoms 1, 5   entry C          line   178 file /home/liuchw/anaconda3/envs/psi4env/share/psi4/basis/aug-cc-pvqz-jkfit.gbs 
    atoms 2-3    entry O          line   318 file /home/liuchw/anaconda3/envs/psi4env/share/psi4/basis/aug-cc-pvqz-jkfit.gbs 
    atoms 4, 6-8 entry H          line    70 file /home/liuchw/anaconda3/envs/psi4env/share/psi4/basis/aug-cc-pvqz-jkfit.gbs 

  ==> Pre-Iterations <==

   -------------------------------------------------------
    Irrep   Nso     Nmo     Nalpha   Nbeta   Ndocc  Nsocc
   -------------------------------------------------------
     A        504     504       0       0       0       0
   -------------------------------------------------------
    Total     504     504      16      16      16       0
   -------------------------------------------------------

  ==> Integral Setup <==

  DFHelper Memory: AOs need 1.702 GiB; user supplied 27.940 GiB. Using in-core AOs.

  ==> MemDFJK: Density-Fitted J/K Matrices <==

    J tasked:                   Yes
    K tasked:                   Yes
    wK tasked:                   No
    OpenMP threads:               6
    Memory [MiB]:             28610
    Algorithm:                 Core
    Schwarz Cutoff:           1E-12
    Mask sparsity (%):       1.6590
    Fitting Condition:        1E-10

   => Auxiliary Basis Set <=

  Basis Set: (AUG-CC-PVQZ AUX)
    Blend: AUG-CC-PVQZ-JKFIT
    Number of shells: 208
    Number of basis function: 872
    Number of Cartesian functions: 1196
    Spherical Harmonics?: true
    Max angular momentum: 5

  Minimum eigenvalue in the overlap matrix is 5.4934525761E-06.
  Using Symmetric Orthogonalization.

  SCF Guess: Superposition of Atomic Densities via on-the-fly atomic UHF.

  ==> Iterations <==

                           Total Energy        Delta E     RMS |[F,P]|

   @DF-RHF iter SAD:  -227.01589162229479   -2.27016e+02   0.00000e+00 
   @DF-RHF iter   1:  -227.75285601826067   -7.36964e-01   1.20362e-03 DIIS
   @DF-RHF iter   2:  -227.87130999419750   -1.18454e-01   7.34024e-04 DIIS
   @DF-RHF iter   3:  -227.91442179336897   -4.31118e-02   1.23612e-04 DIIS
   @DF-RHF iter   4:  -227.91672320137366   -2.30141e-03   5.61004e-05 DIIS
   @DF-RHF iter   5:  -227.91723741015466   -5.14209e-04   1.32502e-05 DIIS
   @DF-RHF iter   6:  -227.91727855818294   -4.11480e-05   6.34059e-06 DIIS
   @DF-RHF iter   7:  -227.91728863546712   -1.00773e-05   2.12551e-06 DIIS
   @DF-RHF iter   8:  -227.91729041995907   -1.78449e-06   5.93608e-07 DIIS
   @DF-RHF iter   9:  -227.91729058017071   -1.60212e-07   1.26257e-07 DIIS
   @DF-RHF iter  10:  -227.91729058621291   -6.04220e-09   2.99433e-08 DIIS
   @DF-RHF iter  11:  -227.91729058645291   -2.39993e-10   6.53652e-09 DIIS
  Energy and wave function converged.


  ==> Post-Iterations <==

    Orbital Energies [Eh]
    ---------------------

    Doubly Occupied:                                                      

       1A    -20.622263     2A    -20.542550     3A    -11.388187  
       4A    -11.242597     5A     -1.470908     6A     -1.353783  
       7A     -1.028564     8A     -0.833551     9A     -0.705190  
      10A     -0.682473    11A     -0.656385    12A     -0.580322  
      13A     -0.572818    14A     -0.565256    15A     -0.477961  
      16A     -0.452532  

    Virtual:                                                              

      17A      0.023782    18A      0.033977    19A      0.040266  
      20A      0.046632    21A      0.070339    22A      0.084363  
      23A      0.084794    24A      0.101584    25A      0.107461  
      26A      0.108185    27A      0.119445    28A      0.144589  
      29A      0.146043    30A      0.150774    31A      0.160164  
      32A      0.162453    33A      0.183735    34A      0.195957  
      35A      0.202835    36A      0.205113    37A      0.220214  
      38A      0.230132    39A      0.237749    40A      0.253894  
      41A      0.262265    42A      0.268308    43A      0.277159  
      44A      0.280908    45A      0.287754    46A      0.303902  
      47A      0.307251    48A      0.309191    49A      0.318774  
      50A      0.332766    51A      0.336782    52A      0.339668  
      53A      0.342600    54A      0.362769    55A      0.372357  
      56A      0.376021    57A      0.390854    58A      0.396031  
      59A      0.401307    60A      0.408375    61A      0.438420  
      62A      0.442627    63A      0.463413    64A      0.485401  
      65A      0.493843    66A      0.517101    67A      0.546603  
      68A      0.550811    69A      0.565300    70A      0.580026  
      71A      0.584219    72A      0.608161    73A      0.615654  
      74A      0.616804    75A      0.617992    76A      0.627699  
      77A      0.636981    78A      0.644794    79A      0.664685  
      80A      0.670402    81A      0.676731    82A      0.682506  
      83A      0.684825    84A      0.693011    85A      0.704138  
      86A      0.721995    87A      0.722870    88A      0.727798  
      89A      0.753332    90A      0.758339    91A      0.763211  
      92A      0.772589    93A      0.775722    94A      0.800335  
      95A      0.805739    96A      0.822972    97A      0.836913  
      98A      0.848571    99A      0.860952   100A      0.863353  
     101A      0.866424   102A      0.899328   103A      0.902846  
     104A      0.915769   105A      0.921055   106A      0.934159  
     107A      0.959072   108A      0.959264   109A      0.984352  
     110A      0.985900   111A      1.013604   112A      1.016833  
     113A      1.033806   114A      1.043783   115A      1.080352  
     116A      1.082872   117A      1.093327   118A      1.097128  
     119A      1.111720   120A      1.120501   121A      1.154472  
     122A      1.166403   123A      1.189514   124A      1.202296  
     125A      1.205727   126A      1.214992   127A      1.218249  
     128A      1.242260   129A      1.266586   130A      1.275817  
     131A      1.310061   132A      1.312882   133A      1.331356  
     134A      1.356170   135A      1.369459   136A      1.407525  
     137A      1.442813   138A      1.456114   139A      1.475553  
     140A      1.481134   141A      1.513117   142A      1.525965  
     143A      1.538493   144A      1.543819   145A      1.548882  
     146A      1.552027   147A      1.577610   148A      1.589039  
     149A      1.608374   150A      1.632011   151A      1.663435  
     152A      1.665784   153A      1.687309   154A      1.696808  
     155A      1.700393   156A      1.729342   157A      1.738150  
     158A      1.755078   159A      1.760652   160A      1.798269  
     161A      1.814135   162A      1.820667   163A      1.831084  
     164A      1.844896   165A      1.852399   166A      1.881533  
     167A      1.886317   168A      1.890170   169A      1.921548  
     170A      1.929108   171A      1.935293   172A      1.936229  
     173A      1.953422   174A      1.966621   175A      1.976001  
     176A      1.981346   177A      2.006730   178A      2.017876  
     179A      2.024920   180A      2.036418   181A      2.037527  
     182A      2.058593   183A      2.064202   184A      2.074255  
     185A      2.079389   186A      2.110488   187A      2.126662  
     188A      2.153401   189A      2.159841   190A      2.166186  
     191A      2.180299   192A      2.195951   193A      2.200701  
     194A      2.205990   195A      2.239612   196A      2.243343  
     197A      2.250908   198A      2.272042   199A      2.279674  
     200A      2.296148   201A      2.302313   202A      2.326090  
     203A      2.337254   204A      2.359082   205A      2.366635  
     206A      2.373493   207A      2.405387   208A      2.425409  
     209A      2.469205   210A      2.478019   211A      2.509725  
     212A      2.523928   213A      2.566555   214A      2.574216  
     215A      2.615092   216A      2.655651   217A      2.682096  
     218A      2.689445   219A      2.708397   220A      2.743333  
     221A      2.764217   222A      2.775139   223A      2.799511  
     224A      2.818866   225A      2.830645   226A      2.851842  
     227A      2.881917   228A      2.892390   229A      2.903169  
     230A      2.916439   231A      2.922013   232A      2.954015  
     233A      2.971526   234A      3.020936   235A      3.028122  
     236A      3.046646   237A      3.051606   238A      3.078749  
     239A      3.105290   240A      3.132025   241A      3.168749  
     242A      3.198023   243A      3.218095   244A      3.246852  
     245A      3.263655   246A      3.277859   247A      3.315042  
     248A      3.316656   249A      3.341409   250A      3.380255  
     251A      3.424425   252A      3.468484   253A      3.505874  
     254A      3.555203   255A      3.584002   256A      3.620465  
     257A      3.623463   258A      3.643684   259A      3.697368  
     260A      3.718747   261A      3.737516   262A      3.783402  
     263A      3.789448   264A      3.795312   265A      3.868671  
     266A      3.897577   267A      3.940044   268A      3.950804  
     269A      3.974804   270A      3.991534   271A      4.000310  
     272A      4.006570   273A      4.009796   274A      4.056607  
     275A      4.088581   276A      4.105019   277A      4.141867  
     278A      4.146068   279A      4.166799   280A      4.180920  
     281A      4.204167   282A      4.230999   283A      4.246112  
     284A      4.270808   285A      4.291037   286A      4.295093  
     287A      4.303270   288A      4.332387   289A      4.344384  
     290A      4.375910   291A      4.379148   292A      4.387922  
     293A      4.395440   294A      4.469583   295A      4.482484  
     296A      4.484996   297A      4.488698   298A      4.545325  
     299A      4.566754   300A      4.614238   301A      4.616537  
     302A      4.637111   303A      4.651085   304A      4.661306  
     305A      4.720371   306A      4.735819   307A      4.769895  
     308A      4.790829   309A      4.813077   310A      4.836942  
     311A      4.865552   312A      4.925714   313A      4.926252  
     314A      5.006097   315A      5.015986   316A      5.058174  
     317A      5.084101   318A      5.087559   319A      5.131139  
     320A      5.176465   321A      5.212601   322A      5.274343  
     323A      5.297999   324A      5.361011   325A      5.445188  
     326A      5.482244   327A      5.541101   328A      5.583285  
     329A      5.615965   330A      5.622101   331A      5.788841  
     332A      5.791660   333A      5.824491   334A      5.847079  
     335A      5.895136   336A      6.064278   337A      6.109740  
     338A      6.110615   339A      6.147398   340A      6.199998  
     341A      6.218949   342A      6.284338   343A      6.315524  
     344A      6.367607   345A      6.402269   346A      6.468766  
     347A      6.506698   348A      6.534349   349A      6.552833  
     350A      6.622866   351A      6.685203   352A      6.707213  
     353A      6.730552   354A      6.777845   355A      6.821105  
     356A      6.848937   357A      6.867153   358A      6.891753  
     359A      6.912757   360A      6.930204   361A      6.961655  
     362A      6.991940   363A      7.040219   364A      7.051406  
     365A      7.088891   366A      7.097965   367A      7.104734  
     368A      7.129868   369A      7.169762   370A      7.251417  
     371A      7.313710   372A      7.316028   373A      7.326538  
     374A      7.348375   375A      7.398301   376A      7.426623  
     377A      7.548433   378A      7.550958   379A      7.642418  
     380A      7.684109   381A      7.721737   382A      7.765972  
     383A      7.785392   384A      7.883568   385A      7.889330  
     386A      7.906933   387A      7.911161   388A      7.958991  
     389A      7.980502   390A      8.038852   391A      8.085875  
     392A      8.101035   393A      8.116855   394A      8.155598  
     395A      8.198737   396A      8.343551   397A      8.383572  
     398A      8.400340   399A      8.449546   400A      8.498208  
     401A      8.507263   402A      8.590774   403A      8.594400  
     404A      8.682017   405A      8.700659   406A      8.748362  
     407A      8.807462   408A      8.813357   409A      8.862678  
     410A      8.948954   411A      8.960587   412A      9.037252  
     413A      9.070460   414A      9.140644   415A      9.168386  
     416A      9.169398   417A      9.226476   418A      9.295845  
     419A      9.300057   420A      9.365488   421A      9.405081  
     422A      9.496831   423A      9.576442   424A      9.607901  
     425A      9.638348   426A      9.731035   427A      9.737478  
     428A      9.803667   429A      9.847962   430A      9.874385  
     431A      9.964736   432A     10.002903   433A     10.024229  
     434A     10.104647   435A     10.136202   436A     10.237779  
     437A     10.251106   438A     10.281865   439A     10.416707  
     440A     10.433139   441A     10.490826   442A     10.599855  
     443A     10.801690   444A     10.840657   445A     10.852845  
     446A     10.990133   447A     11.005083   448A     11.025790  
     449A     11.072381   450A     11.076445   451A     11.167979  
     452A     11.214718   453A     11.217465   454A     11.254168  
     455A     11.356766   456A     11.358756   457A     11.385112  
     458A     11.414113   459A     11.423880   460A     11.459449  
     461A     11.475094   462A     11.594801   463A     11.609518  
     464A     11.725004   465A     11.765286   466A     11.857939  
     467A     11.870814   468A     11.909361   469A     12.086614  
     470A     12.103136   471A     12.172334   472A     12.312656  
     473A     12.347680   474A     12.401468   475A     12.419580  
     476A     12.752775   477A     12.754785   478A     12.832533  
     479A     12.876652   480A     12.943942   481A     13.002426  
     482A     13.107979   483A     13.226467   484A     13.237923  
     485A     13.322204   486A     13.324407   487A     13.390748  
     488A     13.439544   489A     13.606713   490A     13.617052  
     491A     13.868379   492A     14.082447   493A     14.139178  
     494A     14.334450   495A     14.374444   496A     14.643496  
     497A     14.811087   498A     15.000403   499A     15.042932  
     500A     17.051370   501A     26.427269   502A     29.120717  
     503A     43.934955   504A     45.462720  

    Final Occupation by Irrep:
              A 
    DOCC [    16 ]

  @DF-RHF Final Energy:  -227.91729058645291

   => Energetics <=

    Nuclear Repulsion Energy =            121.3503687545090770
    One-Electron Energy =                -552.1846363012782604
    Two-Electron Energy =                 202.9169769603162763
    Total Energy =                       -227.9172905864529071

Computation Completed


Properties will be evaluated at   0.000000,   0.000000,   0.000000 [a0]

Properties computed using the SCF density matrix

  Nuclear Dipole Moment: [e a0]
     X:   113.4865      Y:    -0.8325      Z:     0.5043

  Electronic Dipole Moment: [e a0]
     X:  -113.0480      Y:     1.5712      Z:    -0.3232

  Dipole Moment: [e a0]
     X:     0.4385      Y:     0.7387      Z:     0.1811     Total:     0.8779

  Dipole Moment: [D]
     X:     1.1146      Y:     1.8776      Z:     0.4602     Total:     2.2315


*** tstop() called on node59.bme.utexas.edu at Sat Apr 11 17:07:29 2020
Module time:
	user time   =      51.89 seconds =       0.86 minutes
	system time =       1.50 seconds =       0.03 minutes
	total time  =         10 seconds =       0.17 minutes
Total time:
	user time   =      75.64 seconds =       1.26 minutes
	system time =       2.56 seconds =       0.04 minutes
	total time  =         15 seconds =       0.25 minutes

*** tstart() called on node59.bme.utexas.edu
*** at Sat Apr 11 17:07:29 2020


  //>>>>>>>>>>>>>>>>>>>>>>>>>>>>>>>>>>>//
  //               DFMP2               //
  //<<<<<<<<<<<<<<<<<<<<<<<<<<<<<<<<<<<//

   => Loading Basis Set <=

    Name: (AUG-CC-PVQZ AUX)
    Role: RIFIT
    Keyword: DF_BASIS_MP2
    atoms 1, 5   entry C          line   184 file /home/liuchw/anaconda3/envs/psi4env/share/psi4/basis/aug-cc-pvqz-ri.gbs 
    atoms 2-3    entry O          line   332 file /home/liuchw/anaconda3/envs/psi4env/share/psi4/basis/aug-cc-pvqz-ri.gbs 
    atoms 4, 6-8 entry H          line    30 file /home/liuchw/anaconda3/envs/psi4env/share/psi4/basis/aug-cc-pvqz-ri.gbs 

	 --------------------------------------------------------
	                          DF-MP2                         
	      2nd-Order Density-Fitted Moller-Plesset Theory     
	              RMP2 Wavefunction,   6 Threads             
	                                                         
	        Rob Parrish, Justin Turney, Andy Simmonett,      
	           Ed Hohenstein, and C. David Sherrill          
	 --------------------------------------------------------

   => Auxiliary Basis Set <=

  Basis Set: (AUG-CC-PVQZ AUX)
    Blend: AUG-CC-PVQZ-RI
    Number of shells: 224
    Number of basis function: 992
    Number of Cartesian functions: 1368
    Spherical Harmonics?: true
    Max angular momentum: 5

	 --------------------------------------------------------
	                 NBF =   504, NAUX =   992
	 --------------------------------------------------------
	   CLASS    FOCC     OCC    AOCC    AVIR     VIR    FVIR
	   PAIRS       0      16      16     488     488       0
	 --------------------------------------------------------

	-----------------------------------------------------------
	 ==================> DF-MP2 Energies <==================== 
	-----------------------------------------------------------
	 Reference Energy          =    -227.9172905864529071 [Eh]
	 Singles Energy            =      -0.0000000000000000 [Eh]
	 Same-Spin Energy          =      -0.2286848765386919 [Eh]
	 Opposite-Spin Energy      =      -0.7585274839914847 [Eh]
	 Correlation Energy        =      -0.9872123605301766 [Eh]
	 Total Energy              =    -228.9045029469830865 [Eh]
	-----------------------------------------------------------
	 ================> DF-SCS-MP2 Energies <================== 
	-----------------------------------------------------------
	 SCS Same-Spin Scale       =       0.3333333333333333 [-]
	 SCS Opposite-Spin Scale   =       1.2000000000000000 [-]
	 SCS Same-Spin Energy      =      -0.0762282921795640 [Eh]
	 SCS Opposite-Spin Energy  =      -0.9102329807897817 [Eh]
	 SCS Correlation Energy    =      -0.9864612729693456 [Eh]
	 SCS Total Energy          =    -228.9037518594222433 [Eh]
	-----------------------------------------------------------


*** tstop() called on node59.bme.utexas.edu at Sat Apr 11 17:07:34 2020
Module time:
	user time   =      22.59 seconds =       0.38 minutes
	system time =       0.73 seconds =       0.01 minutes
	total time  =          5 seconds =       0.08 minutes
Total time:
	user time   =      98.24 seconds =       1.64 minutes
	system time =       3.29 seconds =       0.05 minutes
	total time  =         20 seconds =       0.33 minutes

  //>>>>>>>>>>>>>>>>>>>>>>>>>>>>>>>>>>>//
  //  CBS Results: mp2/aug-cc-pv[tq]z  //
  //<<<<<<<<<<<<<<<<<<<<<<<<<<<<<<<<<<<//


   ==> HF <==

   HI-zeta (4) Energy:               -227.917290586453


   ==> Helgaker 2-point correlated extrapolation for method: MP2 <==

   LO-zeta (3) Energy:               -228.787503996680
   HI-zeta (4) Energy:               -228.904502946983
   Alpha (exponent) Value:             3.000000000000
   Extrapolated Energy:              -228.989880559366

   @Extrapolated MP2/(T,Q):          -228.989880559366



   ==> Helgaker 2-point correlated extrapolation for method: HF <==

   LO-zeta (3) Energy:               -227.902614470844
   HI-zeta (4) Energy:               -227.917290586453
   Alpha (exponent) Value:             3.000000000000
   Extrapolated Energy:              -227.928000184330

   @Extrapolated HF/(T,Q):           -227.928000184330


   ==> Components <==

  ---------------------------------------------------------------------------------------------------------
                          Method / Basis                      Rqd      Energy [Eh]   Variable
  ---------------------------------------------------------------------------------------------------------
                              hf / aug-cc-pvtz                  *    -227.90261447   HF TOTAL ENERGY
                             mp2 / aug-cc-pvtz                  *    -228.78750400   MP2 TOTAL ENERGY
                              hf / aug-cc-pvqz                  *    -227.91729059   HF TOTAL ENERGY
                             mp2 / aug-cc-pvqz                  *    -228.90450295   MP2 TOTAL ENERGY
  ---------------------------------------------------------------------------------------------------------

   ==> Stages <==

  ---------------------------------------------------------------------------------------------------------
      Stage               Method / Basis                       Wt      Energy [Eh]   Scheme
  ---------------------------------------------------------------------------------------------------------
        scf                   hf / aug-cc-pvqz                  1    -227.91729059   xtpl_highest_1
       corl                  mp2 / aug-cc-pv[tq]z               1    -228.98988056   corl_xtpl_helgaker_2
       corl                   hf / aug-cc-pv[tq]z              -1    -227.92800018   corl_xtpl_helgaker_2
  ---------------------------------------------------------------------------------------------------------

   ==> CBS <==

  ---------------------------------------------------------------------------------------------------------
      Stage               Method / Basis                               Energy [Eh]   Scheme
  ---------------------------------------------------------------------------------------------------------
        scf                   hf / aug-cc-pvqz                       -227.91729059   xtpl_highest_1
       corl                  mp2 / aug-cc-pv[tq]z                      -1.06188038   corl_xtpl_helgaker_2
      total                  CBS                                     -228.97917096   
  ---------------------------------------------------------------------------------------------------------
   => Loading Basis Set <=

    Name: DEF2-SVP
    Role: ORBITAL
    Keyword: BASIS
    atoms 1, 5   entry C          line    90 file /home/liuchw/anaconda3/envs/psi4env/share/psi4/basis/def2-svp.gbs 
    atoms 2-3    entry O          line   130 file /home/liuchw/anaconda3/envs/psi4env/share/psi4/basis/def2-svp.gbs 
    atoms 4, 6-8 entry H          line    15 file /home/liuchw/anaconda3/envs/psi4env/share/psi4/basis/def2-svp.gbs 


       N-Body: Complex Energy (fragments = (2,), basis = (2,):  -228.97917096148979)

       N-Body: Computing complex (2/4) with fragments (2,) in the basis of fragments (1, 2).


Scratch directory: /scratch//

  //>>>>>>>>>>>>>>>>>>>>>>>>>>>>>>>>>>>//
  //   CBS Setup: mp2/aug-cc-pv[tq]z   //
  //<<<<<<<<<<<<<<<<<<<<<<<<<<<<<<<<<<<//

    Naive listing of computations required.
             hf / aug-cc-pvqz              for  HF TOTAL ENERGY
            mp2 / aug-cc-pvtz              for  MP2 TOTAL ENERGY
            mp2 / aug-cc-pvqz              for  MP2 TOTAL ENERGY
             hf / aug-cc-pvtz              for  HF TOTAL ENERGY
             hf / aug-cc-pvqz              for  HF TOTAL ENERGY

    Enlightened listing of computations required.
            mp2 / aug-cc-pvtz              for  MP2 TOTAL ENERGY
            mp2 / aug-cc-pvqz              for  MP2 TOTAL ENERGY

    Full listing of computations to be obtained (required and bonus).
             hf / aug-cc-pvtz              for  HF TOTAL ENERGY
            mp2 / aug-cc-pvtz              for  MP2 TOTAL ENERGY
             hf / aug-cc-pvqz              for  HF TOTAL ENERGY
            mp2 / aug-cc-pvqz              for  MP2 TOTAL ENERGY

  //>>>>>>>>>>>>>>>>>>>>>>>>>>>>>>>>>>>>//
  // CBS Computation: MP2 / AUG-CC-PVTZ //
  //<<<<<<<<<<<<<<<<<<<<<<<<<<<<<<<<<<<<//


Scratch directory: /scratch//

*** tstart() called on node59.bme.utexas.edu
*** at Sat Apr 11 17:07:35 2020

   => Loading Basis Set <=

    Name: AUG-CC-PVTZ
    Role: ORBITAL
    Keyword: BASIS
    atoms 1, 5, 9, 13       entry C          line   239 file /home/liuchw/anaconda3/envs/psi4env/share/psi4/basis/aug-cc-pvtz.gbs 
    atoms 2-3, 10-11        entry O          line   331 file /home/liuchw/anaconda3/envs/psi4env/share/psi4/basis/aug-cc-pvtz.gbs 
    atoms 4, 6-8, 12, 14-16 entry H          line    40 file /home/liuchw/anaconda3/envs/psi4env/share/psi4/basis/aug-cc-pvtz.gbs 


         ---------------------------------------------------------
                                   SCF
               by Justin Turney, Rob Parrish, Andy Simmonett
                          and Daniel G. A. Smith
                              RHF Reference
                        6 Threads,  38146 MiB Core
         ---------------------------------------------------------

  ==> Geometry <==

    Molecular point group: c1
    Full point group: C1

    Geometry (in Angstrom), charge = 0, multiplicity = 1:

       Center              X                  Y                   Z               Mass       
    ------------   -----------------  -----------------  -----------------  -----------------
      Gh(C)          -1.761470297524     0.095134392018     0.011431509762    12.000000000000
      Gh(O)          -1.057922297524     1.068452392018     0.251184509762    15.994914619570
      Gh(O)          -1.289065297524    -1.107088607982    -0.276839490238    15.994914619570
      Gh(H)          -0.295325297524    -1.074283607982    -0.262216490238     1.007825032230
      Gh(C)          -3.258189297524     0.140543392018     0.015628509762    12.000000000000
      Gh(H)          -3.595759297524     1.145457392018     0.237687509762     1.007825032230
      Gh(H)          -3.632650297524    -0.179616607982    -0.953624490238     1.007825032230
      Gh(H)          -3.636973297524    -0.557096607982     0.758928509762     1.007825032230
         C            1.761501702476    -0.095050607982    -0.011932490238    12.000000000000
         O            1.057882702476    -1.068365607982    -0.251719490238    15.994914619570
         O            1.289074702476     1.107384392018     0.275846509762    15.994914619570
         H            0.295286702476     1.074486392018     0.261445509762     1.007825032230
         C            3.258213702476    -0.140953607982    -0.013896490238    12.000000000000
         H            3.595793702476    -1.142272607982    -0.251421490238     1.007825032230
         H            3.639712702476     0.569399392018    -0.743365490238     1.007825032230
         H            3.629729702476     0.161741392018     0.962158509762     1.007825032230

  Running in c1 symmetry.

  Rotational constants: A =      0.18801  B =      0.03365  C =      0.02885 [cm^-1]
  Rotational constants: A =   5636.46807  B =   1008.83722  C =    864.75955 [MHz]
  Nuclear repulsion =  121.350368754509077

  Charge       = 0
  Multiplicity = 1
  Electrons    = 32
  Nalpha       = 16
  Nbeta        = 16

  ==> Algorithm <==

  SCF Algorithm Type is DF.
  DIIS enabled.
  MOM disabled.
  Fractional occupation disabled.
  Guess Type is SAD.
  Energy threshold   = 1.00e-07
  Density threshold  = 1.00e-08
  Integral threshold = 0.00e+00

  ==> Primary Basis <==

  Basis Set: AUG-CC-PVTZ
    Blend: AUG-CC-PVTZ
    Number of shells: 184
    Number of basis function: 552
    Number of Cartesian functions: 640
    Spherical Harmonics?: true
    Max angular momentum: 3

   => Loading Basis Set <=

    Name: (AUG-CC-PVTZ AUX)
    Role: JKFIT
    Keyword: DF_BASIS_SCF
    atoms 1, 5, 9, 13       entry C          line   162 file /home/liuchw/anaconda3/envs/psi4env/share/psi4/basis/aug-cc-pvtz-jkfit.gbs 
    atoms 2-3, 10-11        entry O          line   286 file /home/liuchw/anaconda3/envs/psi4env/share/psi4/basis/aug-cc-pvtz-jkfit.gbs 
    atoms 4, 6-8, 12, 14-16 entry H          line    70 file /home/liuchw/anaconda3/envs/psi4env/share/psi4/basis/aug-cc-pvtz-jkfit.gbs 

  ==> Pre-Iterations <==

   -------------------------------------------------------
    Irrep   Nso     Nmo     Nalpha   Nbeta   Ndocc  Nsocc
   -------------------------------------------------------
     A        552     552       0       0       0       0
   -------------------------------------------------------
    Total     552     552      16      16      16       0
   -------------------------------------------------------

  ==> Integral Setup <==

  DFHelper Memory: AOs need 2.582 GiB; user supplied 27.940 GiB. Using in-core AOs.

  ==> MemDFJK: Density-Fitted J/K Matrices <==

    J tasked:                   Yes
    K tasked:                   Yes
    wK tasked:                   No
    OpenMP threads:               6
    Memory [MiB]:             28610
    Algorithm:                 Core
    Schwarz Cutoff:           1E-12
    Mask sparsity (%):       8.3537
    Fitting Condition:        1E-10

   => Auxiliary Basis Set <=

  Basis Set: (AUG-CC-PVTZ AUX)
    Blend: AUG-CC-PVTZ-JKFIT
    Number of shells: 352
    Number of basis function: 1200
    Number of Cartesian functions: 1488
    Spherical Harmonics?: true
    Max angular momentum: 4

  Minimum eigenvalue in the overlap matrix is 6.1076582447E-06.
  Using Symmetric Orthogonalization.

  SCF Guess: Superposition of Atomic Densities via on-the-fly atomic UHF.

  ==> Iterations <==

                           Total Energy        Delta E     RMS |[F,P]|

   @DF-RHF iter SAD:  -227.00118657347070   -2.27001e+02   0.00000e+00 
   @DF-RHF iter   1:  -227.73889928104984   -7.37713e-01   1.09647e-03 DIIS
   @DF-RHF iter   2:  -227.85717743606972   -1.18278e-01   6.67709e-04 DIIS
   @DF-RHF iter   3:  -227.90012841416444   -4.29510e-02   1.12420e-04 DIIS
   @DF-RHF iter   4:  -227.90242003519049   -2.29162e-03   5.08940e-05 DIIS
   @DF-RHF iter   5:  -227.90293101925798   -5.10984e-04   1.20004e-05 DIIS
   @DF-RHF iter   6:  -227.90297156371349   -4.05445e-05   5.73358e-06 DIIS
   @DF-RHF iter   7:  -227.90298160612915   -1.00424e-05   1.91000e-06 DIIS
   @DF-RHF iter   8:  -227.90298335310945   -1.74698e-06   5.20042e-07 DIIS
   @DF-RHF iter   9:  -227.90298350189920   -1.48790e-07   1.10565e-07 DIIS
   @DF-RHF iter  10:  -227.90298350750413   -5.60493e-09   2.66980e-08 DIIS
   @DF-RHF iter  11:  -227.90298350772787   -2.23736e-10   6.16909e-09 DIIS
  Energy and wave function converged.


  ==> Post-Iterations <==

    Orbital Energies [Eh]
    ---------------------

    Doubly Occupied:                                                      

       1A    -20.624947     2A    -20.545227     3A    -11.389366  
       4A    -11.243634     5A     -1.471677     6A     -1.354610  
       7A     -1.028781     8A     -0.833657     9A     -0.705188  
      10A     -0.682403    11A     -0.656264    12A     -0.580183  
      13A     -0.572700    14A     -0.565068    15A     -0.477804  
      16A     -0.452403  

    Virtual:                                                              

      17A      0.020942    18A      0.029341    19A      0.040713  
      20A      0.042286    21A      0.051560    22A      0.051725  
      23A      0.052633    24A      0.075071    25A      0.081497  
      26A      0.088993    27A      0.095210    28A      0.099127  
      29A      0.115745    30A      0.117177    31A      0.122821  
      32A      0.128498    33A      0.128842    34A      0.134112  
      35A      0.140081    36A      0.143707    37A      0.148574  
      38A      0.160785    39A      0.162476    40A      0.171349  
      41A      0.184830    42A      0.192086    43A      0.197458  
      44A      0.198703    45A      0.211531    46A      0.212562  
      47A      0.216366    48A      0.224061    49A      0.236590  
      50A      0.241758    51A      0.245117    52A      0.254279  
      53A      0.264995    54A      0.269070    55A      0.271378  
      56A      0.288567    57A      0.295758    58A      0.296578  
      59A      0.309030    60A      0.311060    61A      0.325377  
      62A      0.325648    63A      0.332938    64A      0.335342  
      65A      0.338994    66A      0.343488    67A      0.363329  
      68A      0.363796    69A      0.369471    70A      0.374457  
      71A      0.380238    72A      0.384335    73A      0.389067  
      74A      0.394558    75A      0.403728    76A      0.410149  
      77A      0.411302    78A      0.421217    79A      0.427770  
      80A      0.439900    81A      0.448025    82A      0.448874  
      83A      0.450582    84A      0.453022    85A      0.457508  
      86A      0.460144    87A      0.471247    88A      0.475374  
      89A      0.479017    90A      0.485412    91A      0.500264  
      92A      0.500760    93A      0.513706    94A      0.516703  
      95A      0.520294    96A      0.529516    97A      0.543382  
      98A      0.544828    99A      0.551966   100A      0.557422  
     101A      0.558115   102A      0.576034   103A      0.582168  
     104A      0.593466   105A      0.601534   106A      0.613378  
     107A      0.624674   108A      0.625603   109A      0.636756  
     110A      0.659064   111A      0.664368   112A      0.666588  
     113A      0.670764   114A      0.695345   115A      0.696426  
     116A      0.699731   117A      0.719289   118A      0.729588  
     119A      0.744359   120A      0.766735   121A      0.775574  
     122A      0.778876   123A      0.799816   124A      0.804559  
     125A      0.809194   126A      0.816628   127A      0.817012  
     128A      0.823141   129A      0.823967   130A      0.841482  
     131A      0.853742   132A      0.869482   133A      0.879108  
     134A      0.886075   135A      0.894228   136A      0.902787  
     137A      0.919286   138A      0.923449   139A      0.925062  
     140A      0.926870   141A      0.939292   142A      0.944671  
     143A      0.950776   144A      0.953743   145A      0.963882  
     146A      0.971015   147A      0.979746   148A      0.982911  
     149A      0.991693   150A      0.996535   151A      1.002223  
     152A      1.015767   153A      1.016545   154A      1.028354  
     155A      1.043329   156A      1.047009   157A      1.049111  
     158A      1.053139   159A      1.065946   160A      1.073184  
     161A      1.076960   162A      1.085622   163A      1.103065  
     164A      1.106515   165A      1.111011   166A      1.119318  
     167A      1.121263   168A      1.125124   169A      1.141031  
     170A      1.143538   171A      1.155862   172A      1.169888  
     173A      1.176674   174A      1.183924   175A      1.185942  
     176A      1.203765   177A      1.208606   178A      1.230073  
     179A      1.232387   180A      1.237597   181A      1.239579  
     182A      1.249301   183A      1.262085   184A      1.273275  
     185A      1.279489   186A      1.287442   187A      1.294128  
     188A      1.296896   189A      1.302810   190A      1.312958  
     191A      1.327824   192A      1.337387   193A      1.344718  
     194A      1.350594   195A      1.382248   196A      1.386377  
     197A      1.389551   198A      1.394012   199A      1.395573  
     200A      1.412051   201A      1.424273   202A      1.424445  
     203A      1.443520   204A      1.463666   205A      1.470882  
     206A      1.486198   207A      1.524079   208A      1.529261  
     209A      1.540625   210A      1.554119   211A      1.555906  
     212A      1.562895   213A      1.588344   214A      1.605261  
     215A      1.612943   216A      1.617441   217A      1.624138  
     218A      1.646888   219A      1.648371   220A      1.665629  
     221A      1.673357   222A      1.680887   223A      1.695057  
     224A      1.714000   225A      1.716690   226A      1.720140  
     227A      1.742126   228A      1.747093   229A      1.769338  
     230A      1.771719   231A      1.784777   232A      1.797975  
     233A      1.803241   234A      1.806526   235A      1.817893  
     236A      1.829967   237A      1.840975   238A      1.843819  
     239A      1.872719   240A      1.877761   241A      1.892638  
     242A      1.906558   243A      1.912705   244A      1.923489  
     245A      1.938188   246A      1.941752   247A      1.946096  
     248A      1.956429   249A      1.965607   250A      1.988776  
     251A      2.003211   252A      2.015763   253A      2.045808  
     254A      2.061879   255A      2.071567   256A      2.093556  
     257A      2.099138   258A      2.124455   259A      2.125290  
     260A      2.152792   261A      2.155336   262A      2.169402  
     263A      2.179850   264A      2.195294   265A      2.211009  
     266A      2.215251   267A      2.223799   268A      2.230889  
     269A      2.244653   270A      2.266006   271A      2.288518  
     272A      2.295848   273A      2.303619   274A      2.324340  
     275A      2.342992   276A      2.377985   277A      2.379220  
     278A      2.406763   279A      2.419817   280A      2.453535  
     281A      2.472901   282A      2.518868   283A      2.529253  
     284A      2.536042   285A      2.550261   286A      2.587222  
     287A      2.594519   288A      2.628396   289A      2.645082  
     290A      2.656193   291A      2.672510   292A      2.687491  
     293A      2.692909   294A      2.695380   295A      2.697915  
     296A      2.703231   297A      2.729780   298A      2.740576  
     299A      2.763657   300A      2.781648   301A      2.794967  
     302A      2.825842   303A      2.827819   304A      2.854273  
     305A      2.856451   306A      2.881409   307A      2.888390  
     308A      2.895508   309A      2.903907   310A      2.924494  
     311A      2.935400   312A      2.961786   313A      2.983366  
     314A      3.001356   315A      3.035912   316A      3.058922  
     317A      3.069653   318A      3.076486   319A      3.115127  
     320A      3.162016   321A      3.167356   322A      3.176964  
     323A      3.186062   324A      3.210232   325A      3.231576  
     326A      3.281364   327A      3.285003   328A      3.299936  
     329A      3.325759   330A      3.362897   331A      3.373876  
     332A      3.389334   333A      3.397692   334A      3.411789  
     335A      3.469684   336A      3.489415   337A      3.499992  
     338A      3.538531   339A      3.558624   340A      3.588439  
     341A      3.598131   342A      3.619444   343A      3.630563  
     344A      3.631992   345A      3.651619   346A      3.670372  
     347A      3.684674   348A      3.695218   349A      3.750917  
     350A      3.759321   351A      3.785708   352A      3.801330  
     353A      3.820294   354A      3.857007   355A      3.895631  
     356A      3.905051   357A      3.918153   358A      3.931738  
     359A      3.962064   360A      3.968679   361A      3.984709  
     362A      4.015334   363A      4.022420   364A      4.041416  
     365A      4.069530   366A      4.076062   367A      4.100335  
     368A      4.112003   369A      4.120750   370A      4.139692  
     371A      4.152639   372A      4.186073   373A      4.190928  
     374A      4.199346   375A      4.211179   376A      4.234507  
     377A      4.277636   378A      4.281205   379A      4.297125  
     380A      4.323474   381A      4.346792   382A      4.362670  
     383A      4.384171   384A      4.402776   385A      4.408304  
     386A      4.436016   387A      4.477385   388A      4.509129  
     389A      4.511469   390A      4.531322   391A      4.536177  
     392A      4.565725   393A      4.582726   394A      4.598753  
     395A      4.618243   396A      4.621628   397A      4.661629  
     398A      4.665962   399A      4.678004   400A      4.692134  
     401A      4.701261   402A      4.752583   403A      4.765189  
     404A      4.782358   405A      4.789450   406A      4.805932  
     407A      4.808474   408A      4.827053   409A      4.855422  
     410A      4.860772   411A      4.894826   412A      4.908657  
     413A      4.945268   414A      4.974646   415A      4.987056  
     416A      5.018587   417A      5.036907   418A      5.055754  
     419A      5.075376   420A      5.112417   421A      5.119711  
     422A      5.134792   423A      5.136085   424A      5.156907  
     425A      5.196436   426A      5.240983   427A      5.245291  
     428A      5.270261   429A      5.300991   430A      5.332842  
     431A      5.360787   432A      5.367194   433A      5.381139  
     434A      5.410856   435A      5.416165   436A      5.458402  
     437A      5.470702   438A      5.502700   439A      5.513479  
     440A      5.517691   441A      5.538046   442A      5.546271  
     443A      5.614288   444A      5.631887   445A      5.652183  
     446A      5.657748   447A      5.705221   448A      5.744639  
     449A      5.750835   450A      5.771823   451A      5.836292  
     452A      5.876633   453A      5.947780   454A      5.984349  
     455A      6.011281   456A      6.045126   457A      6.061965  
     458A      6.092965   459A      6.117034   460A      6.125308  
     461A      6.171492   462A      6.234214   463A      6.243673  
     464A      6.255286   465A      6.273182   466A      6.321391  
     467A      6.437154   468A      6.491052   469A      6.535698  
     470A      6.657650   471A      6.694887   472A      6.715752  
     473A      6.755372   474A      6.777083   475A      6.845858  
     476A      6.849016   477A      6.905558   478A      6.931028  
     479A      6.990205   480A      7.022538   481A      7.058661  
     482A      7.140321   483A      7.193248   484A      7.206346  
     485A      7.240478   486A      7.294924   487A      7.420927  
     488A      7.422725   489A      7.427622   490A      7.440325  
     491A      7.459582   492A      7.544552   493A      7.593614  
     494A      7.648129   495A      7.733218   496A      7.745761  
     497A      7.753448   498A      7.771799   499A      7.791572  
     500A      7.812562   501A      7.842384   502A      7.843512  
     503A      7.903717   504A      7.908340   505A      7.955552  
     506A      8.027146   507A      8.063849   508A      8.119681  
     509A      8.133624   510A      8.209693   511A      8.211798  
     512A      8.241984   513A      8.269755   514A      8.322989  
     515A      8.341398   516A      8.403073   517A      8.546341  
     518A      8.553080   519A      8.686248   520A      8.703300  
     521A      9.020724   522A      9.122420   523A      9.268192  
     524A      9.297637   525A      9.866225   526A      9.949204  
     527A      9.989403   528A     10.072218   529A     10.203295  
     530A     10.248425   531A     10.350379   532A     10.470908  
     533A     10.686232   534A     10.926484   535A     11.144753  
     536A     11.314012   537A     11.933301   538A     12.036674  
     539A     12.604539   540A     12.883272   541A     13.319114  
     542A     13.746416   543A     14.128597   544A     14.583221  
     545A     16.033703   546A     17.081136   547A     17.995424  
     548A     20.335238   549A     52.419030   550A     54.729759  
     551A     66.536939   552A     70.480204  

    Final Occupation by Irrep:
              A 
    DOCC [    16 ]

  @DF-RHF Final Energy:  -227.90298350772787

   => Energetics <=

    Nuclear Repulsion Energy =            121.3503687545090770
    One-Electron Energy =                -552.1388789918368047
    Two-Electron Energy =                 202.8855267295998601
    Total Energy =                       -227.9029835077278676

Computation Completed


Properties will be evaluated at   0.000000,   0.000000,   0.000000 [a0]

Properties computed using the SCF density matrix

  Nuclear Dipole Moment: [e a0]
     X:   113.4865      Y:    -0.8325      Z:     0.5043

  Electronic Dipole Moment: [e a0]
     X:  -113.0482      Y:     1.5713      Z:    -0.3232

  Dipole Moment: [e a0]
     X:     0.4383      Y:     0.7388      Z:     0.1811     Total:     0.8780

  Dipole Moment: [D]
     X:     1.1141      Y:     1.8780      Z:     0.4603     Total:     2.2316


*** tstop() called on node59.bme.utexas.edu at Sat Apr 11 17:07:50 2020
Module time:
	user time   =      76.95 seconds =       1.28 minutes
	system time =       1.96 seconds =       0.03 minutes
	total time  =         15 seconds =       0.25 minutes
Total time:
	user time   =     177.19 seconds =       2.95 minutes
	system time =       5.33 seconds =       0.09 minutes
	total time  =         36 seconds =       0.60 minutes

*** tstart() called on node59.bme.utexas.edu
*** at Sat Apr 11 17:07:50 2020


  //>>>>>>>>>>>>>>>>>>>>>>>>>>>>>>>>>>>//
  //               DFMP2               //
  //<<<<<<<<<<<<<<<<<<<<<<<<<<<<<<<<<<<//

   => Loading Basis Set <=

    Name: (AUG-CC-PVTZ AUX)
    Role: RIFIT
    Keyword: DF_BASIS_MP2
    atoms 1, 5, 9, 13       entry C          line   148 file /home/liuchw/anaconda3/envs/psi4env/share/psi4/basis/aug-cc-pvtz-ri.gbs 
    atoms 2-3, 10-11        entry O          line   264 file /home/liuchw/anaconda3/envs/psi4env/share/psi4/basis/aug-cc-pvtz-ri.gbs 
    atoms 4, 6-8, 12, 14-16 entry H          line    30 file /home/liuchw/anaconda3/envs/psi4env/share/psi4/basis/aug-cc-pvtz-ri.gbs 

	 --------------------------------------------------------
	                          DF-MP2                         
	      2nd-Order Density-Fitted Moller-Plesset Theory     
	              RMP2 Wavefunction,   6 Threads             
	                                                         
	        Rob Parrish, Justin Turney, Andy Simmonett,      
	           Ed Hohenstein, and C. David Sherrill          
	 --------------------------------------------------------

   => Auxiliary Basis Set <=

  Basis Set: (AUG-CC-PVTZ AUX)
    Blend: AUG-CC-PVTZ-RI
    Number of shells: 336
    Number of basis function: 1216
    Number of Cartesian functions: 1528
    Spherical Harmonics?: true
    Max angular momentum: 4

	 --------------------------------------------------------
	                 NBF =   552, NAUX =  1216
	 --------------------------------------------------------
	   CLASS    FOCC     OCC    AOCC    AVIR     VIR    FVIR
	   PAIRS       0      16      16     536     536       0
	 --------------------------------------------------------

	-----------------------------------------------------------
	 ==================> DF-MP2 Energies <==================== 
	-----------------------------------------------------------
	 Reference Energy          =    -227.9029835077278676 [Eh]
	 Singles Energy            =      -0.0000000000000000 [Eh]
	 Same-Spin Energy          =      -0.2155566451830717 [Eh]
	 Opposite-Spin Energy      =      -0.6731011741735254 [Eh]
	 Correlation Energy        =      -0.8886578193565970 [Eh]
	 Total Energy              =    -228.7916413270844771 [Eh]
	-----------------------------------------------------------
	 ================> DF-SCS-MP2 Energies <================== 
	-----------------------------------------------------------
	 SCS Same-Spin Scale       =       0.3333333333333333 [-]
	 SCS Opposite-Spin Scale   =       1.2000000000000000 [-]
	 SCS Same-Spin Energy      =      -0.0718522150610239 [Eh]
	 SCS Opposite-Spin Energy  =      -0.8077214090082305 [Eh]
	 SCS Correlation Energy    =      -0.8795736240692544 [Eh]
	 SCS Total Energy          =    -228.7825571317971196 [Eh]
	-----------------------------------------------------------


*** tstop() called on node59.bme.utexas.edu at Sat Apr 11 17:07:57 2020
Module time:
	user time   =      32.21 seconds =       0.54 minutes
	system time =       0.98 seconds =       0.02 minutes
	total time  =          7 seconds =       0.12 minutes
Total time:
	user time   =     209.40 seconds =       3.49 minutes
	system time =       6.31 seconds =       0.11 minutes
	total time  =         43 seconds =       0.72 minutes

  //>>>>>>>>>>>>>>>>>>>>>>>>>>>>>>>>>>>>//
  // CBS Computation: MP2 / AUG-CC-PVQZ //
  //<<<<<<<<<<<<<<<<<<<<<<<<<<<<<<<<<<<<//


Scratch directory: /scratch//

*** tstart() called on node59.bme.utexas.edu
*** at Sat Apr 11 17:07:57 2020

   => Loading Basis Set <=

    Name: AUG-CC-PVQZ
    Role: ORBITAL
    Keyword: BASIS
    atoms 1, 5, 9, 13       entry C          line   303 file /home/liuchw/anaconda3/envs/psi4env/share/psi4/basis/aug-cc-pvqz.gbs 
    atoms 2-3, 10-11        entry O          line   423 file /home/liuchw/anaconda3/envs/psi4env/share/psi4/basis/aug-cc-pvqz.gbs 
    atoms 4, 6-8, 12, 14-16 entry H          line    40 file /home/liuchw/anaconda3/envs/psi4env/share/psi4/basis/aug-cc-pvqz.gbs 


         ---------------------------------------------------------
                                   SCF
               by Justin Turney, Rob Parrish, Andy Simmonett
                          and Daniel G. A. Smith
                              RHF Reference
                        6 Threads,  38146 MiB Core
         ---------------------------------------------------------

  ==> Geometry <==

    Molecular point group: c1
    Full point group: C1

    Geometry (in Angstrom), charge = 0, multiplicity = 1:

       Center              X                  Y                   Z               Mass       
    ------------   -----------------  -----------------  -----------------  -----------------
      Gh(C)          -1.761470297524     0.095134392018     0.011431509762    12.000000000000
      Gh(O)          -1.057922297524     1.068452392018     0.251184509762    15.994914619570
      Gh(O)          -1.289065297524    -1.107088607982    -0.276839490238    15.994914619570
      Gh(H)          -0.295325297524    -1.074283607982    -0.262216490238     1.007825032230
      Gh(C)          -3.258189297524     0.140543392018     0.015628509762    12.000000000000
      Gh(H)          -3.595759297524     1.145457392018     0.237687509762     1.007825032230
      Gh(H)          -3.632650297524    -0.179616607982    -0.953624490238     1.007825032230
      Gh(H)          -3.636973297524    -0.557096607982     0.758928509762     1.007825032230
         C            1.761501702476    -0.095050607982    -0.011932490238    12.000000000000
         O            1.057882702476    -1.068365607982    -0.251719490238    15.994914619570
         O            1.289074702476     1.107384392018     0.275846509762    15.994914619570
         H            0.295286702476     1.074486392018     0.261445509762     1.007825032230
         C            3.258213702476    -0.140953607982    -0.013896490238    12.000000000000
         H            3.595793702476    -1.142272607982    -0.251421490238     1.007825032230
         H            3.639712702476     0.569399392018    -0.743365490238     1.007825032230
         H            3.629729702476     0.161741392018     0.962158509762     1.007825032230

  Running in c1 symmetry.

  Rotational constants: A =      0.18801  B =      0.03365  C =      0.02885 [cm^-1]
  Rotational constants: A =   5636.46807  B =   1008.83722  C =    864.75955 [MHz]
  Nuclear repulsion =  121.350368754509077

  Charge       = 0
  Multiplicity = 1
  Electrons    = 32
  Nalpha       = 16
  Nbeta        = 16

  ==> Algorithm <==

  SCF Algorithm Type is DF.
  DIIS enabled.
  MOM disabled.
  Fractional occupation disabled.
  Guess Type is SAD.
  Energy threshold   = 1.00e-07
  Density threshold  = 1.00e-08
  Integral threshold = 0.00e+00

  ==> Primary Basis <==

  Basis Set: AUG-CC-PVQZ
    Blend: AUG-CC-PVQZ
    Number of shells: 272
    Number of basis function: 1008
    Number of Cartesian functions: 1280
    Spherical Harmonics?: true
    Max angular momentum: 4

   => Loading Basis Set <=

    Name: (AUG-CC-PVQZ AUX)
    Role: JKFIT
    Keyword: DF_BASIS_SCF
    atoms 1, 5, 9, 13       entry C          line   178 file /home/liuchw/anaconda3/envs/psi4env/share/psi4/basis/aug-cc-pvqz-jkfit.gbs 
    atoms 2-3, 10-11        entry O          line   318 file /home/liuchw/anaconda3/envs/psi4env/share/psi4/basis/aug-cc-pvqz-jkfit.gbs 
    atoms 4, 6-8, 12, 14-16 entry H          line    70 file /home/liuchw/anaconda3/envs/psi4env/share/psi4/basis/aug-cc-pvqz-jkfit.gbs 

  ==> Pre-Iterations <==

   -------------------------------------------------------
    Irrep   Nso     Nmo     Nalpha   Nbeta   Ndocc  Nsocc
   -------------------------------------------------------
     A       1008    1008       0       0       0       0
   -------------------------------------------------------
    Total    1008    1008      16      16      16       0
   -------------------------------------------------------

  ==> Integral Setup <==

  DFHelper Memory: AOs need 11.719 GiB; user supplied 27.940 GiB. Using in-core AOs.

  ==> MemDFJK: Density-Fitted J/K Matrices <==

    J tasked:                   Yes
    K tasked:                   Yes
    wK tasked:                   No
    OpenMP threads:               6
    Memory [MiB]:             28610
    Algorithm:                 Core
    Schwarz Cutoff:           1E-12
    Mask sparsity (%):      13.6462
    Fitting Condition:        1E-10

   => Auxiliary Basis Set <=

  Basis Set: (AUG-CC-PVQZ AUX)
    Blend: AUG-CC-PVQZ-JKFIT
    Number of shells: 416
    Number of basis function: 1744
    Number of Cartesian functions: 2392
    Spherical Harmonics?: true
    Max angular momentum: 5

  Minimum eigenvalue in the overlap matrix is 1.6057356693E-06.
  Using Symmetric Orthogonalization.

  SCF Guess: Superposition of Atomic Densities via on-the-fly atomic UHF.

  ==> Iterations <==

                           Total Energy        Delta E     RMS |[F,P]|

   @DF-RHF iter SAD:  -227.01589191968012   -2.27016e+02   0.00000e+00 
   @DF-RHF iter   1:  -227.75295238141493   -7.37060e-01   6.01818e-04 DIIS
   @DF-RHF iter   2:  -227.87140986999256   -1.18457e-01   3.67057e-04 DIIS
   @DF-RHF iter   3:  -227.91451695929578   -4.31071e-02   6.17993e-05 DIIS
   @DF-RHF iter   4:  -227.91681812532369   -2.30117e-03   2.80565e-05 DIIS
   @DF-RHF iter   5:  -227.91733238658759   -5.14261e-04   6.62577e-06 DIIS
   @DF-RHF iter   6:  -227.91737354953449   -4.11629e-05   3.17084e-06 DIIS
   @DF-RHF iter   7:  -227.91738363026420   -1.00807e-05   1.06301e-06 DIIS
   @DF-RHF iter   8:  -227.91738541549287   -1.78523e-06   2.96933e-07 DIIS
   @DF-RHF iter   9:  -227.91738557581971   -1.60327e-07   6.31605e-08 DIIS
   @DF-RHF iter  10:  -227.91738558187024   -6.05053e-09   1.49792e-08 DIIS
   @DF-RHF iter  11:  -227.91738558210912   -2.38884e-10   3.26782e-09 DIIS
  Energy and wave function converged.


  ==> Post-Iterations <==

    Orbital Energies [Eh]
    ---------------------

    Doubly Occupied:                                                      

       1A    -20.622248     2A    -20.542560     3A    -11.388172  
       4A    -11.242592     5A     -1.470886     6A     -1.353759  
       7A     -1.028556     8A     -0.833538     9A     -0.705178  
      10A     -0.682464    11A     -0.656376    12A     -0.580314  
      13A     -0.572809    14A     -0.565252    15A     -0.477947  
      16A     -0.452527  

    Virtual:                                                              

      17A      0.018931    18A      0.025804    19A      0.036527  
      20A      0.037880    21A      0.046759    22A      0.047301  
      23A      0.047769    24A      0.068024    25A      0.072964  
      26A      0.079586    27A      0.083521    28A      0.084020  
      29A      0.099913    30A      0.100371    31A      0.107349  
      32A      0.110845    33A      0.111306    34A      0.116533  
      35A      0.123217    36A      0.128222    37A      0.130528  
      38A      0.141425    39A      0.142965    40A      0.151679  
      41A      0.163321    42A      0.165913    43A      0.169091  
      44A      0.176387    45A      0.181731    46A      0.183823  
      47A      0.191436    48A      0.195161    49A      0.205708  
[...]
     543A      4.187049   544A      4.192820   545A      4.200606  
     546A      4.220993   547A      4.227075   548A      4.234946  
     549A      4.237385   550A      4.238909   551A      4.247010  
     552A      4.286928   553A      4.303343   554A      4.310468  
     555A      4.317805   556A      4.320158   557A      4.329309  
     558A      4.339330   559A      4.367135   560A      4.374843  
     561A      4.375120   562A      4.381871   563A      4.397449  
     564A      4.410181   565A      4.415078   566A      4.433870  
     567A      4.457544   568A      4.461445   569A      4.466651  
     570A      4.468441   571A      4.470058   572A      4.489766  
     573A      4.492744   574A      4.498011   575A      4.506142  
     576A      4.535352   577A      4.551066   578A      4.556837  
     579A      4.583504   580A      4.600984   581A      4.609805  
     582A      4.626798   583A      4.634031   584A      4.642495  
     585A      4.648726   586A      4.681081   587A      4.687200  
     588A      4.691267   589A      4.708148   590A      4.713119  
     591A      4.716493   592A      4.729323   593A      4.758610  
     594A      4.772227   595A      4.775871   596A      4.788003  
     597A      4.810838   598A      4.822218   599A      4.826770  
     600A      4.828618   601A      4.851589   602A      4.855845  
     603A      4.859573   604A      4.894552   605A      4.918885  
     606A      4.929553   607A      4.955731   608A      4.971743  
     609A      4.996518   610A      4.999958   611A      5.006276  
     612A      5.032290   613A      5.075669   614A      5.083093  
     615A      5.094182   616A      5.097570   617A      5.112189  
     618A      5.120968   619A      5.135670   620A      5.137226  
     621A      5.160703   622A      5.172258   623A      5.199984  
     624A      5.223024   625A      5.244375   626A      5.305983  
     627A      5.311327   628A      5.324895   629A      5.342134  
     630A      5.344905   631A      5.370216   632A      5.372474  
     633A      5.380607   634A      5.381023   635A      5.414025  
     636A      5.445599   637A      5.455457   638A      5.509154  
     639A      5.525640   640A      5.538584   641A      5.579308  
     642A      5.581242   643A      5.604225   644A      5.614278  
     645A      5.617075   646A      5.676858   647A      5.681338  
     648A      5.685526   649A      5.698673   650A      5.759030  
     651A      5.771836   652A      5.802459   653A      5.803224  
     654A      5.825106   655A      5.911789   656A      5.923244  
     657A      5.931339   658A      5.976310   659A      5.990533  
     660A      6.015689   661A      6.035468   662A      6.057671  
     663A      6.099367   664A      6.173798   665A      6.175930  
     666A      6.188605   667A      6.192587   668A      6.221051  
     669A      6.221754   670A      6.227205   671A      6.275349  
     672A      6.280583   673A      6.311196   674A      6.350444  
     675A      6.352047   676A      6.370307   677A      6.394503  
     678A      6.407932   679A      6.439389   680A      6.469439  
     681A      6.470900   682A      6.472724   683A      6.505336  
     684A      6.525494   685A      6.558750   686A      6.575641  
     687A      6.607176   688A      6.622235   689A      6.636862  
     690A      6.657041   691A      6.670039   692A      6.713405  
     693A      6.721400   694A      6.723146   695A      6.758276  
     696A      6.780560   697A      6.787037   698A      6.792687  
     699A      6.799407   700A      6.829113   701A      6.832828  
     702A      6.835324   703A      6.836071   704A      6.842100  
     705A      6.849057   706A      6.851466   707A      6.872909  
     708A      6.897461   709A      6.907184   710A      6.910661  
     711A      6.925440   712A      6.957812   713A      6.982564  
     714A      6.984176   715A      6.991297   716A      7.016577  
     717A      7.036135   718A      7.042630   719A      7.099722  
     720A      7.101355   721A      7.106195   722A      7.114697  
     723A      7.127419   724A      7.144703   725A      7.145794  
     726A      7.147402   727A      7.157961   728A      7.169772  
     729A      7.170082   730A      7.209318   731A      7.217118  
     732A      7.228170   733A      7.232541   734A      7.247085  
     735A      7.288685   736A      7.301240   737A      7.307955  
     738A      7.351729   739A      7.355574   740A      7.357328  
     741A      7.370517   742A      7.387592   743A      7.415591  
     744A      7.433108   745A      7.447045   746A      7.455755  
     747A      7.460457   748A      7.479517   749A      7.494320  
     750A      7.578761   751A      7.600262   752A      7.617425  
     753A      7.662132   754A      7.678029   755A      7.687975  
     756A      7.738743   757A      7.763588   758A      7.768356  
     759A      7.779989   760A      7.784526   761A      7.807850  
     762A      7.815404   763A      7.827619   764A      7.911031  
     765A      7.926149   766A      7.946529   767A      7.960108  
     768A      7.960927   769A      7.985605   770A      8.013475  
     771A      8.068148   772A      8.071240   773A      8.088552  
     774A      8.089969   775A      8.167424   776A      8.173087  
     777A      8.173595   778A      8.176237   779A      8.185069  
     780A      8.231689   781A      8.243596   782A      8.260809  
     783A      8.262496   784A      8.269770   785A      8.387468  
     786A      8.399903   787A      8.409892   788A      8.438153  
     789A      8.473359   790A      8.487336   791A      8.508763  
     792A      8.527500   793A      8.544380   794A      8.551812  
     795A      8.559263   796A      8.590780   797A      8.614108  
     798A      8.622118   799A      8.625763   800A      8.709793  
     801A      8.716625   802A      8.722413   803A      8.724014  
     804A      8.752418   805A      8.755946   806A      8.783785  
     807A      8.803540   808A      8.809343   809A      8.842866  
     810A      8.882258   811A      8.948417   812A      8.954688  
     813A      8.992283   814A      9.020007   815A      9.070631  
     816A      9.108473   817A      9.108957   818A      9.114180  
     819A      9.121530   820A      9.141427   821A      9.148010  
     822A      9.149083   823A      9.184127   824A      9.190321  
     825A      9.220515   826A      9.253928   827A      9.258544  
     828A      9.283098   829A      9.325668   830A      9.344088  
     831A      9.344909   832A      9.366009   833A      9.403859  
     834A      9.412992   835A      9.433197   836A      9.440309  
     837A      9.440355   838A      9.462809   839A      9.506842  
     840A      9.526466   841A      9.624312   842A      9.638312  
     843A      9.646326   844A      9.646873   845A      9.678850  
     846A      9.682939   847A      9.746643   848A      9.752336  
     849A      9.759325   850A      9.792122   851A      9.830611  
     852A      9.895457   853A      9.912836   854A      9.916357  
     855A      9.926955   856A      9.951999   857A     10.001388  
     858A     10.029915   859A     10.062229   860A     10.065205  
     861A     10.114015   862A     10.132060   863A     10.147823  
     864A     10.208503   865A     10.210722   866A     10.237774  
     867A     10.260949   868A     10.284238   869A     10.291250  
     870A     10.293928   871A     10.296366   872A     10.384315  
     873A     10.386680   874A     10.393305   875A     10.423268  
     876A     10.426035   877A     10.508309   878A     10.521945  
     879A     10.579611   880A     10.635184   881A     10.669499  
     882A     10.691052   883A     10.791450   884A     10.880379  
     885A     10.897217   886A     10.928618   887A     11.021830  
     888A     11.040978   889A     11.046495   890A     11.053634  
     891A     11.056095   892A     11.082118   893A     11.083824  
     894A     11.132343   895A     11.177630   896A     11.181847  
     897A     11.213825   898A     11.231413   899A     11.233497  
     900A     11.243997   901A     11.331144   902A     11.340905  
     903A     11.358843   904A     11.373195   905A     11.385165  
     906A     11.389918   907A     11.471135   908A     11.484920  
     909A     11.491523   910A     11.493008   911A     11.513908  
     912A     11.525704   913A     11.571668   914A     11.598241  
     915A     11.614496   916A     11.644459   917A     11.654361  
     918A     11.701041   919A     11.725758   920A     11.758957  
     921A     11.763623   922A     11.771443   923A     11.833026  
     924A     11.845958   925A     11.877175   926A     11.930121  
     927A     12.046671   928A     12.057696   929A     12.083824  
     930A     12.105728   931A     12.117939   932A     12.140427  
     933A     12.196881   934A     12.269467   935A     12.321175  
     936A     12.339442   937A     12.340780   938A     12.343519  
     939A     12.369732   940A     12.397534   941A     12.457870  
     942A     12.504534   943A     12.511307   944A     12.511629  
     945A     12.532120   946A     12.620696   947A     12.708820  
     948A     12.790042   949A     12.810694   950A     12.811433  
     951A     12.862927   952A     12.909333   953A     12.936961  
     954A     13.027350   955A     13.033668   956A     13.036304  
     957A     13.051015   958A     13.066377   959A     13.188838  
     960A     13.233381   961A     13.332563   962A     13.344716  
     963A     13.369724   964A     13.431089   965A     13.459940  
     966A     13.521751   967A     13.522580   968A     13.549946  
     969A     13.562384   970A     13.593413   971A     13.608708  
     972A     13.684402   973A     13.711436   974A     13.727181  
     975A     13.729155   976A     13.730489   977A     13.784856  
     978A     13.934157   979A     14.119897   980A     14.180609  
     981A     14.201007   982A     14.241699   983A     14.263877  
     984A     14.349400   985A     14.457731   986A     14.538875  
     987A     14.559876   988A     14.694401   989A     14.807255  
     990A     14.817421   991A     14.983843   992A     15.035108  
     993A     15.294233   994A     15.316443   995A     15.359324  
     996A     15.424678   997A     16.035166   998A     16.082987  
     999A     18.234286  1000A     18.268073  1001A     26.681644  
    1002A     26.769565  1003A     29.222329  1004A     29.242496  
    1005A     45.650487  1006A     45.741297  1007A     46.016158  
    1008A     46.063825  

    Final Occupation by Irrep:
              A 
    DOCC [    32 ]

  @DF-RHF Final Energy:  -455.84099277447967

   => Energetics <=

    Nuclear Repulsion Energy =            394.7737204866022012
    One-Electron Energy =               -1408.4325941109248106
    Two-Electron Energy =                 557.8178808498429362
    Total Energy =                       -455.8409927744796732

Computation Completed


Properties will be evaluated at   0.000000,   0.000000,   0.000000 [a0]

Properties computed using the SCF density matrix

  Nuclear Dipole Moment: [e a0]
     X:    -0.0002      Y:    -0.0020      Z:     0.0090

  Electronic Dipole Moment: [e a0]
     X:     0.0003      Y:     0.0016      Z:    -0.0073

  Dipole Moment: [e a0]
     X:     0.0001      Y:    -0.0005      Z:     0.0017     Total:     0.0017

  Dipole Moment: [D]
     X:     0.0003      Y:    -0.0012      Z:     0.0042     Total:     0.0044


*** tstop() called on node59.bme.utexas.edu at Sat Apr 11 17:13:40 2020
Module time:
	user time   =     411.44 seconds =       6.86 minutes
	system time =       6.83 seconds =       0.11 minutes
	total time  =         74 seconds =       1.23 minutes
Total time:
	user time   =    1993.77 seconds =      33.23 minutes
	system time =      43.85 seconds =       0.73 minutes
	total time  =        386 seconds =       6.43 minutes

*** tstart() called on node59.bme.utexas.edu
*** at Sat Apr 11 17:13:40 2020


  //>>>>>>>>>>>>>>>>>>>>>>>>>>>>>>>>>>>//
  //               DFMP2               //
  //<<<<<<<<<<<<<<<<<<<<<<<<<<<<<<<<<<<//

   => Loading Basis Set <=

    Name: (AUG-CC-PVQZ AUX)
    Role: RIFIT
    Keyword: DF_BASIS_MP2
    atoms 1, 5, 9, 13       entry C          line   184 file /home/liuchw/anaconda3/envs/psi4env/share/psi4/basis/aug-cc-pvqz-ri.gbs 
    atoms 2-3, 10-11        entry O          line   332 file /home/liuchw/anaconda3/envs/psi4env/share/psi4/basis/aug-cc-pvqz-ri.gbs 
    atoms 4, 6-8, 12, 14-16 entry H          line    30 file /home/liuchw/anaconda3/envs/psi4env/share/psi4/basis/aug-cc-pvqz-ri.gbs 

	 --------------------------------------------------------
	                          DF-MP2                         
	      2nd-Order Density-Fitted Moller-Plesset Theory     
	              RMP2 Wavefunction,   6 Threads             
	                                                         
	        Rob Parrish, Justin Turney, Andy Simmonett,      
	           Ed Hohenstein, and C. David Sherrill          
	 --------------------------------------------------------

   => Auxiliary Basis Set <=

  Basis Set: (AUG-CC-PVQZ AUX)
    Blend: AUG-CC-PVQZ-RI
    Number of shells: 448
    Number of basis function: 1984
    Number of Cartesian functions: 2736
    Spherical Harmonics?: true
    Max angular momentum: 5

	 --------------------------------------------------------
	                 NBF =  1008, NAUX =  1984
	 --------------------------------------------------------
	   CLASS    FOCC     OCC    AOCC    AVIR     VIR    FVIR
	   PAIRS       0      32      32     976     976       0
	 --------------------------------------------------------

	-----------------------------------------------------------
	 ==================> DF-MP2 Energies <==================== 
	-----------------------------------------------------------
	 Reference Energy          =    -455.8409927744796732 [Eh]
	 Singles Energy            =      -0.0000000000000000 [Eh]
	 Same-Spin Energy          =      -0.4653608421659773 [Eh]
	 Opposite-Spin Energy      =      -1.5213724847418582 [Eh]
	 Correlation Energy        =      -1.9867333269078356 [Eh]
	 Total Energy              =    -457.8277261013874977 [Eh]
	-----------------------------------------------------------
	 ================> DF-SCS-MP2 Energies <================== 
	-----------------------------------------------------------
	 SCS Same-Spin Scale       =       0.3333333333333333 [-]
	 SCS Opposite-Spin Scale   =       1.2000000000000000 [-]
	 SCS Same-Spin Energy      =      -0.1551202807219924 [Eh]
	 SCS Opposite-Spin Energy  =      -1.8256469816902297 [Eh]
	 SCS Correlation Energy    =      -1.9807672624122221 [Eh]
	 SCS Total Energy          =    -457.8217600368918738 [Eh]
	-----------------------------------------------------------


*** tstop() called on node59.bme.utexas.edu at Sat Apr 11 17:14:27 2020
Module time:
	user time   =     229.05 seconds =       3.82 minutes
	system time =       4.44 seconds =       0.07 minutes
	total time  =         47 seconds =       0.78 minutes
Total time:
	user time   =    2222.83 seconds =      37.05 minutes
	system time =      48.29 seconds =       0.80 minutes
	total time  =        433 seconds =       7.22 minutes

  //>>>>>>>>>>>>>>>>>>>>>>>>>>>>>>>>>>>//
  //  CBS Results: mp2/aug-cc-pv[tq]z  //
  //<<<<<<<<<<<<<<<<<<<<<<<<<<<<<<<<<<<//


   ==> HF <==

   HI-zeta (4) Energy:               -455.840992774480


   ==> Helgaker 2-point correlated extrapolation for method: MP2 <==

   LO-zeta (3) Energy:               -457.596276341899
   HI-zeta (4) Energy:               -457.827726101387
   Alpha (exponent) Value:             3.000000000000
   Extrapolated Energy:              -457.996621871825

   @Extrapolated MP2/(T,Q):          -457.996621871825



   ==> Helgaker 2-point correlated extrapolation for method: HF <==

   LO-zeta (3) Energy:               -455.811992370625
   HI-zeta (4) Energy:               -455.840992774480
   Alpha (exponent) Value:             3.000000000000
   Extrapolated Energy:              -455.862155231347

   @Extrapolated HF/(T,Q):           -455.862155231347


   ==> Components <==

  ---------------------------------------------------------------------------------------------------------
                          Method / Basis                      Rqd      Energy [Eh]   Variable
  ---------------------------------------------------------------------------------------------------------
                              hf / aug-cc-pvtz                  *    -455.81199237   HF TOTAL ENERGY
                             mp2 / aug-cc-pvtz                  *    -457.59627634   MP2 TOTAL ENERGY
                              hf / aug-cc-pvqz                  *    -455.84099277   HF TOTAL ENERGY
                             mp2 / aug-cc-pvqz                  *    -457.82772610   MP2 TOTAL ENERGY
  ---------------------------------------------------------------------------------------------------------

   ==> Stages <==

  ---------------------------------------------------------------------------------------------------------
      Stage               Method / Basis                       Wt      Energy [Eh]   Scheme
  ---------------------------------------------------------------------------------------------------------
        scf                   hf / aug-cc-pvqz                  1    -455.84099277   xtpl_highest_1
       corl                  mp2 / aug-cc-pv[tq]z               1    -457.99662187   corl_xtpl_helgaker_2
       corl                   hf / aug-cc-pv[tq]z              -1    -455.86215523   corl_xtpl_helgaker_2
  ---------------------------------------------------------------------------------------------------------

   ==> CBS <==

  ---------------------------------------------------------------------------------------------------------
      Stage               Method / Basis                               Energy [Eh]   Scheme
  ---------------------------------------------------------------------------------------------------------
        scf                   hf / aug-cc-pvqz                       -455.84099277   xtpl_highest_1
       corl                  mp2 / aug-cc-pv[tq]z                      -2.13446664   corl_xtpl_helgaker_2
      total                  CBS                                     -457.97545941   
  ---------------------------------------------------------------------------------------------------------
   => Loading Basis Set <=

    Name: DEF2-SVP
    Role: ORBITAL
    Keyword: BASIS
    atoms 1, 5, 9, 13       entry C          line    90 file /home/liuchw/anaconda3/envs/psi4env/share/psi4/basis/def2-svp.gbs 
    atoms 2-3, 10-11        entry O          line   130 file /home/liuchw/anaconda3/envs/psi4env/share/psi4/basis/def2-svp.gbs 
    atoms 4, 6-8, 12, 14-16 entry H          line    15 file /home/liuchw/anaconda3/envs/psi4env/share/psi4/basis/def2-svp.gbs 


       N-Body: Complex Energy (fragments = (1, 2), basis = (1, 2):  -457.97545941495787)

   ==> N-Body: Counterpoise Corrected (CP) energies <==

   n-Body     Total Energy [Eh]       I.E. [kcal/mol]      Delta [kcal/mol]
        1     -457.958341655588        0.000000000000        0.000000000000
        2     -457.974419301905      -10.088875379570      -10.088875379570

   => Loading Basis Set <=

    Name: DEF2-SVP
    Role: ORBITAL
    Keyword: BASIS
    atoms 1, 5, 9, 13       entry C          line    90 file /home/liuchw/anaconda3/envs/psi4env/share/psi4/basis/def2-svp.gbs 
    atoms 2-3, 10-11        entry O          line   130 file /home/liuchw/anaconda3/envs/psi4env/share/psi4/basis/def2-svp.gbs 
    atoms 4, 6-8, 12, 14-16 entry H          line    15 file /home/liuchw/anaconda3/envs/psi4env/share/psi4/basis/def2-svp.gbs 


    Psi4 stopped on: Saturday, 11 April 2020 05:14PM
    Psi4 wall time for execution: 0:07:14.72

*** Psi4 exiting successfully. Buy a developer a beer!
