
    -----------------------------------------------------------------------
          Psi4: An Open-Source Ab Initio Electronic Structure Package
                               Psi4 1.4a2.dev224 

                         Git: Rev {master} e453b16 


    R. M. Parrish, L. A. Burns, D. G. A. Smith, A. C. Simmonett,
    A. E. DePrince III, E. G. Hohenstein, U. Bozkaya, A. Yu. Sokolov,
    R. Di Remigio, R. M. Richard, J. F. Gonthier, A. M. James,
    H. R. McAlexander, A. Kumar, M. Saitow, X. Wang, B. P. Pritchard,
    P. Verma, H. F. Schaefer III, K. Patkowski, R. A. King, E. F. Valeev,
    F. A. Evangelista, J. M. Turney, T. D. Crawford, and C. D. Sherrill,
    J. Chem. Theory Comput. 13(7) pp 3185--3197 (2017).
    (doi: 10.1021/acs.jctc.7b00174)


                         Additional Contributions by
    P. Kraus, H. Kruse, M. H. Lechner, M. C. Schieber, R. A. Shaw,
    A. Alenaizan, R. Galvelis, Z. L. Glick, S. Lehtola, and J. P. Misiewicz

    -----------------------------------------------------------------------


    Psi4 started on: Saturday, 11 April 2020 05:37PM

    Process ID: 33657
    Host:       g2-node38.bme.utexas.edu
    PSIDATADIR: /home/liuchw/anaconda3/envs/psi4env/share/psi4
    Memory:     500.0 MiB
    Threads:    6
    
  ==> Input File <==

--------------------------------------------------------------------------
#Generated by lconvert.py for cbs job

memory 40 GB

molecule  {
0 1
  C       -1.3097500     1.1801760    -0.0251700
  O       -0.7253000     2.1551480     0.4527130
  N       -0.6656210     0.0950550    -0.4919940
  H        0.3545830     0.0514480    -0.4593090
  H       -1.1836270    -0.6736000    -0.8707560
  C       -2.8167190     1.1559990    -0.1106060
  H       -3.2206290     1.2625410     0.8930820
  H       -3.2094280     0.2486340    -0.5619000
  H       -3.1431580     2.0165960    -0.6888930
--
0 1
  C        2.7938880     1.0641820     0.1352460
  O        2.2094670     0.0901610    -0.3444850
  N        2.1498010     2.1489250     0.6030930
  H        1.1296950     2.1933630     0.5687920
  H        2.6678250     2.9168860     0.9832140
  C        4.3008870     1.0884660     0.2204720
  H        4.6927590     1.9881160     0.6876560
  H        4.7044440     1.0009210    -0.7853090
  H        4.6286660     0.2178910     0.7826520
units angstrom
no_reorient
symmetry c1
}

set {
scf_type DF
mp2_type DF
e_convergence 7
reference rhf
}

energy('mp2/aug-cc-pv[tq]z', bsse_type='cp')
--------------------------------------------------------------------------

  Memory set to  37.253 GiB by Python driver.

Scratch directory: /scratch//


   ===> N-Body Interaction Abacus <===
        BSSE Treatment:                     cp
        Number of 1-body computations:     4
        Number of 2-body computations:     1

   ==> N-Body: Now computing 1-body complexes <==


       N-Body: Computing complex (1/4) with fragments (2,) in the basis of fragments (2,).


Scratch directory: /scratch//

  //>>>>>>>>>>>>>>>>>>>>>>>>>>>>>>>>>>>//
  //   CBS Setup: mp2/aug-cc-pv[tq]z   //
  //<<<<<<<<<<<<<<<<<<<<<<<<<<<<<<<<<<<//

    Naive listing of computations required.
             hf / aug-cc-pvqz              for  HF TOTAL ENERGY
            mp2 / aug-cc-pvtz              for  MP2 TOTAL ENERGY
            mp2 / aug-cc-pvqz              for  MP2 TOTAL ENERGY
             hf / aug-cc-pvtz              for  HF TOTAL ENERGY
             hf / aug-cc-pvqz              for  HF TOTAL ENERGY

    Enlightened listing of computations required.
            mp2 / aug-cc-pvtz              for  MP2 TOTAL ENERGY
            mp2 / aug-cc-pvqz              for  MP2 TOTAL ENERGY

    Full listing of computations to be obtained (required and bonus).
             hf / aug-cc-pvtz              for  HF TOTAL ENERGY
            mp2 / aug-cc-pvtz              for  MP2 TOTAL ENERGY
             hf / aug-cc-pvqz              for  HF TOTAL ENERGY
            mp2 / aug-cc-pvqz              for  MP2 TOTAL ENERGY

  //>>>>>>>>>>>>>>>>>>>>>>>>>>>>>>>>>>>>//
  // CBS Computation: MP2 / AUG-CC-PVTZ //
  //<<<<<<<<<<<<<<<<<<<<<<<<<<<<<<<<<<<<//


Scratch directory: /scratch//

*** tstart() called on g2-node38.bme.utexas.edu
*** at Sat Apr 11 17:37:55 2020

   => Loading Basis Set <=

    Name: AUG-CC-PVTZ
    Role: ORBITAL
    Keyword: BASIS
    atoms 1, 6     entry C          line   239 file /home/liuchw/anaconda3/envs/psi4env/share/psi4/basis/aug-cc-pvtz.gbs 
    atoms 2        entry O          line   331 file /home/liuchw/anaconda3/envs/psi4env/share/psi4/basis/aug-cc-pvtz.gbs 
    atoms 3        entry N          line   285 file /home/liuchw/anaconda3/envs/psi4env/share/psi4/basis/aug-cc-pvtz.gbs 
    atoms 4-5, 7-9 entry H          line    40 file /home/liuchw/anaconda3/envs/psi4env/share/psi4/basis/aug-cc-pvtz.gbs 


         ---------------------------------------------------------
                                   SCF
               by Justin Turney, Rob Parrish, Andy Simmonett
                          and Daniel G. A. Smith
                              RHF Reference
                        6 Threads,  38146 MiB Core
         ---------------------------------------------------------

  ==> Geometry <==

    Molecular point group: c1
    Full point group: C1

    Geometry (in Angstrom), charge = 0, multiplicity = 1:

       Center              X                  Y                   Z               Mass       
    ------------   -----------------  -----------------  -----------------  -----------------
         C            2.051803285947    -0.058100459274     0.080368182832    12.000000000000
         O            1.467382285947    -1.032121459274    -0.399362817168    15.994914619570
         N            1.407716285947     1.026642540726     0.548215182832    14.003074004430
         H            0.387610285947     1.071080540726     0.513914182832     1.007825032230
         H            1.925740285947     1.794603540726     0.928336182832     1.007825032230
         C            3.558802285947    -0.033816459274     0.165594182832    12.000000000000
         H            3.950674285947     0.865833540726     0.632778182832     1.007825032230
         H            3.962359285947    -0.121361459274    -0.840186817168     1.007825032230
         H            3.886581285947    -0.904391459274     0.727774182832     1.007825032230

  Running in c1 symmetry.

  Rotational constants: A =      0.35803  B =      0.05307  C =      0.04662 [cm^-1]
  Rotational constants: A =  10733.48194  B =   1591.14150  C =   1397.60740 [MHz]
  Nuclear repulsion =  121.855623876327414

  Charge       = 0
  Multiplicity = 1
  Electrons    = 32
  Nalpha       = 16
  Nbeta        = 16

  ==> Algorithm <==

  SCF Algorithm Type is DF.
  DIIS enabled.
  MOM disabled.
  Fractional occupation disabled.
  Guess Type is SAD.
  Energy threshold   = 1.00e-07
  Density threshold  = 1.00e-08
  Integral threshold = 0.00e+00

  ==> Primary Basis <==

  Basis Set: AUG-CC-PVTZ
    Blend: AUG-CC-PVTZ
    Number of shells: 101
    Number of basis function: 299
    Number of Cartesian functions: 345
    Spherical Harmonics?: true
    Max angular momentum: 3

   => Loading Basis Set <=

    Name: (AUG-CC-PVTZ AUX)
    Role: JKFIT
    Keyword: DF_BASIS_SCF
    atoms 1, 6     entry C          line   162 file /home/liuchw/anaconda3/envs/psi4env/share/psi4/basis/aug-cc-pvtz-jkfit.gbs 
    atoms 2        entry O          line   286 file /home/liuchw/anaconda3/envs/psi4env/share/psi4/basis/aug-cc-pvtz-jkfit.gbs 
    atoms 3        entry N          line   224 file /home/liuchw/anaconda3/envs/psi4env/share/psi4/basis/aug-cc-pvtz-jkfit.gbs 
    atoms 4-5, 7-9 entry H          line    70 file /home/liuchw/anaconda3/envs/psi4env/share/psi4/basis/aug-cc-pvtz-jkfit.gbs 

  ==> Pre-Iterations <==

   -------------------------------------------------------
    Irrep   Nso     Nmo     Nalpha   Nbeta   Ndocc  Nsocc
   -------------------------------------------------------
     A        299     299       0       0       0       0
   -------------------------------------------------------
    Total     299     299      16      16      16       0
   -------------------------------------------------------

  ==> Integral Setup <==

  DFHelper Memory: AOs need 0.454 GiB; user supplied 27.940 GiB. Using in-core AOs.

  ==> MemDFJK: Density-Fitted J/K Matrices <==

    J tasked:                   Yes
    K tasked:                   Yes
    wK tasked:                   No
    OpenMP threads:               6
    Memory [MiB]:             28610
    Algorithm:                 Core
    Schwarz Cutoff:           1E-12
    Mask sparsity (%):       0.3691
    Fitting Condition:        1E-10

   => Auxiliary Basis Set <=

  Basis Set: (AUG-CC-PVTZ AUX)
    Blend: AUG-CC-PVTZ-JKFIT
    Number of shells: 190
    Number of basis function: 646
    Number of Cartesian functions: 799
    Spherical Harmonics?: true
    Max angular momentum: 4

  Minimum eigenvalue in the overlap matrix is 1.9171838000E-05.
  Using Symmetric Orthogonalization.

  SCF Guess: Superposition of Atomic Densities via on-the-fly atomic UHF.

  ==> Iterations <==

                           Total Energy        Delta E     RMS |[F,P]|

   @DF-RHF iter SAD:  -207.23354064707542   -2.07234e+02   0.00000e+00 
   @DF-RHF iter   1:  -207.88202886985312   -6.48488e-01   2.04723e-03 DIIS
   @DF-RHF iter   2:  -208.01548378972495   -1.33455e-01   1.20468e-03 DIIS
   @DF-RHF iter   3:  -208.05834870645458   -4.28649e-02   2.26004e-04 DIIS
   @DF-RHF iter   4:  -208.06081219033518   -2.46348e-03   9.29617e-05 DIIS
   @DF-RHF iter   5:  -208.06132310879934   -5.10918e-04   1.68590e-05 DIIS
   @DF-RHF iter   6:  -208.06135293365580   -2.98249e-05   7.92239e-06 DIIS
   @DF-RHF iter   7:  -208.06135828778793   -5.35413e-06   2.92941e-06 DIIS
   @DF-RHF iter   8:  -208.06135942652116   -1.13873e-06   9.76634e-07 DIIS
   @DF-RHF iter   9:  -208.06135957452267   -1.48002e-07   2.62964e-07 DIIS
   @DF-RHF iter  10:  -208.06135958280601   -8.28334e-09   8.61525e-08 DIIS
   @DF-RHF iter  11:  -208.06135958358198   -7.75970e-10   2.21956e-08 DIIS
   @DF-RHF iter  12:  -208.06135958363114   -4.91696e-11   4.53687e-09 DIIS
  Energy and wave function converged.


  ==> Post-Iterations <==

    Orbital Energies [Eh]
    ---------------------

    Doubly Occupied:                                                      

       1A    -20.511376     2A    -15.593456     3A    -11.352782  
       4A    -11.237601     5A     -1.369070     6A     -1.218843  
       7A     -1.005880     8A     -0.804971     9A     -0.730876  
      10A     -0.663357    11A     -0.615645    12A     -0.579288  
      13A     -0.564525    14A     -0.524476    15A     -0.421405  
      16A     -0.414142  

    Virtual:                                                              

      17A      0.021266    18A      0.035806    19A      0.044909  
      20A      0.049269    21A      0.060864    22A      0.085538  
      23A      0.104510    24A      0.105989    25A      0.118404  
      26A      0.121977    27A      0.132909    28A      0.141356  
      29A      0.150152    30A      0.153307    31A      0.163255  
      32A      0.170179    33A      0.176950    34A      0.213633  
      35A      0.231847    36A      0.234042    37A      0.242398  
      38A      0.259280    39A      0.261958    40A      0.270313  
      41A      0.293653    42A      0.294880    43A      0.310426  
      44A      0.316640    45A      0.339061    46A      0.342993  
      47A      0.343417    48A      0.356221    49A      0.362137  
      50A      0.362990    51A      0.377014    52A      0.388714  
      53A      0.394765    54A      0.412063    55A      0.414357  
      56A      0.423344    57A      0.436336    58A      0.440231  
      59A      0.456236    60A      0.466321    61A      0.475599  
      62A      0.500410    63A      0.501253    64A      0.523089  
      65A      0.525889    66A      0.531972    67A      0.556643  
      68A      0.566382    69A      0.574245    70A      0.596599  
      71A      0.627384    72A      0.637975    73A      0.640292  
      74A      0.647991    75A      0.708497    76A      0.728181  
      77A      0.736123    78A      0.762102    79A      0.770287  
      80A      0.783331    81A      0.808407    82A      0.827191  
      83A      0.830840    84A      0.838876    85A      0.845964  
      86A      0.871998    87A      0.877040    88A      0.879395  
      89A      0.897728    90A      0.903299    91A      0.923741  
      92A      0.935010    93A      0.956822    94A      0.959117  
      95A      0.979429    96A      1.008223    97A      1.011295  
      98A      1.023198    99A      1.024008   100A      1.026841  
     101A      1.056300   102A      1.058137   103A      1.071087  
     104A      1.077826   105A      1.086721   106A      1.099269  
     107A      1.103035   108A      1.125029   109A      1.125949  
     110A      1.143828   111A      1.180074   112A      1.191724  
     113A      1.195007   114A      1.214732   115A      1.234878  
     116A      1.238513   117A      1.256204   118A      1.277939  
     119A      1.280394   120A      1.309187   121A      1.325516  
     122A      1.336937   123A      1.348980   124A      1.358908  
     125A      1.398048   126A      1.416213   127A      1.441109  
     128A      1.454231   129A      1.463888   130A      1.492022  
     131A      1.506966   132A      1.510818   133A      1.547258  
     134A      1.575124   135A      1.585781   136A      1.604337  
     137A      1.607742   138A      1.630487   139A      1.670417  
     140A      1.693033   141A      1.695864   142A      1.717460  
     143A      1.733176   144A      1.778376   145A      1.786387  
     146A      1.840379   147A      1.855881   148A      1.858688  
     149A      1.870157   150A      1.890400   151A      1.902412  
     152A      1.945215   153A      1.980844   154A      2.034725  
     155A      2.047107   156A      2.080983   157A      2.103093  
     158A      2.117309   159A      2.143226   160A      2.164792  
     161A      2.196066   162A      2.207278   163A      2.237196  
     164A      2.254026   165A      2.275334   166A      2.307169  
     167A      2.333145   168A      2.373236   169A      2.396444  
     170A      2.434110   171A      2.451155   172A      2.499255  
     173A      2.517453   174A      2.519528   175A      2.600428  
     176A      2.605975   177A      2.623622   178A      2.637910  
     179A      2.695009   180A      2.701127   181A      2.758965  
     182A      2.769846   183A      2.820385   184A      2.923908  
     185A      2.955034   186A      2.967067   187A      3.011524  
     188A      3.049968   189A      3.128718   190A      3.196335  
     191A      3.228519   192A      3.315148   193A      3.367970  
     194A      3.414406   195A      3.477327   196A      3.488350  
     197A      3.543573   198A      3.545092   199A      3.594853  
     200A      3.622113   201A      3.669075   202A      3.680616  
     203A      3.736177   204A      3.775431   205A      3.789760  
     206A      3.833670   207A      3.851431   208A      3.874950  
     209A      3.902555   210A      3.927003   211A      3.945685  
     212A      3.961092   213A      3.980274   214A      4.022170  
     215A      4.067101   216A      4.100124   217A      4.115781  
     218A      4.144410   219A      4.214518   220A      4.231453  
     221A      4.238590   222A      4.246970   223A      4.300109  
     224A      4.305863   225A      4.318164   226A      4.388884  
     227A      4.395198   228A      4.422104   229A      4.453099  
     230A      4.472948   231A      4.479617   232A      4.495501  
     233A      4.566705   234A      4.663229   235A      4.690908  
     236A      4.704526   237A      4.719070   238A      4.781327  
     239A      4.818979   240A      4.823131   241A      4.852835  
     242A      4.864620   243A      4.885293   244A      4.950491  
     245A      4.978601   246A      5.002822   247A      5.065130  
     248A      5.070681   249A      5.147929   250A      5.159950  
     251A      5.186843   252A      5.246325   253A      5.258594  
     254A      5.335772   255A      5.340859   256A      5.342336  
     257A      5.440403   258A      5.492668   259A      5.539132  
     260A      5.558355   261A      5.589477   262A      5.624899  
     263A      5.628275   264A      5.742401   265A      5.774760  
     266A      5.800298   267A      5.901988   268A      5.944519  
     269A      6.074915   270A      6.104748   271A      6.119286  
     272A      6.138687   273A      6.219612   274A      6.256139  
     275A      6.304362   276A      6.341949   277A      6.557759  
     278A      6.647298   279A      6.711622   280A      6.762487  
     281A      6.773052   282A      6.782157   283A      7.000348  
     284A      7.028324   285A      7.080782   286A      7.184749  
     287A      7.356895   288A      7.413470   289A      7.444864  
     290A      7.585161   291A      7.676551   292A      7.743064  
     293A      7.814479   294A      7.905695   295A      7.977292  
     296A     15.394864   297A     16.525310   298A     17.960688  
     299A     19.422195  

    Final Occupation by Irrep:
              A 
    DOCC [    16 ]

  @DF-RHF Final Energy:  -208.06135958363114

   => Energetics <=

    Nuclear Repulsion Energy =            121.8556238763274138
    One-Electron Energy =                -524.6185795733020996
    Two-Electron Energy =                 194.7015961133435553
    Total Energy =                       -208.0613595836311447

Computation Completed


Properties will be evaluated at   0.000000,   0.000000,   0.000000 [a0]

Properties computed using the SCF density matrix

  Nuclear Dipole Moment: [e a0]
     X:   131.0897      Y:     2.0481      Z:     7.7120

  Electronic Dipole Moment: [e a0]
     X:  -130.5075      Y:    -0.5722      Z:    -7.0048

  Dipole Moment: [e a0]
     X:     0.5822      Y:     1.4758      Z:     0.7071     Total:     1.7370

  Dipole Moment: [D]
     X:     1.4797      Y:     3.7512      Z:     1.7973     Total:     4.4149


*** tstop() called on g2-node38.bme.utexas.edu at Sat Apr 11 17:38:01 2020
Module time:
	user time   =      26.61 seconds =       0.44 minutes
	system time =       0.97 seconds =       0.02 minutes
	total time  =          6 seconds =       0.10 minutes
Total time:
	user time   =      26.61 seconds =       0.44 minutes
	system time =       0.97 seconds =       0.02 minutes
	total time  =          6 seconds =       0.10 minutes

*** tstart() called on g2-node38.bme.utexas.edu
*** at Sat Apr 11 17:38:01 2020


  //>>>>>>>>>>>>>>>>>>>>>>>>>>>>>>>>>>>//
  //               DFMP2               //
  //<<<<<<<<<<<<<<<<<<<<<<<<<<<<<<<<<<<//

   => Loading Basis Set <=

    Name: (AUG-CC-PVTZ AUX)
    Role: RIFIT
    Keyword: DF_BASIS_MP2
    atoms 1, 6     entry C          line   148 file /home/liuchw/anaconda3/envs/psi4env/share/psi4/basis/aug-cc-pvtz-ri.gbs 
    atoms 2        entry O          line   264 file /home/liuchw/anaconda3/envs/psi4env/share/psi4/basis/aug-cc-pvtz-ri.gbs 
    atoms 3        entry N          line   206 file /home/liuchw/anaconda3/envs/psi4env/share/psi4/basis/aug-cc-pvtz-ri.gbs 
    atoms 4-5, 7-9 entry H          line    30 file /home/liuchw/anaconda3/envs/psi4env/share/psi4/basis/aug-cc-pvtz-ri.gbs 

	 --------------------------------------------------------
	                          DF-MP2                         
	      2nd-Order Density-Fitted Moller-Plesset Theory     
	              RMP2 Wavefunction,   6 Threads             
	                                                         
	        Rob Parrish, Justin Turney, Andy Simmonett,      
	           Ed Hohenstein, and C. David Sherrill          
	 --------------------------------------------------------

   => Auxiliary Basis Set <=

  Basis Set: (AUG-CC-PVTZ AUX)
    Blend: AUG-CC-PVTZ-RI
    Number of shells: 182
    Number of basis function: 654
    Number of Cartesian functions: 819
    Spherical Harmonics?: true
    Max angular momentum: 4

	 --------------------------------------------------------
	                 NBF =   299, NAUX =   654
	 --------------------------------------------------------
	   CLASS    FOCC     OCC    AOCC    AVIR     VIR    FVIR
	   PAIRS       0      16      16     283     283       0
	 --------------------------------------------------------

	-----------------------------------------------------------
	 ==================> DF-MP2 Energies <==================== 
	-----------------------------------------------------------
	 Reference Energy          =    -208.0613595836311447 [Eh]
	 Singles Energy            =      -0.0000000000000000 [Eh]
	 Same-Spin Energy          =      -0.2048388418736329 [Eh]
	 Opposite-Spin Energy      =      -0.6562922511570133 [Eh]
	 Correlation Energy        =      -0.8611310930306462 [Eh]
	 Total Energy              =    -208.9224906766617949 [Eh]
	-----------------------------------------------------------
	 ================> DF-SCS-MP2 Energies <================== 
	-----------------------------------------------------------
	 SCS Same-Spin Scale       =       0.3333333333333333 [-]
	 SCS Opposite-Spin Scale   =       1.2000000000000000 [-]
	 SCS Same-Spin Energy      =      -0.0682796139578776 [Eh]
	 SCS Opposite-Spin Energy  =      -0.7875507013884159 [Eh]
	 SCS Correlation Energy    =      -0.8558303153462935 [Eh]
	 SCS Total Energy          =    -208.9171898989774263 [Eh]
	-----------------------------------------------------------


*** tstop() called on g2-node38.bme.utexas.edu at Sat Apr 11 17:38:03 2020
Module time:
	user time   =      11.15 seconds =       0.19 minutes
	system time =       0.41 seconds =       0.01 minutes
	total time  =          2 seconds =       0.03 minutes
Total time:
	user time   =      37.77 seconds =       0.63 minutes
	system time =       1.38 seconds =       0.02 minutes
	total time  =          8 seconds =       0.13 minutes

  //>>>>>>>>>>>>>>>>>>>>>>>>>>>>>>>>>>>>//
  // CBS Computation: MP2 / AUG-CC-PVQZ //
  //<<<<<<<<<<<<<<<<<<<<<<<<<<<<<<<<<<<<//


Scratch directory: /scratch//

*** tstart() called on g2-node38.bme.utexas.edu
*** at Sat Apr 11 17:38:03 2020

   => Loading Basis Set <=

    Name: AUG-CC-PVQZ
    Role: ORBITAL
    Keyword: BASIS
    atoms 1, 6     entry C          line   303 file /home/liuchw/anaconda3/envs/psi4env/share/psi4/basis/aug-cc-pvqz.gbs 
    atoms 2        entry O          line   423 file /home/liuchw/anaconda3/envs/psi4env/share/psi4/basis/aug-cc-pvqz.gbs 
    atoms 3        entry N          line   363 file /home/liuchw/anaconda3/envs/psi4env/share/psi4/basis/aug-cc-pvqz.gbs 
    atoms 4-5, 7-9 entry H          line    40 file /home/liuchw/anaconda3/envs/psi4env/share/psi4/basis/aug-cc-pvqz.gbs 


         ---------------------------------------------------------
                                   SCF
               by Justin Turney, Rob Parrish, Andy Simmonett
                          and Daniel G. A. Smith
                              RHF Reference
                        6 Threads,  38146 MiB Core
         ---------------------------------------------------------

  ==> Geometry <==

    Molecular point group: c1
    Full point group: C1

    Geometry (in Angstrom), charge = 0, multiplicity = 1:

       Center              X                  Y                   Z               Mass       
    ------------   -----------------  -----------------  -----------------  -----------------
         C            2.051803285947    -0.058100459274     0.080368182832    12.000000000000
         O            1.467382285947    -1.032121459274    -0.399362817168    15.994914619570
         N            1.407716285947     1.026642540726     0.548215182832    14.003074004430
         H            0.387610285947     1.071080540726     0.513914182832     1.007825032230
         H            1.925740285947     1.794603540726     0.928336182832     1.007825032230
         C            3.558802285947    -0.033816459274     0.165594182832    12.000000000000
         H            3.950674285947     0.865833540726     0.632778182832     1.007825032230
         H            3.962359285947    -0.121361459274    -0.840186817168     1.007825032230
         H            3.886581285947    -0.904391459274     0.727774182832     1.007825032230

  Running in c1 symmetry.

  Rotational constants: A =      0.35803  B =      0.05307  C =      0.04662 [cm^-1]
  Rotational constants: A =  10733.48194  B =   1591.14150  C =   1397.60740 [MHz]
  Nuclear repulsion =  121.855623876327414

  Charge       = 0
  Multiplicity = 1
  Electrons    = 32
  Nalpha       = 16
  Nbeta        = 16

  ==> Algorithm <==

  SCF Algorithm Type is DF.
  DIIS enabled.
  MOM disabled.
  Fractional occupation disabled.
  Guess Type is SAD.
  Energy threshold   = 1.00e-07
  Density threshold  = 1.00e-08
  Integral threshold = 0.00e+00

  ==> Primary Basis <==

  Basis Set: AUG-CC-PVQZ
    Blend: AUG-CC-PVQZ
    Number of shells: 150
    Number of basis function: 550
    Number of Cartesian functions: 695
    Spherical Harmonics?: true
    Max angular momentum: 4

   => Loading Basis Set <=

    Name: (AUG-CC-PVQZ AUX)
    Role: JKFIT
    Keyword: DF_BASIS_SCF
    atoms 1, 6     entry C          line   178 file /home/liuchw/anaconda3/envs/psi4env/share/psi4/basis/aug-cc-pvqz-jkfit.gbs 
    atoms 2        entry O          line   318 file /home/liuchw/anaconda3/envs/psi4env/share/psi4/basis/aug-cc-pvqz-jkfit.gbs 
    atoms 3        entry N          line   248 file /home/liuchw/anaconda3/envs/psi4env/share/psi4/basis/aug-cc-pvqz-jkfit.gbs 
    atoms 4-5, 7-9 entry H          line    70 file /home/liuchw/anaconda3/envs/psi4env/share/psi4/basis/aug-cc-pvqz-jkfit.gbs 

  ==> Pre-Iterations <==

   -------------------------------------------------------
    Irrep   Nso     Nmo     Nalpha   Nbeta   Ndocc  Nsocc
   -------------------------------------------------------
     A        550     550       0       0       0       0
   -------------------------------------------------------
    Total     550     550      16      16      16       0
   -------------------------------------------------------

  ==> Integral Setup <==

  DFHelper Memory: AOs need 2.193 GiB; user supplied 27.940 GiB. Using in-core AOs.

  ==> MemDFJK: Density-Fitted J/K Matrices <==

    J tasked:                   Yes
    K tasked:                   Yes
    wK tasked:                   No
    OpenMP threads:               6
    Memory [MiB]:             28610
    Algorithm:                 Core
    Schwarz Cutoff:           1E-12
    Mask sparsity (%):       1.7931
    Fitting Condition:        1E-10

   => Auxiliary Basis Set <=

  Basis Set: (AUG-CC-PVQZ AUX)
    Blend: AUG-CC-PVQZ-JKFIT
    Number of shells: 226
    Number of basis function: 948
    Number of Cartesian functions: 1297
    Spherical Harmonics?: true
    Max angular momentum: 5

  Minimum eigenvalue in the overlap matrix is 4.1199157894E-06.
  Using Symmetric Orthogonalization.

  SCF Guess: Superposition of Atomic Densities via on-the-fly atomic UHF.

  ==> Iterations <==

                           Total Energy        Delta E     RMS |[F,P]|

   @DF-RHF iter SAD:  -207.24652836240318   -2.07247e+02   0.00000e+00 
   @DF-RHF iter   1:  -207.89466571375652   -6.48137e-01   1.11523e-03 DIIS
   @DF-RHF iter   2:  -208.02842506053327   -1.33759e-01   6.57351e-04 DIIS
   @DF-RHF iter   3:  -208.07147345432082   -4.30484e-02   1.23277e-04 DIIS
   @DF-RHF iter   4:  -208.07394508355921   -2.47163e-03   5.08619e-05 DIIS
   @DF-RHF iter   5:  -208.07445960928297   -5.14526e-04   9.28143e-06 DIIS
   @DF-RHF iter   6:  -208.07448991719036   -3.03079e-05   4.33958e-06 DIIS
   @DF-RHF iter   7:  -208.07449533818442   -5.42099e-06   1.61459e-06 DIIS
   @DF-RHF iter   8:  -208.07449649304033   -1.15486e-06   5.47454e-07 DIIS
   @DF-RHF iter   9:  -208.07449664877666   -1.55736e-07   1.48209e-07 DIIS
   @DF-RHF iter  10:  -208.07449665776730   -8.99064e-09   4.83913e-08 DIIS
   @DF-RHF iter  11:  -208.07449665858090   -8.13600e-10   1.26985e-08 DIIS
   @DF-RHF iter  12:  -208.07449665863439   -5.34897e-11   2.55339e-09 DIIS
  Energy and wave function converged.


  ==> Post-Iterations <==

    Orbital Energies [Eh]
    ---------------------

    Doubly Occupied:                                                      

       1A    -20.508663     2A    -15.591556     3A    -11.351639  
       4A    -11.236568     5A     -1.368266     6A     -1.218348  
       7A     -1.005678     8A     -0.804858     9A     -0.730930  
      10A     -0.663377    11A     -0.615756    12A     -0.579347  
      13A     -0.564671    14A     -0.524630    15A     -0.421535  
      16A     -0.414286  

    Virtual:                                                              

      17A      0.018482    18A      0.031790    19A      0.040383  
      20A      0.044391    21A      0.055420    22A      0.072984  
      23A      0.087545    24A      0.091519    25A      0.099929  
      26A      0.106038    27A      0.115588    28A      0.122357  
      29A      0.129349    30A      0.131695    31A      0.142496  
      32A      0.157429    33A      0.158387    34A      0.182807  
      35A      0.194111    36A      0.202249    37A      0.203340  
      38A      0.217908    39A      0.222919    40A      0.232697  
      41A      0.244625    42A      0.250343    43A      0.263178  
      44A      0.264742    45A      0.280268    46A      0.281537  
      47A      0.288115    48A      0.294764    49A      0.297863  
      50A      0.305996    51A      0.314240    52A      0.315304  
      53A      0.322921    54A      0.327527    55A      0.333767  
      56A      0.350952    57A      0.355878    58A      0.364157  
      59A      0.380343    60A      0.386352    61A      0.391438  
      62A      0.397532    63A      0.405474    64A      0.416259  
      65A      0.418284    66A      0.433875    67A      0.452245  
      68A      0.456458    69A      0.478562    70A      0.486113  
      71A      0.503229    72A      0.507210    73A      0.520095  
      74A      0.545376    75A      0.552321    76A      0.570727  
      77A      0.585455    78A      0.592957    79A      0.598154  
      80A      0.609573    81A      0.621389    82A      0.630274  
      83A      0.638739    84A      0.660691    85A      0.671142  
      86A      0.673028    87A      0.677236    88A      0.687742  
      89A      0.693219    90A      0.703979    91A      0.709642  
      92A      0.721718    93A      0.728502    94A      0.735321  
      95A      0.740520    96A      0.748547    97A      0.753482  
      98A      0.760676    99A      0.772055   100A      0.787254  
     101A      0.798902   102A      0.802660   103A      0.808181  
     104A      0.811552   105A      0.830655   106A      0.834282  
     107A      0.846640   108A      0.861274   109A      0.861722  
     110A      0.875661   111A      0.881827   112A      0.896199  
     113A      0.920770   114A      0.924333   115A      0.932698  
     116A      0.948490   117A      0.968015   118A      0.984612  
     119A      0.995047   120A      0.997967   121A      1.004181  
     122A      1.016005   123A      1.028043   124A      1.033220  
     125A      1.049339   126A      1.050591   127A      1.058638  
     128A      1.090086   129A      1.094211   130A      1.105920  
     131A      1.123255   132A      1.134837   133A      1.148736  
     134A      1.168126   135A      1.176904   136A      1.191797  
     137A      1.198851   138A      1.216125   139A      1.227668  
     140A      1.235532   141A      1.252524   142A      1.268699  
     143A      1.285237   144A      1.294569   145A      1.345432  
     146A      1.350877   147A      1.364818   148A      1.400254  
     149A      1.412176   150A      1.419154   151A      1.440077  
     152A      1.451165   153A      1.471412   154A      1.480796  
     155A      1.489129   156A      1.498833   157A      1.529717  
     158A      1.552956   159A      1.559740   160A      1.562338  
     161A      1.584918   162A      1.598943   163A      1.602352  
     164A      1.608195   165A      1.630255   166A      1.664746  
     167A      1.673781   168A      1.691101   169A      1.698775  
     170A      1.707810   171A      1.718561   172A      1.728165  
     173A      1.741299   174A      1.751269   175A      1.759610  
     176A      1.770134   177A      1.813532   178A      1.824383  
     179A      1.830585   180A      1.845854   181A      1.852747  
     182A      1.858841   183A      1.878680   184A      1.889470  
     185A      1.895561   186A      1.911462   187A      1.927940  
     188A      1.932895   189A      1.946754   190A      1.964931  
     191A      1.970479   192A      1.973776   193A      1.979343  
     194A      2.012172   195A      2.026693   196A      2.036224  
     197A      2.045398   198A      2.049241   199A      2.075311  
     200A      2.079008   201A      2.088593   202A      2.100981  
     203A      2.109471   204A      2.137462   205A      2.139090  
     206A      2.143969   207A      2.154514   208A      2.172133  
     209A      2.177955   210A      2.182942   211A      2.187409  
     212A      2.206614   213A      2.229907   214A      2.248429  
     215A      2.252339   216A      2.273341   217A      2.279543  
     218A      2.283267   219A      2.292070   220A      2.309891  
     221A      2.327420   222A      2.350086   223A      2.364921  
     224A      2.365179   225A      2.401246   226A      2.407571  
     227A      2.428913   228A      2.444961   229A      2.447404  
     230A      2.502885   231A      2.518202   232A      2.525527  
     233A      2.545418   234A      2.598778   235A      2.612494  
     236A      2.626035   237A      2.641317   238A      2.649940  
     239A      2.660289   240A      2.688417   241A      2.721249  
     242A      2.729581   243A      2.784912   244A      2.810986  
     245A      2.816111   246A      2.834496   247A      2.845311  
     248A      2.850912   249A      2.861915   250A      2.884956  
     251A      2.899657   252A      2.921382   253A      2.925715  
     254A      2.939540   255A      2.966487   256A      2.967573  
     257A      2.981442   258A      3.012724   259A      3.029835  
     260A      3.035681   261A      3.058673   262A      3.077855  
     263A      3.114457   264A      3.140366   265A      3.150667  
     266A      3.156141   267A      3.191320   268A      3.198081  
     269A      3.227463   270A      3.235601   271A      3.242163  
     272A      3.273548   273A      3.279206   274A      3.282835  
     275A      3.323780   276A      3.339421   277A      3.349178  
     278A      3.422021   279A      3.428416   280A      3.434113  
     281A      3.462488   282A      3.492339   283A      3.543585  
     284A      3.552021   285A      3.573819   286A      3.602728  
     287A      3.626622   288A      3.678419   289A      3.692204  
     290A      3.708078   291A      3.726204   292A      3.743879  
     293A      3.763614   294A      3.773686   295A      3.844086  
     296A      3.879178   297A      3.909567   298A      3.916154  
     299A      3.960347   300A      3.964989   301A      3.984668  
     302A      4.015437   303A      4.023042   304A      4.052944  
     305A      4.056757   306A      4.070432   307A      4.090352  
     308A      4.092223   309A      4.124486   310A      4.142072  
     311A      4.151345   312A      4.164221   313A      4.167913  
     314A      4.215264   315A      4.227982   316A      4.243515  
     317A      4.269796   318A      4.284650   319A      4.308512  
     320A      4.331122   321A      4.353263   322A      4.390757  
     323A      4.414350   324A      4.418640   325A      4.445527  
     326A      4.459050   327A      4.470498   328A      4.531246  
     329A      4.537208   330A      4.556955   331A      4.565429  
     332A      4.581849   333A      4.646527   334A      4.656158  
     335A      4.670817   336A      4.701303   337A      4.711661  
     338A      4.728472   339A      4.777283   340A      4.803334  
     341A      4.830946   342A      4.847340   343A      4.898129  
     344A      4.945103   345A      4.949557   346A      4.986596  
     347A      5.017055   348A      5.050217   349A      5.069357  
     350A      5.106552   351A      5.140046   352A      5.190892  
     353A      5.197666   354A      5.278472   355A      5.350773  
     356A      5.359455   357A      5.447732   358A      5.502128  
     359A      5.544521   360A      5.583816   361A      5.635037  
     362A      5.667656   363A      5.712623   364A      5.786046  
     365A      5.789472   366A      5.839060   367A      6.005466  
     368A      6.114381   369A      6.131325   370A      6.204588  
     371A      6.215275   372A      6.241336   373A      6.275827  
     374A      6.350508   375A      6.370779   376A      6.436284  
     377A      6.509627   378A      6.543804   379A      6.595466  
     380A      6.654341   381A      6.662446   382A      6.670383  
     383A      6.686784   384A      6.777265   385A      6.805565  
     386A      6.829873   387A      6.839554   388A      6.851704  
     389A      6.899471   390A      6.905321   391A      6.935712  
     392A      6.949549   393A      6.995352   394A      7.002084  
     395A      7.066128   396A      7.109354   397A      7.132564  
     398A      7.140340   399A      7.163467   400A      7.189552  
     401A      7.212249   402A      7.274676   403A      7.282481  
     404A      7.300436   405A      7.323723   406A      7.336157  
     407A      7.387090   408A      7.439297   409A      7.475494  
     410A      7.493920   411A      7.521961   412A      7.577769  
     413A      7.628873   414A      7.652818   415A      7.684664  
     416A      7.713023   417A      7.763492   418A      7.778031  
     419A      7.793571   420A      7.819200   421A      7.838198  
     422A      7.901935   423A      7.921181   424A      7.982485  
     425A      7.991425   426A      8.005297   427A      8.076503  
     428A      8.078659   429A      8.101645   430A      8.148359  
     431A      8.199835   432A      8.210981   433A      8.325512  
     434A      8.370398   435A      8.380146   436A      8.456263  
     437A      8.472125   438A      8.508410   439A      8.577368  
     440A      8.592860   441A      8.607236   442A      8.621573  
     443A      8.658786   444A      8.676027   445A      8.688173  
     446A      8.716928   447A      8.719938   448A      8.775384  
     449A      8.813464   450A      8.845728   451A      8.871418  
     452A      8.885816   453A      8.940139   454A      9.012985  
     455A      9.046237   456A      9.080827   457A      9.121245  
     458A      9.148757   459A      9.156683   460A      9.186171  
     461A      9.225711   462A      9.266164   463A      9.279985  
     464A      9.317248   465A      9.321242   466A      9.348640  
     467A      9.436853   468A      9.476614   469A      9.485312  
     470A      9.545519   471A      9.614519   472A      9.623127  
     473A      9.639365   474A      9.672676   475A      9.729698  
     476A      9.743990   477A      9.756225   478A      9.807631  
     479A      9.864166   480A      9.871718   481A      9.951785  
     482A      9.994357   483A     10.019900   484A     10.045202  
     485A     10.087049   486A     10.102452   487A     10.116235  
     488A     10.173997   489A     10.218029   490A     10.247353  
     491A     10.251872   492A     10.320706   493A     10.376779  
     494A     10.423533   495A     10.506747   496A     10.570537  
     497A     10.573741   498A     10.631717   499A     10.668892  
     500A     10.822750   501A     10.867555   502A     10.896018  
     503A     10.928944   504A     11.001808   505A     11.060367  
     506A     11.068078   507A     11.107796   508A     11.181970  
     509A     11.219406   510A     11.281981   511A     11.370418  
     512A     11.400822   513A     11.458831   514A     11.465298  
     515A     11.543688   516A     11.582571   517A     11.691142  
     518A     11.712408   519A     11.875620   520A     11.923057  
     521A     12.030133   522A     12.094738   523A     12.190825  
     524A     12.266196   525A     12.308521   526A     12.314212  
     527A     12.423991   528A     12.579421   529A     12.801748  
     530A     12.840211   531A     12.948678   532A     12.983650  
     533A     13.178449   534A     13.288922   535A     13.348186  
     536A     13.415465   537A     13.432041   538A     13.472940  
     539A     13.658552   540A     13.793436   541A     14.051949  
     542A     14.112609   543A     14.706540   544A     14.911774  
     545A     15.054735   546A     15.289811   547A     26.491089  
     548A     29.175633   549A     35.660217   550A     44.166602  

    Final Occupation by Irrep:
              A 
    DOCC [    16 ]

  @DF-RHF Final Energy:  -208.07449665863439

   => Energetics <=

    Nuclear Repulsion Energy =            121.8556238763274138
    One-Electron Energy =                -524.6600260408455370
    Two-Electron Energy =                 194.7299055058837496
    Total Energy =                       -208.0744966586343878

Computation Completed


Properties will be evaluated at   0.000000,   0.000000,   0.000000 [a0]

Properties computed using the SCF density matrix

  Nuclear Dipole Moment: [e a0]
     X:   131.0897      Y:     2.0481      Z:     7.7120

  Electronic Dipole Moment: [e a0]
     X:  -130.5081      Y:    -0.5731      Z:    -7.0053

  Dipole Moment: [e a0]
     X:     0.5816      Y:     1.4750      Z:     0.7067     Total:     1.7358

  Dipole Moment: [D]
     X:     1.4782      Y:     3.7490      Z:     1.7962     Total:     4.4121


*** tstop() called on g2-node38.bme.utexas.edu at Sat Apr 11 17:38:21 2020
Module time:
	user time   =      96.05 seconds =       1.60 minutes
	system time =       3.14 seconds =       0.05 minutes
	total time  =         18 seconds =       0.30 minutes
Total time:
	user time   =     133.86 seconds =       2.23 minutes
	system time =       4.52 seconds =       0.08 minutes
	total time  =         26 seconds =       0.43 minutes

*** tstart() called on g2-node38.bme.utexas.edu
*** at Sat Apr 11 17:38:21 2020


  //>>>>>>>>>>>>>>>>>>>>>>>>>>>>>>>>>>>//
  //               DFMP2               //
  //<<<<<<<<<<<<<<<<<<<<<<<<<<<<<<<<<<<//

   => Loading Basis Set <=

    Name: (AUG-CC-PVQZ AUX)
    Role: RIFIT
    Keyword: DF_BASIS_MP2
    atoms 1, 6     entry C          line   184 file /home/liuchw/anaconda3/envs/psi4env/share/psi4/basis/aug-cc-pvqz-ri.gbs 
    atoms 2        entry O          line   332 file /home/liuchw/anaconda3/envs/psi4env/share/psi4/basis/aug-cc-pvqz-ri.gbs 
    atoms 3        entry N          line   258 file /home/liuchw/anaconda3/envs/psi4env/share/psi4/basis/aug-cc-pvqz-ri.gbs 
    atoms 4-5, 7-9 entry H          line    30 file /home/liuchw/anaconda3/envs/psi4env/share/psi4/basis/aug-cc-pvqz-ri.gbs 

	 --------------------------------------------------------
	                          DF-MP2                         
	      2nd-Order Density-Fitted Moller-Plesset Theory     
	              RMP2 Wavefunction,   6 Threads             
	                                                         
	        Rob Parrish, Justin Turney, Andy Simmonett,      
	           Ed Hohenstein, and C. David Sherrill          
	 --------------------------------------------------------

   => Auxiliary Basis Set <=

  Basis Set: (AUG-CC-PVQZ AUX)
    Blend: AUG-CC-PVQZ-RI
    Number of shells: 244
    Number of basis function: 1072
    Number of Cartesian functions: 1473
    Spherical Harmonics?: true
    Max angular momentum: 5

	 --------------------------------------------------------
	                 NBF =   550, NAUX =  1072
	 --------------------------------------------------------
	   CLASS    FOCC     OCC    AOCC    AVIR     VIR    FVIR
	   PAIRS       0      16      16     534     534       0
	 --------------------------------------------------------

	-----------------------------------------------------------
	 ==================> DF-MP2 Energies <==================== 
	-----------------------------------------------------------
	 Reference Energy          =    -208.0744966586343878 [Eh]
	 Singles Energy            =      -0.0000000000000000 [Eh]
	 Same-Spin Energy          =      -0.2173717334152852 [Eh]
	 Opposite-Spin Energy      =      -0.7402211865730360 [Eh]
	 Correlation Energy        =      -0.9575929199883212 [Eh]
	 Total Energy              =    -209.0320895786227027 [Eh]
	-----------------------------------------------------------
	 ================> DF-SCS-MP2 Energies <================== 
	-----------------------------------------------------------
	 SCS Same-Spin Scale       =       0.3333333333333333 [-]
	 SCS Opposite-Spin Scale   =       1.2000000000000000 [-]
	 SCS Same-Spin Energy      =      -0.0724572444717617 [Eh]
	 SCS Opposite-Spin Energy  =      -0.8882654238876432 [Eh]
	 SCS Correlation Energy    =      -0.9607226683594049 [Eh]
	 SCS Total Energy          =    -209.0352193269937970 [Eh]
	-----------------------------------------------------------


*** tstop() called on g2-node38.bme.utexas.edu at Sat Apr 11 17:38:31 2020
Module time:
	user time   =      43.48 seconds =       0.72 minutes
	system time =       1.72 seconds =       0.03 minutes
	total time  =         10 seconds =       0.17 minutes
Total time:
	user time   =     177.35 seconds =       2.96 minutes
	system time =       6.24 seconds =       0.10 minutes
	total time  =         36 seconds =       0.60 minutes

  //>>>>>>>>>>>>>>>>>>>>>>>>>>>>>>>>>>>//
  //  CBS Results: mp2/aug-cc-pv[tq]z  //
  //<<<<<<<<<<<<<<<<<<<<<<<<<<<<<<<<<<<//


   ==> HF <==

   HI-zeta (4) Energy:               -208.074496658634


   ==> Helgaker 2-point correlated extrapolation for method: MP2 <==

   LO-zeta (3) Energy:               -208.922490676662
   HI-zeta (4) Energy:               -209.032089578623
   Alpha (exponent) Value:             3.000000000000
   Extrapolated Energy:              -209.112067155729

   @Extrapolated MP2/(T,Q):          -209.112067155729



   ==> Helgaker 2-point correlated extrapolation for method: HF <==

   LO-zeta (3) Energy:               -208.061359583631
   HI-zeta (4) Energy:               -208.074496658634
   Alpha (exponent) Value:             3.000000000000
   Extrapolated Energy:              -208.084083172826

   @Extrapolated HF/(T,Q):           -208.084083172826


   ==> Components <==

  ---------------------------------------------------------------------------------------------------------
                          Method / Basis                      Rqd      Energy [Eh]   Variable
  ---------------------------------------------------------------------------------------------------------
                              hf / aug-cc-pvtz                  *    -208.06135958   HF TOTAL ENERGY
                             mp2 / aug-cc-pvtz                  *    -208.92249068   MP2 TOTAL ENERGY
                              hf / aug-cc-pvqz                  *    -208.07449666   HF TOTAL ENERGY
                             mp2 / aug-cc-pvqz                  *    -209.03208958   MP2 TOTAL ENERGY
  ---------------------------------------------------------------------------------------------------------

   ==> Stages <==

  ---------------------------------------------------------------------------------------------------------
      Stage               Method / Basis                       Wt      Energy [Eh]   Scheme
  ---------------------------------------------------------------------------------------------------------
        scf                   hf / aug-cc-pvqz                  1    -208.07449666   xtpl_highest_1
       corl                  mp2 / aug-cc-pv[tq]z               1    -209.11206716   corl_xtpl_helgaker_2
       corl                   hf / aug-cc-pv[tq]z              -1    -208.08408317   corl_xtpl_helgaker_2
  ---------------------------------------------------------------------------------------------------------

   ==> CBS <==

  ---------------------------------------------------------------------------------------------------------
      Stage               Method / Basis                               Energy [Eh]   Scheme
  ---------------------------------------------------------------------------------------------------------
        scf                   hf / aug-cc-pvqz                       -208.07449666   xtpl_highest_1
       corl                  mp2 / aug-cc-pv[tq]z                      -1.02798398   corl_xtpl_helgaker_2
      total                  CBS                                     -209.10248064   
  ---------------------------------------------------------------------------------------------------------
   => Loading Basis Set <=

    Name: DEF2-SVP
    Role: ORBITAL
    Keyword: BASIS
    atoms 1, 6     entry C          line    90 file /home/liuchw/anaconda3/envs/psi4env/share/psi4/basis/def2-svp.gbs 
    atoms 2        entry O          line   130 file /home/liuchw/anaconda3/envs/psi4env/share/psi4/basis/def2-svp.gbs 
    atoms 3        entry N          line   110 file /home/liuchw/anaconda3/envs/psi4env/share/psi4/basis/def2-svp.gbs 
    atoms 4-5, 7-9 entry H          line    15 file /home/liuchw/anaconda3/envs/psi4env/share/psi4/basis/def2-svp.gbs 


       N-Body: Complex Energy (fragments = (2,), basis = (2,):  -209.10248064153774)

       N-Body: Computing complex (2/4) with fragments (2,) in the basis of fragments (1, 2).


Scratch directory: /scratch//

  //>>>>>>>>>>>>>>>>>>>>>>>>>>>>>>>>>>>//
  //   CBS Setup: mp2/aug-cc-pv[tq]z   //
  //<<<<<<<<<<<<<<<<<<<<<<<<<<<<<<<<<<<//

    Naive listing of computations required.
             hf / aug-cc-pvqz              for  HF TOTAL ENERGY
            mp2 / aug-cc-pvtz              for  MP2 TOTAL ENERGY
            mp2 / aug-cc-pvqz              for  MP2 TOTAL ENERGY
             hf / aug-cc-pvtz              for  HF TOTAL ENERGY
             hf / aug-cc-pvqz              for  HF TOTAL ENERGY

    Enlightened listing of computations required.
            mp2 / aug-cc-pvtz              for  MP2 TOTAL ENERGY
            mp2 / aug-cc-pvqz              for  MP2 TOTAL ENERGY

    Full listing of computations to be obtained (required and bonus).
             hf / aug-cc-pvtz              for  HF TOTAL ENERGY
            mp2 / aug-cc-pvtz              for  MP2 TOTAL ENERGY
             hf / aug-cc-pvqz              for  HF TOTAL ENERGY
            mp2 / aug-cc-pvqz              for  MP2 TOTAL ENERGY

  //>>>>>>>>>>>>>>>>>>>>>>>>>>>>>>>>>>>>//
  // CBS Computation: MP2 / AUG-CC-PVTZ //
  //<<<<<<<<<<<<<<<<<<<<<<<<<<<<<<<<<<<<//


Scratch directory: /scratch//

*** tstart() called on g2-node38.bme.utexas.edu
*** at Sat Apr 11 17:38:33 2020

   => Loading Basis Set <=

    Name: AUG-CC-PVTZ
    Role: ORBITAL
    Keyword: BASIS
    atoms 1, 6, 10, 15           entry C          line   239 file /home/liuchw/anaconda3/envs/psi4env/share/psi4/basis/aug-cc-pvtz.gbs 
    atoms 2, 11                  entry O          line   331 file /home/liuchw/anaconda3/envs/psi4env/share/psi4/basis/aug-cc-pvtz.gbs 
    atoms 3, 12                  entry N          line   285 file /home/liuchw/anaconda3/envs/psi4env/share/psi4/basis/aug-cc-pvtz.gbs 
    atoms 4-5, 7-9, 13-14, 16-18 entry H          line    40 file /home/liuchw/anaconda3/envs/psi4env/share/psi4/basis/aug-cc-pvtz.gbs 


         ---------------------------------------------------------
                                   SCF
               by Justin Turney, Rob Parrish, Andy Simmonett
                          and Daniel G. A. Smith
                              RHF Reference
                        6 Threads,  38146 MiB Core
         ---------------------------------------------------------

  ==> Geometry <==

    Molecular point group: c1
    Full point group: C1

    Geometry (in Angstrom), charge = 0, multiplicity = 1:

       Center              X                  Y                   Z               Mass       
    ------------   -----------------  -----------------  -----------------  -----------------
      Gh(C)          -2.051834714053     0.057893540726    -0.080047817168    12.000000000000
      Gh(O)          -1.467384714053     1.032865540726     0.397835182832    15.994914619570
      Gh(N)          -1.407705714053    -1.027227459274    -0.546871817168    14.003074004430
      Gh(H)          -0.387501714053    -1.070834459274    -0.514186817168     1.007825032230
      Gh(H)          -1.925711714053    -1.795882459274    -0.925633817168     1.007825032230
      Gh(C)          -3.558803714053     0.033716540726    -0.165483817168    12.000000000000
      Gh(H)          -3.962713714053     0.140258540726     0.838204182832     1.007825032230
      Gh(H)          -3.951512714053    -0.873648459274    -0.616777817168     1.007825032230
      Gh(H)          -3.885242714053     0.894313540726    -0.743770817168     1.007825032230
         C            2.051803285947    -0.058100459274     0.080368182832    12.000000000000
         O            1.467382285947    -1.032121459274    -0.399362817168    15.994914619570
         N            1.407716285947     1.026642540726     0.548215182832    14.003074004430
         H            0.387610285947     1.071080540726     0.513914182832     1.007825032230
         H            1.925740285947     1.794603540726     0.928336182832     1.007825032230
         C            3.558802285947    -0.033816459274     0.165594182832    12.000000000000
         H            3.950674285947     0.865833540726     0.632778182832     1.007825032230
         H            3.962359285947    -0.121361459274    -0.840186817168     1.007825032230
         H            3.886581285947    -0.904391459274     0.727774182832     1.007825032230

  Running in c1 symmetry.

  Rotational constants: A =      0.17901  B =      0.02654  C =      0.02331 [cm^-1]
  Rotational constants: A =   5366.72984  B =    795.57095  C =    698.80363 [MHz]
  Nuclear repulsion =  121.855623876327414

  Charge       = 0
  Multiplicity = 1
  Electrons    = 32
  Nalpha       = 16
  Nbeta        = 16

  ==> Algorithm <==

  SCF Algorithm Type is DF.
  DIIS enabled.
  MOM disabled.
  Fractional occupation disabled.
  Guess Type is SAD.
  Energy threshold   = 1.00e-07
  Density threshold  = 1.00e-08
  Integral threshold = 0.00e+00

  ==> Primary Basis <==

  Basis Set: AUG-CC-PVTZ
    Blend: AUG-CC-PVTZ
    Number of shells: 202
    Number of basis function: 598
    Number of Cartesian functions: 690
    Spherical Harmonics?: true
    Max angular momentum: 3

   => Loading Basis Set <=

    Name: (AUG-CC-PVTZ AUX)
    Role: JKFIT
    Keyword: DF_BASIS_SCF
    atoms 1, 6, 10, 15           entry C          line   162 file /home/liuchw/anaconda3/envs/psi4env/share/psi4/basis/aug-cc-pvtz-jkfit.gbs 
    atoms 2, 11                  entry O          line   286 file /home/liuchw/anaconda3/envs/psi4env/share/psi4/basis/aug-cc-pvtz-jkfit.gbs 
    atoms 3, 12                  entry N          line   224 file /home/liuchw/anaconda3/envs/psi4env/share/psi4/basis/aug-cc-pvtz-jkfit.gbs 
    atoms 4-5, 7-9, 13-14, 16-18 entry H          line    70 file /home/liuchw/anaconda3/envs/psi4env/share/psi4/basis/aug-cc-pvtz-jkfit.gbs 

  ==> Pre-Iterations <==

   -------------------------------------------------------
    Irrep   Nso     Nmo     Nalpha   Nbeta   Ndocc  Nsocc
   -------------------------------------------------------
     A        598     598       0       0       0       0
   -------------------------------------------------------
    Total     598     598      16      16      16       0
   -------------------------------------------------------

  ==> Integral Setup <==

  DFHelper Memory: AOs need 3.188 GiB; user supplied 27.940 GiB. Using in-core AOs.

  ==> MemDFJK: Density-Fitted J/K Matrices <==

    J tasked:                   Yes
    K tasked:                   Yes
    wK tasked:                   No
    OpenMP threads:               6
    Memory [MiB]:             28610
    Algorithm:                 Core
    Schwarz Cutoff:           1E-12
    Mask sparsity (%):      10.3103
    Fitting Condition:        1E-10

   => Auxiliary Basis Set <=

  Basis Set: (AUG-CC-PVTZ AUX)
    Blend: AUG-CC-PVTZ-JKFIT
    Number of shells: 380
    Number of basis function: 1292
    Number of Cartesian functions: 1598
    Spherical Harmonics?: true
    Max angular momentum: 4

  Minimum eigenvalue in the overlap matrix is 5.2322118362E-06.
  Using Symmetric Orthogonalization.

  SCF Guess: Superposition of Atomic Densities via on-the-fly atomic UHF.

  ==> Iterations <==

                           Total Energy        Delta E     RMS |[F,P]|

   @DF-RHF iter SAD:  -207.23354145457202   -2.07234e+02   0.00000e+00 
   @DF-RHF iter   1:  -207.88217297998042   -6.48632e-01   1.02365e-03 DIIS
   @DF-RHF iter   2:  -208.01565489518370   -1.33482e-01   6.02412e-04 DIIS
   @DF-RHF iter   3:  -208.05852693539941   -4.28720e-02   1.12997e-04 DIIS
   @DF-RHF iter   4:  -208.06099045824104   -2.46352e-03   4.64983e-05 DIIS
   @DF-RHF iter   5:  -208.06150158027143   -5.11122e-04   8.43417e-06 DIIS
   @DF-RHF iter   6:  -208.06153144166640   -2.98614e-05   3.96258e-06 DIIS
   @DF-RHF iter   7:  -208.06153680268784   -5.36102e-06   1.46554e-06 DIIS
   @DF-RHF iter   8:  -208.06153794304242   -1.14035e-06   4.88998e-07 DIIS
   @DF-RHF iter   9:  -208.06153809146633   -1.48424e-07   1.31639e-07 DIIS
   @DF-RHF iter  10:  -208.06153809976774   -8.30141e-09   4.31243e-08 DIIS
   @DF-RHF iter  11:  -208.06153810054474   -7.76993e-10   1.11082e-08 DIIS
   @DF-RHF iter  12:  -208.06153810059459   -4.98517e-11   2.27139e-09 DIIS
  Energy and wave function converged.


  ==> Post-Iterations <==

    Orbital Energies [Eh]
    ---------------------

    Doubly Occupied:                                                      

       1A    -20.511355     2A    -15.593456     3A    -11.352768  
       4A    -11.237601     5A     -1.369051     6A     -1.218831  
       7A     -1.005876     8A     -0.804962     9A     -0.730865  
      10A     -0.663359    11A     -0.615639    12A     -0.579271  
      13A     -0.564526    14A     -0.524467    15A     -0.421410  
      16A     -0.414125  

    Virtual:                                                              

      17A      0.018739    18A      0.027264    19A      0.038016  
      20A      0.044306    21A      0.048162    22A      0.050993  
      23A      0.051896    24A      0.065202    25A      0.074129  
      26A      0.081549    27A      0.090371    28A      0.095840  
      29A      0.103525    30A      0.109303    31A      0.112286  
      32A      0.114015    33A      0.115249    34A      0.125386  
      35A      0.133853    36A      0.135356    37A      0.141138  
      38A      0.143760    39A      0.152677    40A      0.158346  
      41A      0.163891    42A      0.168301    43A      0.172760  
      44A      0.177657    45A      0.178388    46A      0.190428  
      47A      0.203079    48A      0.211092    49A      0.214378  
      50A      0.222583    51A      0.223060    52A      0.235768  
      53A      0.238135    54A      0.245379    55A      0.251827  
      56A      0.260153    57A      0.261211    58A      0.274134  
      59A      0.276499    60A      0.292455    61A      0.296100  
      62A      0.296962    63A      0.307146    64A      0.311703  
      65A      0.321898    66A      0.322898    67A      0.326877  
      68A      0.329533    69A      0.337191    70A      0.341984  
      71A      0.352213    72A      0.359657    73A      0.360740  
      74A      0.362770    75A      0.366782    76A      0.374971  
      77A      0.379266    78A      0.387459    79A      0.389479  
      80A      0.394004    81A      0.400346    82A      0.405506  
      83A      0.408264    84A      0.409651    85A      0.413970  
      86A      0.425055    87A      0.427537    88A      0.428801  
      89A      0.431144    90A      0.435045    91A      0.441456  
      92A      0.443112    93A      0.454514    94A      0.460358  
      95A      0.469833    96A      0.482289    97A      0.490890  
      98A      0.495459    99A      0.496501   100A      0.505433  
     101A      0.506686   102A      0.510125   103A      0.515462  
     104A      0.521790   105A      0.529694   106A      0.542665  
     107A      0.550116   108A      0.553472   109A      0.555982  
     110A      0.566013   111A      0.581059   112A      0.588333  
     113A      0.592736   114A      0.605025   115A      0.611114  
     116A      0.615075   117A      0.624130   118A      0.632148  
     119A      0.635620   120A      0.644296   121A      0.652534  
     122A      0.653516   123A      0.666408   124A      0.669438  
     125A      0.681149   126A      0.689663   127A      0.706063  
     128A      0.716663   129A      0.719112   130A      0.742716  
     131A      0.745450   132A      0.748390   133A      0.763740  
     134A      0.765914   135A      0.777057   136A      0.780021  
     137A      0.787187   138A      0.804361   139A      0.807380  
     140A      0.822772   141A      0.826292   142A      0.828159  
     143A      0.834557   144A      0.846428   145A      0.853511  
     146A      0.859130   147A      0.866611   148A      0.878488  
     149A      0.892935   150A      0.894045   151A      0.901452  
     152A      0.904902   153A      0.914842   154A      0.919113  
     155A      0.925543   156A      0.929949   157A      0.936504  
     158A      0.949436   159A      0.951649   160A      0.953956  
     161A      0.962647   162A      0.982269   163A      0.991850  
     164A      0.997190   165A      1.003804   166A      1.006348  
     167A      1.013069   168A      1.023264   169A      1.027511  
     170A      1.032745   171A      1.033052   172A      1.051704  
     173A      1.055730   174A      1.064280   175A      1.067666  
     176A      1.079848   177A      1.082041   178A      1.089725  
     179A      1.095788   180A      1.096951   181A      1.106065  
     182A      1.121841   183A      1.123506   184A      1.127538  
     185A      1.139537   186A      1.142146   187A      1.147067  
     188A      1.149647   189A      1.156555   190A      1.168485  
     191A      1.170187   192A      1.185022   193A      1.188742  
     194A      1.194259   195A      1.207351   196A      1.216615  
     197A      1.221952   198A      1.229323   199A      1.230118  
     200A      1.256765   201A      1.257867   202A      1.261562  
     203A      1.263752   204A      1.271143   205A      1.279019  
     206A      1.285763   207A      1.301589   208A      1.302483  
     209A      1.311008   210A      1.326600   211A      1.331202  
     212A      1.337445   213A      1.342397   214A      1.355560  
     215A      1.361953   216A      1.366541   217A      1.375725  
     218A      1.388464   219A      1.394886   220A      1.396192  
     221A      1.397871   222A      1.410573   223A      1.438593  
     224A      1.449322   225A      1.452045   226A      1.472158  
     227A      1.481886   228A      1.483296   229A      1.489811  
     230A      1.498184   231A      1.506633   232A      1.514331  
     233A      1.526723   234A      1.534500   235A      1.544275  
     236A      1.562527   237A      1.566500   238A      1.589709  
     239A      1.594923   240A      1.599437   241A      1.604773  
     242A      1.622425   243A      1.628875   244A      1.631477  
     245A      1.632934   246A      1.639554   247A      1.653312  
     248A      1.654776   249A      1.670612   250A      1.679190  
     251A      1.690533   252A      1.698933   253A      1.709445  
     254A      1.717566   255A      1.739462   256A      1.756656  
     257A      1.765925   258A      1.770496   259A      1.771492  
     260A      1.774276   261A      1.789468   262A      1.792858  
     263A      1.814264   264A      1.824645   265A      1.834534  
     266A      1.837161   267A      1.859186   268A      1.868686  
     269A      1.873316   270A      1.894348   271A      1.898427  
     272A      1.903718   273A      1.907900   274A      1.937200  
     275A      1.938972   276A      1.944691   277A      1.965806  
     278A      1.980500   279A      1.992618   280A      2.007050  
     281A      2.024030   282A      2.030769   283A      2.035589  
     284A      2.036804   285A      2.079230   286A      2.090238  
     287A      2.093505   288A      2.096970   289A      2.114802  
     290A      2.128867   291A      2.132324   292A      2.150342  
     293A      2.177458   294A      2.182617   295A      2.194134  
     296A      2.200980   297A      2.209254   298A      2.210482  
     299A      2.216836   300A      2.231655   301A      2.263210  
     302A      2.278591   303A      2.285153   304A      2.294361  
     305A      2.311013   306A      2.336434   307A      2.356886  
     308A      2.358718   309A      2.377972   310A      2.390576  
     311A      2.396127   312A      2.411161   313A      2.417290  
     314A      2.460376   315A      2.462342   316A      2.476102  
     317A      2.496497   318A      2.527103   319A      2.538014  
     320A      2.550391   321A      2.570982   322A      2.601480  
     323A      2.619994   324A      2.635711   325A      2.645910  
     326A      2.662338   327A      2.671114   328A      2.681684  
     329A      2.691912   330A      2.715505   331A      2.726113  
     332A      2.734857   333A      2.747641   334A      2.752237  
     335A      2.758827   336A      2.780094   337A      2.787722  
     338A      2.808854   339A      2.827088   340A      2.829274  
     341A      2.833420   342A      2.846638   343A      2.868157  
     344A      2.882673   345A      2.894370   346A      2.938818  
     347A      2.950282   348A      2.960524   349A      2.991150  
     350A      3.006645   351A      3.017301   352A      3.040269  
     353A      3.053091   354A      3.067002   355A      3.086636  
     356A      3.119652   357A      3.152364   358A      3.189561  
     359A      3.203810   360A      3.231122   361A      3.236667  
     362A      3.243992   363A      3.301059   364A      3.315467  
     365A      3.348284   366A      3.398666   367A      3.405297  
     368A      3.424308   369A      3.458344   370A      3.476666  
     371A      3.493557   372A      3.506752   373A      3.523882  
     374A      3.566758   375A      3.586438   376A      3.617952  
     377A      3.629701   378A      3.631567   379A      3.647240  
     380A      3.651917   381A      3.690716   382A      3.693159  
     383A      3.702555   384A      3.749054   385A      3.815221  
     386A      3.838742   387A      3.862995   388A      3.872097  
     389A      3.907494   390A      3.925937   391A      3.943221  
     392A      3.949645   393A      3.951672   394A      3.983963  
     395A      4.018732   396A      4.027857   397A      4.054598  
     398A      4.081325   399A      4.085981   400A      4.103785  
     401A      4.107919   402A      4.127037   403A      4.133416  
     404A      4.138966   405A      4.174015   406A      4.181440  
     407A      4.192881   408A      4.250006   409A      4.261891  
     410A      4.279853   411A      4.284448   412A      4.295970  
     413A      4.319089   414A      4.324398   415A      4.336497  
     416A      4.355190   417A      4.358244   418A      4.391118  
     419A      4.422267   420A      4.436050   421A      4.445176  
     422A      4.452327   423A      4.477805   424A      4.481426  
     425A      4.491819   426A      4.524741   427A      4.533252  
     428A      4.537085   429A      4.560654   430A      4.573788  
     431A      4.581010   432A      4.609905   433A      4.615469  
     434A      4.622353   435A      4.650982   436A      4.659986  
     437A      4.725187   438A      4.729007   439A      4.731800  
     440A      4.742848   441A      4.758543   442A      4.764760  
     443A      4.785997   444A      4.792028   445A      4.815615  
     446A      4.835232   447A      4.841856   448A      4.869702  
     449A      4.874871   450A      4.902105   451A      4.922564  
     452A      4.939291   453A      4.962404   454A      4.965979  
     455A      4.982219   456A      4.991225   457A      5.016366  
     458A      5.019464   459A      5.050898   460A      5.054736  
     461A      5.075749   462A      5.084348   463A      5.136086  
     464A      5.144488   465A      5.154352   466A      5.164231  
     467A      5.180405   468A      5.182220   469A      5.210448  
     470A      5.247959   471A      5.269346   472A      5.278221  
     473A      5.285317   474A      5.311040   475A      5.322643  
     476A      5.345893   477A      5.352966   478A      5.355025  
     479A      5.389971   480A      5.395229   481A      5.412939  
     482A      5.414131   483A      5.427014   484A      5.459742  
     485A      5.496896   486A      5.501008   487A      5.529422  
     488A      5.534346   489A      5.544066   490A      5.552772  
     491A      5.564872   492A      5.594517   493A      5.606579  
     494A      5.621715   495A      5.635490   496A      5.679351  
     497A      5.683076   498A      5.705903   499A      5.739845  
     500A      5.772925   501A      5.806918   502A      5.826886  
     503A      5.858274   504A      5.927464   505A      5.944130  
     506A      5.955086   507A      5.988746   508A      5.996894  
     509A      6.063149   510A      6.094286   511A      6.099230  
     512A      6.130951   513A      6.133283   514A      6.179994  
     515A      6.190660   516A      6.225610   517A      6.240964  
     518A      6.244057   519A      6.320421   520A      6.383304  
     521A      6.391082   522A      6.404281   523A      6.459558  
     524A      6.500826   525A      6.583430   526A      6.646548  
     527A      6.668697   528A      6.696767   529A      6.707903  
     530A      6.718580   531A      6.747093   532A      6.767229  
     533A      6.858277   534A      6.866228   535A      6.908721  
     536A      6.945167   537A      6.960469   538A      7.021352  
     539A      7.136201   540A      7.152177   541A      7.199277  
     542A      7.240341   543A      7.251712   544A      7.297394  
     545A      7.426273   546A      7.430700   547A      7.445175  
     548A      7.543668   549A      7.604151   550A      7.676957  
     551A      7.678724   552A      7.700724   553A      7.714001  
     554A      7.759314   555A      7.795130   556A      7.797594  
     557A      7.842344   558A      7.852431   559A      7.873688  
     560A      7.930870   561A      7.945575   562A      7.980269  
     563A      8.015421   564A      8.018428   565A      8.111644  
     566A      8.163175   567A      8.198092   568A      8.221606  
     569A      8.372845   570A      8.447981   571A      8.599073  
     572A      8.760239   573A      9.119734   574A      9.160393  
     575A      9.478392   576A      9.591259   577A      9.849162  
     578A      9.960418   579A     10.131553   580A     10.256901  
     581A     10.459532   582A     10.482738   583A     10.690944  
     584A     11.310446   585A     11.834226   586A     11.971860  
     587A     12.693660   588A     12.867647   589A     13.237244  
     590A     14.060239   591A     15.921601   592A     17.516498  
     593A     18.898317   594A     20.101370   595A     51.724521  
     596A     53.979143   597A     62.855926   598A     69.105707  

    Final Occupation by Irrep:
              A 
    DOCC [    16 ]

  @DF-RHF Final Energy:  -208.06153810059459

   => Energetics <=

    Nuclear Repulsion Energy =            121.8556238763274138
    One-Electron Energy =                -524.6191996183700894
    Two-Electron Energy =                 194.7020376414481007
    Total Energy =                       -208.0615381005945892

Computation Completed


Properties will be evaluated at   0.000000,   0.000000,   0.000000 [a0]

Properties computed using the SCF density matrix

  Nuclear Dipole Moment: [e a0]
     X:   131.0897      Y:     2.0481      Z:     7.7120

  Electronic Dipole Moment: [e a0]
     X:  -130.5079      Y:    -0.5725      Z:    -7.0050

  Dipole Moment: [e a0]
     X:     0.5817      Y:     1.4755      Z:     0.7070     Total:     1.7365

  Dipole Moment: [D]
     X:     1.4786      Y:     3.7505      Z:     1.7970     Total:     4.4138


*** tstop() called on g2-node38.bme.utexas.edu at Sat Apr 11 17:39:01 2020
Module time:
	user time   =     148.82 seconds =       2.48 minutes
	system time =       4.25 seconds =       0.07 minutes
	total time  =         28 seconds =       0.47 minutes
Total time:
	user time   =     328.48 seconds =       5.47 minutes
	system time =      10.54 seconds =       0.18 minutes
	total time  =         66 seconds =       1.10 minutes

*** tstart() called on g2-node38.bme.utexas.edu
*** at Sat Apr 11 17:39:01 2020


  //>>>>>>>>>>>>>>>>>>>>>>>>>>>>>>>>>>>//
  //               DFMP2               //
  //<<<<<<<<<<<<<<<<<<<<<<<<<<<<<<<<<<<//

   => Loading Basis Set <=

    Name: (AUG-CC-PVTZ AUX)
    Role: RIFIT
    Keyword: DF_BASIS_MP2
    atoms 1, 6, 10, 15           entry C          line   148 file /home/liuchw/anaconda3/envs/psi4env/share/psi4/basis/aug-cc-pvtz-ri.gbs 
    atoms 2, 11                  entry O          line   264 file /home/liuchw/anaconda3/envs/psi4env/share/psi4/basis/aug-cc-pvtz-ri.gbs 
    atoms 3, 12                  entry N          line   206 file /home/liuchw/anaconda3/envs/psi4env/share/psi4/basis/aug-cc-pvtz-ri.gbs 
    atoms 4-5, 7-9, 13-14, 16-18 entry H          line    30 file /home/liuchw/anaconda3/envs/psi4env/share/psi4/basis/aug-cc-pvtz-ri.gbs 

	 --------------------------------------------------------
	                          DF-MP2                         
	      2nd-Order Density-Fitted Moller-Plesset Theory     
	              RMP2 Wavefunction,   6 Threads             
	                                                         
	        Rob Parrish, Justin Turney, Andy Simmonett,      
	           Ed Hohenstein, and C. David Sherrill          
	 --------------------------------------------------------

   => Auxiliary Basis Set <=

  Basis Set: (AUG-CC-PVTZ AUX)
    Blend: AUG-CC-PVTZ-RI
    Number of shells: 364
    Number of basis function: 1308
    Number of Cartesian functions: 1638
    Spherical Harmonics?: true
    Max angular momentum: 4

	 --------------------------------------------------------
	                 NBF =   598, NAUX =  1308
	 --------------------------------------------------------
	   CLASS    FOCC     OCC    AOCC    AVIR     VIR    FVIR
	   PAIRS       0      16      16     582     582       0
	 --------------------------------------------------------

	-----------------------------------------------------------
	 ==================> DF-MP2 Energies <==================== 
	-----------------------------------------------------------
	 Reference Energy          =    -208.0615381005945892 [Eh]
	 Singles Energy            =      -0.0000000000000000 [Eh]
	 Same-Spin Energy          =      -0.2050303260981983 [Eh]
	 Opposite-Spin Energy      =      -0.6585278986522360 [Eh]
	 Correlation Energy        =      -0.8635582247504343 [Eh]
	 Total Energy              =    -208.9250963253450095 [Eh]
	-----------------------------------------------------------
	 ================> DF-SCS-MP2 Energies <================== 
	-----------------------------------------------------------
	 SCS Same-Spin Scale       =       0.3333333333333333 [-]
	 SCS Opposite-Spin Scale   =       1.2000000000000000 [-]
	 SCS Same-Spin Energy      =      -0.0683434420327328 [Eh]
	 SCS Opposite-Spin Energy  =      -0.7902334783826832 [Eh]
	 SCS Correlation Energy    =      -0.8585769204154160 [Eh]
	 SCS Total Energy          =    -208.9201150210099911 [Eh]
	-----------------------------------------------------------


*** tstop() called on g2-node38.bme.utexas.edu at Sat Apr 11 17:39:16 2020
Module time:
	user time   =      67.85 seconds =       1.13 minutes
	system time =       2.61 seconds =       0.04 minutes
	total time  =         15 seconds =       0.25 minutes
Total time:
	user time   =     396.34 seconds =       6.61 minutes
	system time =      13.15 seconds =       0.22 minutes
	total time  =         81 seconds =       1.35 minutes

  //>>>>>>>>>>>>>>>>>>>>>>>>>>>>>>>>>>>>//
  // CBS Computation: MP2 / AUG-CC-PVQZ //
  //<<<<<<<<<<<<<<<<<<<<<<<<<<<<<<<<<<<<//


Scratch directory: /scratch//

*** tstart() called on g2-node38.bme.utexas.edu
*** at Sat Apr 11 17:39:16 2020

   => Loading Basis Set <=

    Name: AUG-CC-PVQZ
    Role: ORBITAL
    Keyword: BASIS
    atoms 1, 6, 10, 15           entry C          line   303 file /home/liuchw/anaconda3/envs/psi4env/share/psi4/basis/aug-cc-pvqz.gbs 
    atoms 2, 11                  entry O          line   423 file /home/liuchw/anaconda3/envs/psi4env/share/psi4/basis/aug-cc-pvqz.gbs 
    atoms 3, 12                  entry N          line   363 file /home/liuchw/anaconda3/envs/psi4env/share/psi4/basis/aug-cc-pvqz.gbs 
    atoms 4-5, 7-9, 13-14, 16-18 entry H          line    40 file /home/liuchw/anaconda3/envs/psi4env/share/psi4/basis/aug-cc-pvqz.gbs 


         ---------------------------------------------------------
                                   SCF
               by Justin Turney, Rob Parrish, Andy Simmonett
                          and Daniel G. A. Smith
                              RHF Reference
                        6 Threads,  38146 MiB Core
         ---------------------------------------------------------

  ==> Geometry <==

    Molecular point group: c1
    Full point group: C1

    Geometry (in Angstrom), charge = 0, multiplicity = 1:

       Center              X                  Y                   Z               Mass       
    ------------   -----------------  -----------------  -----------------  -----------------
      Gh(C)          -2.051834714053     0.057893540726    -0.080047817168    12.000000000000
      Gh(O)          -1.467384714053     1.032865540726     0.397835182832    15.994914619570
      Gh(N)          -1.407705714053    -1.027227459274    -0.546871817168    14.003074004430
      Gh(H)          -0.387501714053    -1.070834459274    -0.514186817168     1.007825032230
      Gh(H)          -1.925711714053    -1.795882459274    -0.925633817168     1.007825032230
      Gh(C)          -3.558803714053     0.033716540726    -0.165483817168    12.000000000000
      Gh(H)          -3.962713714053     0.140258540726     0.838204182832     1.007825032230
      Gh(H)          -3.951512714053    -0.873648459274    -0.616777817168     1.007825032230
      Gh(H)          -3.885242714053     0.894313540726    -0.743770817168     1.007825032230
         C            2.051803285947    -0.058100459274     0.080368182832    12.000000000000
         O            1.467382285947    -1.032121459274    -0.399362817168    15.994914619570
         N            1.407716285947     1.026642540726     0.548215182832    14.003074004430
         H            0.387610285947     1.071080540726     0.513914182832     1.007825032230
         H            1.925740285947     1.794603540726     0.928336182832     1.007825032230
         C            3.558802285947    -0.033816459274     0.165594182832    12.000000000000
         H            3.950674285947     0.865833540726     0.632778182832     1.007825032230
         H            3.962359285947    -0.121361459274    -0.840186817168     1.007825032230
         H            3.886581285947    -0.904391459274     0.727774182832     1.007825032230

  Running in c1 symmetry.

[...]
     654A      4.649424   655A      4.650758   656A      4.666549  
     657A      4.678480   658A      4.687180   659A      4.703356  
     660A      4.719172   661A      4.722817   662A      4.738201  
     663A      4.763569   664A      4.778411   665A      4.786854  
     666A      4.787451   667A      4.795252   668A      4.832235  
     669A      4.837829   670A      4.848177   671A      4.850909  
     672A      4.877142   673A      4.903624   674A      4.932650  
     675A      4.940098   676A      4.951234   677A      4.956320  
     678A      4.959265   679A      4.976251   680A      4.979806  
     681A      4.985051   682A      4.985948   683A      5.050454  
     684A      5.056451   685A      5.078830   686A      5.113497  
     687A      5.115680   688A      5.124634   689A      5.137444  
     690A      5.146261   691A      5.147838   692A      5.154908  
     693A      5.164546   694A      5.183033   695A      5.195974  
     696A      5.219323   697A      5.230078   698A      5.275213  
     699A      5.294962   700A      5.309588   701A      5.339791  
     702A      5.369637   703A      5.377294   704A      5.436147  
     705A      5.460463   706A      5.464465   707A      5.467368  
     708A      5.489694   709A      5.493864   710A      5.505320  
     711A      5.511788   712A      5.573004   713A      5.627106  
     714A      5.640245   715A      5.646892   716A      5.687935  
     717A      5.719233   718A      5.729000   719A      5.754879  
     720A      5.787154   721A      5.831748   722A      5.852689  
     723A      5.858567   724A      5.870192   725A      5.913626  
     726A      5.937663   727A      5.991221   728A      6.025812  
     729A      6.062523   730A      6.082454   731A      6.094025  
     732A      6.143512   733A      6.175235   734A      6.180895  
     735A      6.188731   736A      6.224643   737A      6.245599  
     738A      6.257061   739A      6.261221   740A      6.270007  
     741A      6.322403   742A      6.328232   743A      6.349944  
     744A      6.395197   745A      6.398890   746A      6.399452  
     747A      6.414000   748A      6.438983   749A      6.470409  
     750A      6.500463   751A      6.552486   752A      6.569539  
     753A      6.582095   754A      6.600702   755A      6.646088  
     756A      6.660901   757A      6.669906   758A      6.688611  
     759A      6.709197   760A      6.729466   761A      6.734640  
     762A      6.743235   763A      6.748217   764A      6.765689  
     765A      6.781941   766A      6.801194   767A      6.821256  
     768A      6.826980   769A      6.853511   770A      6.858623  
     771A      6.864813   772A      6.871808   773A      6.878998  
     774A      6.894960   775A      6.925885   776A      6.928483  
     777A      6.935581   778A      6.942847   779A      6.955279  
     780A      6.967273   781A      6.976212   782A      7.008566  
     783A      7.052536   784A      7.054401   785A      7.057941  
     786A      7.058792   787A      7.085406   788A      7.094635  
     789A      7.100992   790A      7.115423   791A      7.166648  
     792A      7.179855   793A      7.181361   794A      7.187814  
     795A      7.201520   796A      7.226117   797A      7.244562  
     798A      7.262718   799A      7.263354   800A      7.266179  
     801A      7.284023   802A      7.305037   803A      7.326942  
     804A      7.333636   805A      7.349123   806A      7.352945  
     807A      7.359542   808A      7.361048   809A      7.392328  
     810A      7.401768   811A      7.403056   812A      7.416792  
     813A      7.425716   814A      7.430787   815A      7.497438  
     816A      7.498001   817A      7.505164   818A      7.508604  
     819A      7.600669   820A      7.602107   821A      7.605503  
     822A      7.610407   823A      7.675115   824A      7.697133  
     825A      7.709066   826A      7.716276   827A      7.744223  
     828A      7.757837   829A      7.773690   830A      7.804560  
     831A      7.806000   832A      7.809366   833A      7.811363  
     834A      7.834609   835A      7.835887   836A      7.841992  
     837A      7.882632   838A      7.888194   839A      7.909328  
     840A      7.932608   841A      7.945782   842A      7.952049  
     843A      7.961044   844A      7.967446   845A      7.976486  
     846A      7.978394   847A      8.025278   848A      8.039601  
     849A      8.065786   850A      8.090644   851A      8.117165  
     852A      8.118855   853A      8.120327   854A      8.125042  
     855A      8.180191   856A      8.194187   857A      8.199828  
     858A      8.204275   859A      8.249404   860A      8.251020  
     861A      8.259442   862A      8.261737   863A      8.302545  
     864A      8.343352   865A      8.387782   866A      8.397002  
     867A      8.427945   868A      8.441274   869A      8.462778  
     870A      8.479787   871A      8.503706   872A      8.512002  
     873A      8.587101   874A      8.591288   875A      8.603695  
     876A      8.614604   877A      8.637828   878A      8.641069  
     879A      8.666133   880A      8.674130   881A      8.682814  
     882A      8.685815   883A      8.690604   884A      8.708310  
     885A      8.713832   886A      8.725426   887A      8.738070  
     888A      8.742277   889A      8.744464   890A      8.795518  
     891A      8.804872   892A      8.828797   893A      8.851197  
     894A      8.863345   895A      8.885838   896A      8.899868  
     897A      8.951838   898A      8.952906   899A      8.973354  
     900A      8.980762   901A      8.988480   902A      9.027913  
     903A      9.032941   904A      9.044801   905A      9.073057  
     906A      9.084559   907A      9.104230   908A      9.142520  
     909A      9.152625   910A      9.157725   911A      9.159402  
     912A      9.166504   913A      9.169875   914A      9.180244  
     915A      9.202168   916A      9.225491   917A      9.241294  
     918A      9.281840   919A      9.293632   920A      9.298341  
     921A      9.301066   922A      9.321357   923A      9.351552  
     924A      9.358026   925A      9.364220   926A      9.364504  
     927A      9.381950   928A      9.387603   929A      9.423101  
     930A      9.427506   931A      9.525891   932A      9.526801  
     933A      9.557722   934A      9.561891   935A      9.574066  
     936A      9.597729   937A      9.613166   938A      9.651019  
     939A      9.656105   940A      9.665896   941A      9.686969  
     942A      9.688148   943A      9.698880   944A      9.727016  
     945A      9.741335   946A      9.760103   947A      9.761060  
     948A      9.801050   949A      9.826630   950A      9.837859  
     951A      9.849109   952A      9.859285   953A      9.870355  
     954A      9.879222   955A      9.891021   956A      9.915392  
     957A      9.925971   958A      9.940987   959A      9.943470  
     960A      9.956467   961A     10.041249   962A     10.064229  
     963A     10.090880   964A     10.100066   965A     10.133380  
     966A     10.141967   967A     10.144291   968A     10.148159  
     969A     10.161993   970A     10.183551   971A     10.185263  
     972A     10.205832   973A     10.207445   974A     10.214030  
     975A     10.219452   976A     10.263411   977A     10.275931  
     978A     10.277705   979A     10.341186   980A     10.357108  
     981A     10.372013   982A     10.388599   983A     10.423421  
     984A     10.428073   985A     10.433176   986A     10.457768  
     987A     10.467212   988A     10.482148   989A     10.544553  
     990A     10.551252   991A     10.611852   992A     10.630021  
     993A     10.744438   994A     10.769008   995A     10.779976  
     996A     10.789345   997A     10.815366   998A     10.842407  
     999A     10.880621  1000A     10.884549  1001A     10.986451  
    1002A     10.995724  1003A     11.031048  1004A     11.054960  
    1005A     11.077234  1006A     11.079346  1007A     11.086830  
    1008A     11.121670  1009A     11.131376  1010A     11.148284  
    1011A     11.191285  1012A     11.210421  1013A     11.255739  
    1014A     11.283261  1015A     11.291521  1016A     11.294225  
    1017A     11.314557  1018A     11.321013  1019A     11.344873  
    1020A     11.369155  1021A     11.472201  1022A     11.479936  
    1023A     11.484783  1024A     11.490938  1025A     11.504666  
    1026A     11.510759  1027A     11.560064  1028A     11.577469  
    1029A     11.618552  1030A     11.619578  1031A     11.629186  
    1032A     11.731366  1033A     11.799793  1034A     11.813259  
    1035A     11.921828  1036A     11.932758  1037A     12.009723  
    1038A     12.013495  1039A     12.144759  1040A     12.160882  
    1041A     12.161561  1042A     12.226030  1043A     12.239087  
    1044A     12.295704  1045A     12.349052  1046A     12.355030  
    1047A     12.375260  1048A     12.385723  1049A     12.407376  
    1050A     12.419537  1051A     12.466909  1052A     12.486942  
    1053A     12.542320  1054A     12.632920  1055A     12.643993  
    1056A     12.740654  1057A     12.853394  1058A     12.866277  
    1059A     12.871675  1060A     12.922977  1061A     12.995038  
    1062A     13.030500  1063A     13.045194  1064A     13.101191  
    1065A     13.290624  1066A     13.322861  1067A     13.333918  
    1068A     13.341017  1069A     13.475761  1070A     13.475846  
    1071A     13.504367  1072A     13.521821  1073A     13.533747  
    1074A     13.537910  1075A     13.727154  1076A     13.764030  
    1077A     13.787103  1078A     13.873799  1079A     13.943689  
    1080A     14.062878  1081A     14.066189  1082A     14.078817  
    1083A     14.157330  1084A     14.181980  1085A     14.772544  
    1086A     14.777076  1087A     15.089695  1088A     15.153147  
    1089A     15.165111  1090A     15.182636  1091A     15.624720  
    1092A     15.661089  1093A     26.633817  1094A     26.644578  
    1095A     29.252155  1096A     29.263385  1097A     35.819201  
    1098A     35.840630  1099A     44.657993  1100A     44.726717  

    Final Occupation by Irrep:
              A 
    DOCC [    32 ]

  @DF-RHF Final Energy:  -416.16885920731090

   => Energetics <=

    Nuclear Repulsion Energy =            373.2039894719639506
    One-Electron Energy =               -1308.6645619431756131
    Two-Electron Energy =                 519.2917132639007605
    Total Energy =                       -416.1688592073109021

Computation Completed


Properties will be evaluated at   0.000000,   0.000000,   0.000000 [a0]

Properties computed using the SCF density matrix

  Nuclear Dipole Moment: [e a0]
     X:     0.0003      Y:    -0.0000      Z:     0.0004

  Electronic Dipole Moment: [e a0]
     X:    -0.0001      Y:    -0.0006      Z:     0.0005

  Dipole Moment: [e a0]
     X:     0.0002      Y:    -0.0006      Z:     0.0009     Total:     0.0011

  Dipole Moment: [D]
     X:     0.0004      Y:    -0.0016      Z:     0.0024     Total:     0.0029


*** tstop() called on g2-node38.bme.utexas.edu at Sat Apr 11 17:50:22 2020
Module time:
	user time   =     717.97 seconds =      11.97 minutes
	system time =      16.27 seconds =       0.27 minutes
	total time  =        129 seconds =       2.15 minutes
Total time:
	user time   =    3665.15 seconds =      61.09 minutes
	system time =     107.50 seconds =       1.79 minutes
	total time  =        747 seconds =      12.45 minutes

*** tstart() called on g2-node38.bme.utexas.edu
*** at Sat Apr 11 17:50:22 2020


  //>>>>>>>>>>>>>>>>>>>>>>>>>>>>>>>>>>>//
  //               DFMP2               //
  //<<<<<<<<<<<<<<<<<<<<<<<<<<<<<<<<<<<//

   => Loading Basis Set <=

    Name: (AUG-CC-PVQZ AUX)
    Role: RIFIT
    Keyword: DF_BASIS_MP2
    atoms 1, 6, 10, 15           entry C          line   184 file /home/liuchw/anaconda3/envs/psi4env/share/psi4/basis/aug-cc-pvqz-ri.gbs 
    atoms 2, 11                  entry O          line   332 file /home/liuchw/anaconda3/envs/psi4env/share/psi4/basis/aug-cc-pvqz-ri.gbs 
    atoms 3, 12                  entry N          line   258 file /home/liuchw/anaconda3/envs/psi4env/share/psi4/basis/aug-cc-pvqz-ri.gbs 
    atoms 4-5, 7-9, 13-14, 16-18 entry H          line    30 file /home/liuchw/anaconda3/envs/psi4env/share/psi4/basis/aug-cc-pvqz-ri.gbs 

	 --------------------------------------------------------
	                          DF-MP2                         
	      2nd-Order Density-Fitted Moller-Plesset Theory     
	              RMP2 Wavefunction,   6 Threads             
	                                                         
	        Rob Parrish, Justin Turney, Andy Simmonett,      
	           Ed Hohenstein, and C. David Sherrill          
	 --------------------------------------------------------

   => Auxiliary Basis Set <=

  Basis Set: (AUG-CC-PVQZ AUX)
    Blend: AUG-CC-PVQZ-RI
    Number of shells: 488
    Number of basis function: 2144
    Number of Cartesian functions: 2946
    Spherical Harmonics?: true
    Max angular momentum: 5

	 --------------------------------------------------------
	                 NBF =  1100, NAUX =  2144
	 --------------------------------------------------------
	   CLASS    FOCC     OCC    AOCC    AVIR     VIR    FVIR
	   PAIRS       0      32      32    1068    1068       0
	 --------------------------------------------------------

	-----------------------------------------------------------
	 ==================> DF-MP2 Energies <==================== 
	-----------------------------------------------------------
	 Reference Energy          =    -416.1688592073109021 [Eh]
	 Singles Energy            =      -0.0000000000000000 [Eh]
	 Same-Spin Energy          =      -0.4387922949506657 [Eh]
	 Opposite-Spin Energy      =      -1.4834797427611552 [Eh]
	 Correlation Energy        =      -1.9222720377118210 [Eh]
	 Total Energy              =    -418.0911312450227229 [Eh]
	-----------------------------------------------------------
	 ================> DF-SCS-MP2 Energies <================== 
	-----------------------------------------------------------
	 SCS Same-Spin Scale       =       0.3333333333333333 [-]
	 SCS Opposite-Spin Scale   =       1.2000000000000000 [-]
	 SCS Same-Spin Energy      =      -0.1462640983168886 [Eh]
	 SCS Opposite-Spin Energy  =      -1.7801756913133862 [Eh]
	 SCS Correlation Energy    =      -1.9264397896302747 [Eh]
	 SCS Total Energy          =    -418.0952989969411533 [Eh]
	-----------------------------------------------------------


*** tstop() called on g2-node38.bme.utexas.edu at Sat Apr 11 17:52:06 2020
Module time:
	user time   =     423.39 seconds =       7.06 minutes
	system time =      11.12 seconds =       0.19 minutes
	total time  =        104 seconds =       1.73 minutes
Total time:
	user time   =    4088.54 seconds =      68.14 minutes
	system time =     118.62 seconds =       1.98 minutes
	total time  =        851 seconds =      14.18 minutes

  //>>>>>>>>>>>>>>>>>>>>>>>>>>>>>>>>>>>//
  //  CBS Results: mp2/aug-cc-pv[tq]z  //
  //<<<<<<<<<<<<<<<<<<<<<<<<<<<<<<<<<<<//


   ==> HF <==

   HI-zeta (4) Energy:               -416.168859207311


   ==> Helgaker 2-point correlated extrapolation for method: MP2 <==

   LO-zeta (3) Energy:               -417.874834160379
   HI-zeta (4) Energy:               -418.091131245023
   Alpha (exponent) Value:             3.000000000000
   Extrapolated Energy:              -418.248969658141

   @Extrapolated MP2/(T,Q):          -418.248969658141



   ==> Helgaker 2-point correlated extrapolation for method: HF <==

   LO-zeta (3) Energy:               -416.142713500225
   HI-zeta (4) Energy:               -416.168859207311
   Alpha (exponent) Value:             3.000000000000
   Extrapolated Energy:              -416.187938507076

   @Extrapolated HF/(T,Q):           -416.187938507076


   ==> Components <==

  ---------------------------------------------------------------------------------------------------------
                          Method / Basis                      Rqd      Energy [Eh]   Variable
  ---------------------------------------------------------------------------------------------------------
                              hf / aug-cc-pvtz                  *    -416.14271350   HF TOTAL ENERGY
                             mp2 / aug-cc-pvtz                  *    -417.87483416   MP2 TOTAL ENERGY
                              hf / aug-cc-pvqz                  *    -416.16885921   HF TOTAL ENERGY
                             mp2 / aug-cc-pvqz                  *    -418.09113125   MP2 TOTAL ENERGY
  ---------------------------------------------------------------------------------------------------------

   ==> Stages <==

  ---------------------------------------------------------------------------------------------------------
      Stage               Method / Basis                       Wt      Energy [Eh]   Scheme
  ---------------------------------------------------------------------------------------------------------
        scf                   hf / aug-cc-pvqz                  1    -416.16885921   xtpl_highest_1
       corl                  mp2 / aug-cc-pv[tq]z               1    -418.24896966   corl_xtpl_helgaker_2
       corl                   hf / aug-cc-pv[tq]z              -1    -416.18793851   corl_xtpl_helgaker_2
  ---------------------------------------------------------------------------------------------------------

   ==> CBS <==

  ---------------------------------------------------------------------------------------------------------
      Stage               Method / Basis                               Energy [Eh]   Scheme
  ---------------------------------------------------------------------------------------------------------
        scf                   hf / aug-cc-pvqz                       -416.16885921   xtpl_highest_1
       corl                  mp2 / aug-cc-pv[tq]z                      -2.06103115   corl_xtpl_helgaker_2
      total                  CBS                                     -418.22989036   
  ---------------------------------------------------------------------------------------------------------
   => Loading Basis Set <=

    Name: DEF2-SVP
    Role: ORBITAL
    Keyword: BASIS
    atoms 1, 6, 10, 15           entry C          line    90 file /home/liuchw/anaconda3/envs/psi4env/share/psi4/basis/def2-svp.gbs 
    atoms 2, 11                  entry O          line   130 file /home/liuchw/anaconda3/envs/psi4env/share/psi4/basis/def2-svp.gbs 
    atoms 3, 12                  entry N          line   110 file /home/liuchw/anaconda3/envs/psi4env/share/psi4/basis/def2-svp.gbs 
    atoms 4-5, 7-9, 13-14, 16-18 entry H          line    15 file /home/liuchw/anaconda3/envs/psi4env/share/psi4/basis/def2-svp.gbs 


       N-Body: Complex Energy (fragments = (1, 2), basis = (1, 2):  -418.22989035837588)

   ==> N-Body: Counterpoise Corrected (CP) energies <==

   n-Body     Total Energy [Eh]       I.E. [kcal/mol]      Delta [kcal/mol]
        1     -418.204958333205        0.000000000000        0.000000000000
        2     -418.230759530203      -16.190495550923      -16.190495550923

   => Loading Basis Set <=

    Name: DEF2-SVP
    Role: ORBITAL
    Keyword: BASIS
    atoms 1, 6, 10, 15           entry C          line    90 file /home/liuchw/anaconda3/envs/psi4env/share/psi4/basis/def2-svp.gbs 
    atoms 2, 11                  entry O          line   130 file /home/liuchw/anaconda3/envs/psi4env/share/psi4/basis/def2-svp.gbs 
    atoms 3, 12                  entry N          line   110 file /home/liuchw/anaconda3/envs/psi4env/share/psi4/basis/def2-svp.gbs 
    atoms 4-5, 7-9, 13-14, 16-18 entry H          line    15 file /home/liuchw/anaconda3/envs/psi4env/share/psi4/basis/def2-svp.gbs 


    Psi4 stopped on: Saturday, 11 April 2020 05:52PM
    Psi4 wall time for execution: 0:14:12.11

*** Psi4 exiting successfully. Buy a developer a beer!
