
    -----------------------------------------------------------------------
          Psi4: An Open-Source Ab Initio Electronic Structure Package
                               Psi4 1.4a2.dev224 

                         Git: Rev {master} e453b16 


    R. M. Parrish, L. A. Burns, D. G. A. Smith, A. C. Simmonett,
    A. E. DePrince III, E. G. Hohenstein, U. Bozkaya, A. Yu. Sokolov,
    R. Di Remigio, R. M. Richard, J. F. Gonthier, A. M. James,
    H. R. McAlexander, A. Kumar, M. Saitow, X. Wang, B. P. Pritchard,
    P. Verma, H. F. Schaefer III, K. Patkowski, R. A. King, E. F. Valeev,
    F. A. Evangelista, J. M. Turney, T. D. Crawford, and C. D. Sherrill,
    J. Chem. Theory Comput. 13(7) pp 3185--3197 (2017).
    (doi: 10.1021/acs.jctc.7b00174)


                         Additional Contributions by
    P. Kraus, H. Kruse, M. H. Lechner, M. C. Schieber, R. A. Shaw,
    A. Alenaizan, R. Galvelis, Z. L. Glick, S. Lehtola, and J. P. Misiewicz

    -----------------------------------------------------------------------


    Psi4 started on: Saturday, 11 April 2020 05:33PM

    Process ID: 10673
    Host:       node37.bme.utexas.edu
    PSIDATADIR: /home/liuchw/anaconda3/envs/psi4env/share/psi4
    Memory:     500.0 MiB
    Threads:    6
    
  ==> Input File <==

--------------------------------------------------------------------------
#Generated by lconvert.py for cbs job

memory 40 GB

molecule  {
0 1
  C       -1.3097500     1.1801760    -0.0251700
  O       -0.7253000     2.1551480     0.4527130
  N       -0.6656210     0.0950550    -0.4919940
  H        0.3545830     0.0514480    -0.4593090
  H       -1.1836270    -0.6736000    -0.8707560
  C       -2.8167190     1.1559990    -0.1106060
  H       -3.2206290     1.2625410     0.8930820
  H       -3.2094280     0.2486340    -0.5619000
  H       -3.1431580     2.0165960    -0.6888930
--
0 1
  C        2.8867310     1.0661070     0.1410250
  O        2.3023090     0.0920870    -0.3387060
  N        2.2426430     2.1508500     0.6088710
  H        1.2225380     2.1952880     0.5745700
  H        2.7606670     2.9188120     0.9889920
  C        4.3937300     1.0903920     0.2262500
  H        4.7856010     1.9900410     0.6934340
  H        4.7972860     1.0028460    -0.7795300
  H        4.7215090     0.2198170     0.7884300
units angstrom
no_reorient
symmetry c1
}

set {
scf_type DF
mp2_type DF
e_convergence 7
reference rhf
}

energy('mp2/aug-cc-pv[tq]z', bsse_type='cp')
--------------------------------------------------------------------------

  Memory set to  37.253 GiB by Python driver.

Scratch directory: /scratch//


   ===> N-Body Interaction Abacus <===
        BSSE Treatment:                     cp
        Number of 1-body computations:     4
        Number of 2-body computations:     1

   ==> N-Body: Now computing 1-body complexes <==


       N-Body: Computing complex (1/4) with fragments (2,) in the basis of fragments (2,).


Scratch directory: /scratch//

  //>>>>>>>>>>>>>>>>>>>>>>>>>>>>>>>>>>>//
  //   CBS Setup: mp2/aug-cc-pv[tq]z   //
  //<<<<<<<<<<<<<<<<<<<<<<<<<<<<<<<<<<<//

    Naive listing of computations required.
             hf / aug-cc-pvqz              for  HF TOTAL ENERGY
            mp2 / aug-cc-pvtz              for  MP2 TOTAL ENERGY
            mp2 / aug-cc-pvqz              for  MP2 TOTAL ENERGY
             hf / aug-cc-pvtz              for  HF TOTAL ENERGY
             hf / aug-cc-pvqz              for  HF TOTAL ENERGY

    Enlightened listing of computations required.
            mp2 / aug-cc-pvtz              for  MP2 TOTAL ENERGY
            mp2 / aug-cc-pvqz              for  MP2 TOTAL ENERGY

    Full listing of computations to be obtained (required and bonus).
             hf / aug-cc-pvtz              for  HF TOTAL ENERGY
            mp2 / aug-cc-pvtz              for  MP2 TOTAL ENERGY
             hf / aug-cc-pvqz              for  HF TOTAL ENERGY
            mp2 / aug-cc-pvqz              for  MP2 TOTAL ENERGY

  //>>>>>>>>>>>>>>>>>>>>>>>>>>>>>>>>>>>>//
  // CBS Computation: MP2 / AUG-CC-PVTZ //
  //<<<<<<<<<<<<<<<<<<<<<<<<<<<<<<<<<<<<//


Scratch directory: /scratch//

*** tstart() called on node37.bme.utexas.edu
*** at Sat Apr 11 17:33:09 2020

   => Loading Basis Set <=

    Name: AUG-CC-PVTZ
    Role: ORBITAL
    Keyword: BASIS
    atoms 1, 6     entry C          line   239 file /home/liuchw/anaconda3/envs/psi4env/share/psi4/basis/aug-cc-pvtz.gbs 
    atoms 2        entry O          line   331 file /home/liuchw/anaconda3/envs/psi4env/share/psi4/basis/aug-cc-pvtz.gbs 
    atoms 3        entry N          line   285 file /home/liuchw/anaconda3/envs/psi4env/share/psi4/basis/aug-cc-pvtz.gbs 
    atoms 4-5, 7-9 entry H          line    40 file /home/liuchw/anaconda3/envs/psi4env/share/psi4/basis/aug-cc-pvtz.gbs 


         ---------------------------------------------------------
                                   SCF
               by Justin Turney, Rob Parrish, Andy Simmonett
                          and Daniel G. A. Smith
                              RHF Reference
                        6 Threads,  38146 MiB Core
         ---------------------------------------------------------

  ==> Geometry <==

    Molecular point group: c1
    Full point group: C1

    Geometry (in Angstrom), charge = 0, multiplicity = 1:

       Center              X                  Y                   Z               Mass       
    ------------   -----------------  -----------------  -----------------  -----------------
         C            2.098225065614    -0.057138213441     0.083257937200    12.000000000000
         O            1.513803065614    -1.031158213441    -0.396473062800    15.994914619570
         N            1.454137065614     1.027604786559     0.551103937200    14.003074004430
         H            0.434032065614     1.072042786559     0.516802937200     1.007825032230
         H            1.972161065614     1.795566786559     0.931224937200     1.007825032230
         C            3.605224065614    -0.032853213441     0.168482937200    12.000000000000
         H            3.997095065614     0.866795786559     0.635666937200     1.007825032230
         H            4.008780065614    -0.120399213441    -0.837297062800     1.007825032230
         H            3.933003065614    -0.903428213441     0.730662937200     1.007825032230

  Running in c1 symmetry.

  Rotational constants: A =      0.35801  B =      0.05118  C =      0.04515 [cm^-1]
  Rotational constants: A =  10732.90920  B =   1534.42191  C =   1353.64687 [MHz]
  Nuclear repulsion =  121.855641813620224

  Charge       = 0
  Multiplicity = 1
  Electrons    = 32
  Nalpha       = 16
  Nbeta        = 16

  ==> Algorithm <==

  SCF Algorithm Type is DF.
  DIIS enabled.
  MOM disabled.
  Fractional occupation disabled.
  Guess Type is SAD.
  Energy threshold   = 1.00e-07
  Density threshold  = 1.00e-08
  Integral threshold = 0.00e+00

  ==> Primary Basis <==

  Basis Set: AUG-CC-PVTZ
    Blend: AUG-CC-PVTZ
    Number of shells: 101
    Number of basis function: 299
    Number of Cartesian functions: 345
    Spherical Harmonics?: true
    Max angular momentum: 3

   => Loading Basis Set <=

    Name: (AUG-CC-PVTZ AUX)
    Role: JKFIT
    Keyword: DF_BASIS_SCF
    atoms 1, 6     entry C          line   162 file /home/liuchw/anaconda3/envs/psi4env/share/psi4/basis/aug-cc-pvtz-jkfit.gbs 
    atoms 2        entry O          line   286 file /home/liuchw/anaconda3/envs/psi4env/share/psi4/basis/aug-cc-pvtz-jkfit.gbs 
    atoms 3        entry N          line   224 file /home/liuchw/anaconda3/envs/psi4env/share/psi4/basis/aug-cc-pvtz-jkfit.gbs 
    atoms 4-5, 7-9 entry H          line    70 file /home/liuchw/anaconda3/envs/psi4env/share/psi4/basis/aug-cc-pvtz-jkfit.gbs 

  ==> Pre-Iterations <==

   -------------------------------------------------------
    Irrep   Nso     Nmo     Nalpha   Nbeta   Ndocc  Nsocc
   -------------------------------------------------------
     A        299     299       0       0       0       0
   -------------------------------------------------------
    Total     299     299      16      16      16       0
   -------------------------------------------------------

  ==> Integral Setup <==

  DFHelper Memory: AOs need 0.454 GiB; user supplied 27.940 GiB. Using in-core AOs.

  ==> MemDFJK: Density-Fitted J/K Matrices <==

    J tasked:                   Yes
    K tasked:                   Yes
    wK tasked:                   No
    OpenMP threads:               6
    Memory [MiB]:             28610
    Algorithm:                 Core
    Schwarz Cutoff:           1E-12
    Mask sparsity (%):       0.3691
    Fitting Condition:        1E-10

   => Auxiliary Basis Set <=

  Basis Set: (AUG-CC-PVTZ AUX)
    Blend: AUG-CC-PVTZ-JKFIT
    Number of shells: 190
    Number of basis function: 646
    Number of Cartesian functions: 799
    Spherical Harmonics?: true
    Max angular momentum: 4

  Minimum eigenvalue in the overlap matrix is 1.9171807410E-05.
  Using Symmetric Orthogonalization.

  SCF Guess: Superposition of Atomic Densities via on-the-fly atomic UHF.

  ==> Iterations <==

                           Total Energy        Delta E     RMS |[F,P]|

   @DF-RHF iter SAD:  -207.23354227943003   -2.07234e+02   0.00000e+00 
   @DF-RHF iter   1:  -207.88202896119788   -6.48487e-01   2.04724e-03 DIIS
   @DF-RHF iter   2:  -208.01548392670881   -1.33455e-01   1.20468e-03 DIIS
   @DF-RHF iter   3:  -208.05834880762438   -4.28649e-02   2.26004e-04 DIIS
   @DF-RHF iter   4:  -208.06081229037090   -2.46348e-03   9.29617e-05 DIIS
   @DF-RHF iter   5:  -208.06132320833510   -5.10918e-04   1.68590e-05 DIIS
   @DF-RHF iter   6:  -208.06135303320053   -2.98249e-05   7.92241e-06 DIIS
   @DF-RHF iter   7:  -208.06135838734653   -5.35415e-06   2.92942e-06 DIIS
   @DF-RHF iter   8:  -208.06135952607985   -1.13873e-06   9.76633e-07 DIIS
   @DF-RHF iter   9:  -208.06135967408039   -1.48001e-07   2.62964e-07 DIIS
   @DF-RHF iter  10:  -208.06135968236458   -8.28419e-09   8.61523e-08 DIIS
   @DF-RHF iter  11:  -208.06135968313995   -7.75373e-10   2.21955e-08 DIIS
   @DF-RHF iter  12:  -208.06135968318983   -4.98801e-11   4.53686e-09 DIIS
  Energy and wave function converged.


  ==> Post-Iterations <==

    Orbital Energies [Eh]
    ---------------------

    Doubly Occupied:                                                      

       1A    -20.511376     2A    -15.593456     3A    -11.352782  
       4A    -11.237601     5A     -1.369070     6A     -1.218843  
       7A     -1.005880     8A     -0.804971     9A     -0.730876  
      10A     -0.663357    11A     -0.615645    12A     -0.579288  
      13A     -0.564525    14A     -0.524476    15A     -0.421405  
      16A     -0.414142  

    Virtual:                                                              

      17A      0.021266    18A      0.035806    19A      0.044909  
      20A      0.049269    21A      0.060864    22A      0.085538  
      23A      0.104510    24A      0.105989    25A      0.118404  
      26A      0.121977    27A      0.132909    28A      0.141356  
      29A      0.150152    30A      0.153307    31A      0.163255  
      32A      0.170179    33A      0.176950    34A      0.213633  
      35A      0.231847    36A      0.234042    37A      0.242398  
      38A      0.259280    39A      0.261958    40A      0.270313  
      41A      0.293653    42A      0.294880    43A      0.310426  
      44A      0.316640    45A      0.339061    46A      0.342993  
      47A      0.343417    48A      0.356221    49A      0.362137  
      50A      0.362990    51A      0.377014    52A      0.388714  
      53A      0.394765    54A      0.412063    55A      0.414357  
      56A      0.423344    57A      0.436336    58A      0.440231  
      59A      0.456236    60A      0.466321    61A      0.475600  
      62A      0.500410    63A      0.501253    64A      0.523089  
      65A      0.525890    66A      0.531972    67A      0.556643  
      68A      0.566382    69A      0.574245    70A      0.596599  
      71A      0.627384    72A      0.637975    73A      0.640293  
      74A      0.647991    75A      0.708497    76A      0.728181  
      77A      0.736123    78A      0.762102    79A      0.770287  
      80A      0.783331    81A      0.808407    82A      0.827191  
      83A      0.830840    84A      0.838876    85A      0.845964  
      86A      0.871998    87A      0.877040    88A      0.879395  
      89A      0.897728    90A      0.903299    91A      0.923741  
      92A      0.935010    93A      0.956822    94A      0.959117  
      95A      0.979429    96A      1.008223    97A      1.011295  
      98A      1.023198    99A      1.024008   100A      1.026842  
     101A      1.056300   102A      1.058137   103A      1.071087  
     104A      1.077827   105A      1.086721   106A      1.099269  
     107A      1.103035   108A      1.125029   109A      1.125949  
     110A      1.143828   111A      1.180074   112A      1.191724  
     113A      1.195007   114A      1.214732   115A      1.234879  
     116A      1.238513   117A      1.256204   118A      1.277939  
     119A      1.280394   120A      1.309187   121A      1.325516  
     122A      1.336937   123A      1.348980   124A      1.358908  
     125A      1.398048   126A      1.416213   127A      1.441109  
     128A      1.454231   129A      1.463888   130A      1.492022  
     131A      1.506966   132A      1.510818   133A      1.547258  
     134A      1.575124   135A      1.585781   136A      1.604337  
     137A      1.607742   138A      1.630487   139A      1.670417  
     140A      1.693033   141A      1.695864   142A      1.717460  
     143A      1.733177   144A      1.778377   145A      1.786387  
     146A      1.840379   147A      1.855881   148A      1.858689  
     149A      1.870157   150A      1.890400   151A      1.902413  
     152A      1.945216   153A      1.980844   154A      2.034725  
     155A      2.047107   156A      2.080983   157A      2.103093  
     158A      2.117309   159A      2.143226   160A      2.164792  
     161A      2.196066   162A      2.207278   163A      2.237196  
     164A      2.254026   165A      2.275335   166A      2.307170  
     167A      2.333145   168A      2.373236   169A      2.396444  
     170A      2.434110   171A      2.451155   172A      2.499255  
     173A      2.517453   174A      2.519528   175A      2.600428  
     176A      2.605975   177A      2.623622   178A      2.637910  
     179A      2.695009   180A      2.701127   181A      2.758965  
     182A      2.769847   183A      2.820384   184A      2.923908  
     185A      2.955034   186A      2.967067   187A      3.011524  
     188A      3.049968   189A      3.128719   190A      3.196334  
     191A      3.228519   192A      3.315147   193A      3.367970  
     194A      3.414406   195A      3.477327   196A      3.488350  
     197A      3.543573   198A      3.545092   199A      3.594853  
     200A      3.622113   201A      3.669075   202A      3.680616  
     203A      3.736177   204A      3.775431   205A      3.789761  
     206A      3.833671   207A      3.851431   208A      3.874950  
     209A      3.902555   210A      3.927003   211A      3.945685  
     212A      3.961092   213A      3.980275   214A      4.022170  
     215A      4.067101   216A      4.100124   217A      4.115782  
     218A      4.144410   219A      4.214518   220A      4.231454  
     221A      4.238590   222A      4.246970   223A      4.300110  
     224A      4.305863   225A      4.318164   226A      4.388885  
     227A      4.395199   228A      4.422104   229A      4.453100  
     230A      4.472948   231A      4.479617   232A      4.495501  
     233A      4.566706   234A      4.663230   235A      4.690909  
     236A      4.704527   237A      4.719072   238A      4.781328  
     239A      4.818979   240A      4.823131   241A      4.852836  
     242A      4.864620   243A      4.885293   244A      4.950491  
     245A      4.978601   246A      5.002823   247A      5.065131  
     248A      5.070681   249A      5.147930   250A      5.159951  
     251A      5.186843   252A      5.246326   253A      5.258594  
     254A      5.335774   255A      5.340860   256A      5.342337  
     257A      5.440403   258A      5.492668   259A      5.539134  
     260A      5.558356   261A      5.589477   262A      5.624900  
     263A      5.628277   264A      5.742403   265A      5.774761  
     266A      5.800299   267A      5.901988   268A      5.944520  
     269A      6.074917   270A      6.104750   271A      6.119288  
     272A      6.138690   273A      6.219612   274A      6.256139  
     275A      6.304362   276A      6.341950   277A      6.557760  
     278A      6.647298   279A      6.711622   280A      6.762488  
     281A      6.773052   282A      6.782157   283A      7.000348  
     284A      7.028324   285A      7.080783   286A      7.184750  
     287A      7.356895   288A      7.413470   289A      7.444864  
     290A      7.585161   291A      7.676551   292A      7.743065  
     293A      7.814479   294A      7.905696   295A      7.977293  
     296A     15.394869   297A     16.525314   298A     17.960691  
     299A     19.422202  

    Final Occupation by Irrep:
              A 
    DOCC [    16 ]

  @DF-RHF Final Energy:  -208.06135968318983

   => Energetics <=

    Nuclear Repulsion Energy =            121.8556418136202240
    One-Electron Energy =                -524.6186148580414965
    Two-Electron Energy =                 194.7016133612314661
    Total Energy =                       -208.0613596831898349

Computation Completed


Properties will be evaluated at   0.000000,   0.000000,   0.000000 [a0]

Properties computed using the SCF density matrix

  Nuclear Dipole Moment: [e a0]
     X:   133.8968      Y:     2.1063      Z:     7.8867

  Electronic Dipole Moment: [e a0]
     X:  -133.3147      Y:    -0.6305      Z:    -7.1795

  Dipole Moment: [e a0]
     X:     0.5822      Y:     1.4758      Z:     0.7071     Total:     1.7370

  Dipole Moment: [D]
     X:     1.4797      Y:     3.7512      Z:     1.7973     Total:     4.4149


*** tstop() called on node37.bme.utexas.edu at Sat Apr 11 17:33:14 2020
Module time:
	user time   =      23.02 seconds =       0.38 minutes
	system time =       1.69 seconds =       0.03 minutes
	total time  =          5 seconds =       0.08 minutes
Total time:
	user time   =      23.02 seconds =       0.38 minutes
	system time =       1.69 seconds =       0.03 minutes
	total time  =          5 seconds =       0.08 minutes

*** tstart() called on node37.bme.utexas.edu
*** at Sat Apr 11 17:33:14 2020


  //>>>>>>>>>>>>>>>>>>>>>>>>>>>>>>>>>>>//
  //               DFMP2               //
  //<<<<<<<<<<<<<<<<<<<<<<<<<<<<<<<<<<<//

   => Loading Basis Set <=

    Name: (AUG-CC-PVTZ AUX)
    Role: RIFIT
    Keyword: DF_BASIS_MP2
    atoms 1, 6     entry C          line   148 file /home/liuchw/anaconda3/envs/psi4env/share/psi4/basis/aug-cc-pvtz-ri.gbs 
    atoms 2        entry O          line   264 file /home/liuchw/anaconda3/envs/psi4env/share/psi4/basis/aug-cc-pvtz-ri.gbs 
    atoms 3        entry N          line   206 file /home/liuchw/anaconda3/envs/psi4env/share/psi4/basis/aug-cc-pvtz-ri.gbs 
    atoms 4-5, 7-9 entry H          line    30 file /home/liuchw/anaconda3/envs/psi4env/share/psi4/basis/aug-cc-pvtz-ri.gbs 

	 --------------------------------------------------------
	                          DF-MP2                         
	      2nd-Order Density-Fitted Moller-Plesset Theory     
	              RMP2 Wavefunction,   6 Threads             
	                                                         
	        Rob Parrish, Justin Turney, Andy Simmonett,      
	           Ed Hohenstein, and C. David Sherrill          
	 --------------------------------------------------------

   => Auxiliary Basis Set <=

  Basis Set: (AUG-CC-PVTZ AUX)
    Blend: AUG-CC-PVTZ-RI
    Number of shells: 182
    Number of basis function: 654
    Number of Cartesian functions: 819
    Spherical Harmonics?: true
    Max angular momentum: 4

	 --------------------------------------------------------
	                 NBF =   299, NAUX =   654
	 --------------------------------------------------------
	   CLASS    FOCC     OCC    AOCC    AVIR     VIR    FVIR
	   PAIRS       0      16      16     283     283       0
	 --------------------------------------------------------

	-----------------------------------------------------------
	 ==================> DF-MP2 Energies <==================== 
	-----------------------------------------------------------
	 Reference Energy          =    -208.0613596831898349 [Eh]
	 Singles Energy            =      -0.0000000000000000 [Eh]
	 Same-Spin Energy          =      -0.2048388330510199 [Eh]
	 Opposite-Spin Energy      =      -0.6562922136093776 [Eh]
	 Correlation Energy        =      -0.8611310466603975 [Eh]
	 Total Energy              =    -208.9224907298502387 [Eh]
	-----------------------------------------------------------
	 ================> DF-SCS-MP2 Energies <================== 
	-----------------------------------------------------------
	 SCS Same-Spin Scale       =       0.3333333333333333 [-]
	 SCS Opposite-Spin Scale   =       1.2000000000000000 [-]
	 SCS Same-Spin Energy      =      -0.0682796110170066 [Eh]
	 SCS Opposite-Spin Energy  =      -0.7875506563312531 [Eh]
	 SCS Correlation Energy    =      -0.8558302673482597 [Eh]
	 SCS Total Energy          =    -208.9171899505381020 [Eh]
	-----------------------------------------------------------


*** tstop() called on node37.bme.utexas.edu at Sat Apr 11 17:33:16 2020
Module time:
	user time   =       9.35 seconds =       0.16 minutes
	system time =       1.34 seconds =       0.02 minutes
	total time  =          2 seconds =       0.03 minutes
Total time:
	user time   =      32.38 seconds =       0.54 minutes
	system time =       3.03 seconds =       0.05 minutes
	total time  =          7 seconds =       0.12 minutes

  //>>>>>>>>>>>>>>>>>>>>>>>>>>>>>>>>>>>>//
  // CBS Computation: MP2 / AUG-CC-PVQZ //
  //<<<<<<<<<<<<<<<<<<<<<<<<<<<<<<<<<<<<//


Scratch directory: /scratch//

*** tstart() called on node37.bme.utexas.edu
*** at Sat Apr 11 17:33:16 2020

   => Loading Basis Set <=

    Name: AUG-CC-PVQZ
    Role: ORBITAL
    Keyword: BASIS
    atoms 1, 6     entry C          line   303 file /home/liuchw/anaconda3/envs/psi4env/share/psi4/basis/aug-cc-pvqz.gbs 
    atoms 2        entry O          line   423 file /home/liuchw/anaconda3/envs/psi4env/share/psi4/basis/aug-cc-pvqz.gbs 
    atoms 3        entry N          line   363 file /home/liuchw/anaconda3/envs/psi4env/share/psi4/basis/aug-cc-pvqz.gbs 
    atoms 4-5, 7-9 entry H          line    40 file /home/liuchw/anaconda3/envs/psi4env/share/psi4/basis/aug-cc-pvqz.gbs 


         ---------------------------------------------------------
                                   SCF
               by Justin Turney, Rob Parrish, Andy Simmonett
                          and Daniel G. A. Smith
                              RHF Reference
                        6 Threads,  38146 MiB Core
         ---------------------------------------------------------

  ==> Geometry <==

    Molecular point group: c1
    Full point group: C1

    Geometry (in Angstrom), charge = 0, multiplicity = 1:

       Center              X                  Y                   Z               Mass       
    ------------   -----------------  -----------------  -----------------  -----------------
         C            2.098225065614    -0.057138213441     0.083257937200    12.000000000000
         O            1.513803065614    -1.031158213441    -0.396473062800    15.994914619570
         N            1.454137065614     1.027604786559     0.551103937200    14.003074004430
         H            0.434032065614     1.072042786559     0.516802937200     1.007825032230
         H            1.972161065614     1.795566786559     0.931224937200     1.007825032230
         C            3.605224065614    -0.032853213441     0.168482937200    12.000000000000
         H            3.997095065614     0.866795786559     0.635666937200     1.007825032230
         H            4.008780065614    -0.120399213441    -0.837297062800     1.007825032230
         H            3.933003065614    -0.903428213441     0.730662937200     1.007825032230

  Running in c1 symmetry.

  Rotational constants: A =      0.35801  B =      0.05118  C =      0.04515 [cm^-1]
  Rotational constants: A =  10732.90920  B =   1534.42191  C =   1353.64687 [MHz]
  Nuclear repulsion =  121.855641813620224

  Charge       = 0
  Multiplicity = 1
  Electrons    = 32
  Nalpha       = 16
  Nbeta        = 16

  ==> Algorithm <==

  SCF Algorithm Type is DF.
  DIIS enabled.
  MOM disabled.
  Fractional occupation disabled.
  Guess Type is SAD.
  Energy threshold   = 1.00e-07
  Density threshold  = 1.00e-08
  Integral threshold = 0.00e+00

  ==> Primary Basis <==

  Basis Set: AUG-CC-PVQZ
    Blend: AUG-CC-PVQZ
    Number of shells: 150
    Number of basis function: 550
    Number of Cartesian functions: 695
    Spherical Harmonics?: true
    Max angular momentum: 4

   => Loading Basis Set <=

    Name: (AUG-CC-PVQZ AUX)
    Role: JKFIT
    Keyword: DF_BASIS_SCF
    atoms 1, 6     entry C          line   178 file /home/liuchw/anaconda3/envs/psi4env/share/psi4/basis/aug-cc-pvqz-jkfit.gbs 
    atoms 2        entry O          line   318 file /home/liuchw/anaconda3/envs/psi4env/share/psi4/basis/aug-cc-pvqz-jkfit.gbs 
    atoms 3        entry N          line   248 file /home/liuchw/anaconda3/envs/psi4env/share/psi4/basis/aug-cc-pvqz-jkfit.gbs 
    atoms 4-5, 7-9 entry H          line    70 file /home/liuchw/anaconda3/envs/psi4env/share/psi4/basis/aug-cc-pvqz-jkfit.gbs 

  ==> Pre-Iterations <==

   -------------------------------------------------------
    Irrep   Nso     Nmo     Nalpha   Nbeta   Ndocc  Nsocc
   -------------------------------------------------------
     A        550     550       0       0       0       0
   -------------------------------------------------------
    Total     550     550      16      16      16       0
   -------------------------------------------------------

  ==> Integral Setup <==

  DFHelper Memory: AOs need 2.193 GiB; user supplied 27.940 GiB. Using in-core AOs.

  ==> MemDFJK: Density-Fitted J/K Matrices <==

    J tasked:                   Yes
    K tasked:                   Yes
    wK tasked:                   No
    OpenMP threads:               6
    Memory [MiB]:             28610
    Algorithm:                 Core
    Schwarz Cutoff:           1E-12
    Mask sparsity (%):       1.7931
    Fitting Condition:        1E-10

   => Auxiliary Basis Set <=

  Basis Set: (AUG-CC-PVQZ AUX)
    Blend: AUG-CC-PVQZ-JKFIT
    Number of shells: 226
    Number of basis function: 948
    Number of Cartesian functions: 1297
    Spherical Harmonics?: true
    Max angular momentum: 5

  Minimum eigenvalue in the overlap matrix is 4.1199058247E-06.
  Using Symmetric Orthogonalization.

  SCF Guess: Superposition of Atomic Densities via on-the-fly atomic UHF.

  ==> Iterations <==

                           Total Energy        Delta E     RMS |[F,P]|

   @DF-RHF iter SAD:  -207.24652999869321   -2.07247e+02   0.00000e+00 
   @DF-RHF iter   1:  -207.89466580747535   -6.48136e-01   1.11524e-03 DIIS
   @DF-RHF iter   2:  -208.02842520037771   -1.33759e-01   6.57351e-04 DIIS
   @DF-RHF iter   3:  -208.07147355836241   -4.30484e-02   1.23277e-04 DIIS
   @DF-RHF iter   4:  -208.07394518647146   -2.47163e-03   5.08619e-05 DIIS
   @DF-RHF iter   5:  -208.07445971169085   -5.14525e-04   9.28144e-06 DIIS
   @DF-RHF iter   6:  -208.07449001960768   -3.03079e-05   4.33959e-06 DIIS
   @DF-RHF iter   7:  -208.07449544061558   -5.42101e-06   1.61459e-06 DIIS
   @DF-RHF iter   8:  -208.07449659547126   -1.15486e-06   5.47454e-07 DIIS
   @DF-RHF iter   9:  -208.07449675120850   -1.55737e-07   1.48208e-07 DIIS
   @DF-RHF iter  10:  -208.07449676019885   -8.99036e-09   4.83912e-08 DIIS
   @DF-RHF iter  11:  -208.07449676101069   -8.11838e-10   1.26984e-08 DIIS
   @DF-RHF iter  12:  -208.07449676106438   -5.36886e-11   2.55339e-09 DIIS
  Energy and wave function converged.


  ==> Post-Iterations <==

    Orbital Energies [Eh]
    ---------------------

    Doubly Occupied:                                                      

       1A    -20.508663     2A    -15.591555     3A    -11.351639  
       4A    -11.236568     5A     -1.368267     6A     -1.218348  
       7A     -1.005679     8A     -0.804858     9A     -0.730930  
      10A     -0.663377    11A     -0.615756    12A     -0.579347  
      13A     -0.564672    14A     -0.524630    15A     -0.421535  
      16A     -0.414286  

    Virtual:                                                              

      17A      0.018482    18A      0.031790    19A      0.040383  
      20A      0.044391    21A      0.055420    22A      0.072984  
      23A      0.087545    24A      0.091519    25A      0.099929  
      26A      0.106038    27A      0.115588    28A      0.122357  
      29A      0.129349    30A      0.131695    31A      0.142496  
      32A      0.157429    33A      0.158387    34A      0.182807  
      35A      0.194111    36A      0.202249    37A      0.203340  
      38A      0.217908    39A      0.222919    40A      0.232697  
      41A      0.244625    42A      0.250343    43A      0.263178  
      44A      0.264742    45A      0.280268    46A      0.281537  
      47A      0.288115    48A      0.294765    49A      0.297863  
      50A      0.305996    51A      0.314240    52A      0.315304  
      53A      0.322921    54A      0.327527    55A      0.333767  
      56A      0.350952    57A      0.355878    58A      0.364157  
      59A      0.380343    60A      0.386352    61A      0.391438  
      62A      0.397532    63A      0.405474    64A      0.416259  
      65A      0.418284    66A      0.433875    67A      0.452245  
      68A      0.456458    69A      0.478562    70A      0.486113  
      71A      0.503229    72A      0.507210    73A      0.520095  
      74A      0.545376    75A      0.552322    76A      0.570727  
      77A      0.585455    78A      0.592957    79A      0.598154  
      80A      0.609573    81A      0.621389    82A      0.630274  
      83A      0.638739    84A      0.660691    85A      0.671142  
      86A      0.673028    87A      0.677236    88A      0.687742  
      89A      0.693219    90A      0.703979    91A      0.709642  
      92A      0.721718    93A      0.728502    94A      0.735321  
      95A      0.740520    96A      0.748547    97A      0.753482  
      98A      0.760676    99A      0.772055   100A      0.787255  
     101A      0.798902   102A      0.802660   103A      0.808181  
     104A      0.811552   105A      0.830655   106A      0.834282  
     107A      0.846640   108A      0.861274   109A      0.861722  
     110A      0.875661   111A      0.881827   112A      0.896200  
     113A      0.920771   114A      0.924333   115A      0.932698  
     116A      0.948490   117A      0.968015   118A      0.984612  
     119A      0.995047   120A      0.997967   121A      1.004180  
     122A      1.016005   123A      1.028043   124A      1.033220  
     125A      1.049340   126A      1.050591   127A      1.058638  
     128A      1.090086   129A      1.094211   130A      1.105920  
     131A      1.123255   132A      1.134837   133A      1.148736  
     134A      1.168126   135A      1.176904   136A      1.191797  
     137A      1.198851   138A      1.216125   139A      1.227668  
     140A      1.235532   141A      1.252524   142A      1.268699  
     143A      1.285238   144A      1.294569   145A      1.345432  
     146A      1.350877   147A      1.364819   148A      1.400254  
     149A      1.412177   150A      1.419154   151A      1.440078  
     152A      1.451165   153A      1.471413   154A      1.480796  
     155A      1.489129   156A      1.498833   157A      1.529717  
     158A      1.552956   159A      1.559740   160A      1.562338  
     161A      1.584918   162A      1.598944   163A      1.602352  
     164A      1.608196   165A      1.630255   166A      1.664746  
     167A      1.673781   168A      1.691101   169A      1.698776  
     170A      1.707810   171A      1.718562   172A      1.728165  
     173A      1.741300   174A      1.751269   175A      1.759610  
     176A      1.770134   177A      1.813533   178A      1.824383  
     179A      1.830585   180A      1.845854   181A      1.852747  
     182A      1.858841   183A      1.878680   184A      1.889470  
     185A      1.895561   186A      1.911463   187A      1.927940  
     188A      1.932895   189A      1.946754   190A      1.964931  
     191A      1.970479   192A      1.973776   193A      1.979343  
     194A      2.012172   195A      2.026693   196A      2.036224  
     197A      2.045399   198A      2.049241   199A      2.075311  
     200A      2.079008   201A      2.088593   202A      2.100981  
     203A      2.109471   204A      2.137462   205A      2.139090  
     206A      2.143969   207A      2.154514   208A      2.172133  
     209A      2.177955   210A      2.182942   211A      2.187409  
     212A      2.206614   213A      2.229907   214A      2.248429  
     215A      2.252338   216A      2.273341   217A      2.279544  
     218A      2.283267   219A      2.292070   220A      2.309891  
     221A      2.327420   222A      2.350086   223A      2.364921  
     224A      2.365179   225A      2.401247   226A      2.407571  
     227A      2.428913   228A      2.444961   229A      2.447404  
     230A      2.502885   231A      2.518202   232A      2.525527  
     233A      2.545418   234A      2.598778   235A      2.612494  
     236A      2.626036   237A      2.641317   238A      2.649941  
     239A      2.660289   240A      2.688418   241A      2.721250  
     242A      2.729581   243A      2.784912   244A      2.810986  
     245A      2.816112   246A      2.834496   247A      2.845311  
     248A      2.850913   249A      2.861915   250A      2.884956  
     251A      2.899658   252A      2.921382   253A      2.925715  
     254A      2.939540   255A      2.966487   256A      2.967573  
     257A      2.981442   258A      3.012724   259A      3.029835  
     260A      3.035682   261A      3.058673   262A      3.077856  
     263A      3.114457   264A      3.140365   265A      3.150668  
     266A      3.156141   267A      3.191320   268A      3.198081  
     269A      3.227463   270A      3.235601   271A      3.242163  
     272A      3.273548   273A      3.279206   274A      3.282835  
     275A      3.323780   276A      3.339422   277A      3.349179  
     278A      3.422021   279A      3.428416   280A      3.434113  
     281A      3.462488   282A      3.492339   283A      3.543585  
     284A      3.552021   285A      3.573819   286A      3.602729  
     287A      3.626622   288A      3.678419   289A      3.692204  
     290A      3.708079   291A      3.726204   292A      3.743880  
     293A      3.763614   294A      3.773686   295A      3.844086  
     296A      3.879178   297A      3.909567   298A      3.916154  
     299A      3.960347   300A      3.964989   301A      3.984668  
     302A      4.015437   303A      4.023043   304A      4.052944  
     305A      4.056757   306A      4.070432   307A      4.090352  
     308A      4.092223   309A      4.124487   310A      4.142072  
     311A      4.151345   312A      4.164222   313A      4.167913  
     314A      4.215264   315A      4.227982   316A      4.243515  
     317A      4.269796   318A      4.284651   319A      4.308513  
     320A      4.331122   321A      4.353264   322A      4.390758  
     323A      4.414350   324A      4.418640   325A      4.445527  
     326A      4.459050   327A      4.470498   328A      4.531246  
     329A      4.537208   330A      4.556956   331A      4.565429  
     332A      4.581850   333A      4.646527   334A      4.656159  
     335A      4.670818   336A      4.701304   337A      4.711662  
     338A      4.728472   339A      4.777284   340A      4.803335  
     341A      4.830945   342A      4.847340   343A      4.898130  
     344A      4.945103   345A      4.949557   346A      4.986597  
     347A      5.017055   348A      5.050217   349A      5.069356  
     350A      5.106553   351A      5.140048   352A      5.190893  
     353A      5.197666   354A      5.278472   355A      5.350773  
     356A      5.359455   357A      5.447731   358A      5.502128  
     359A      5.544522   360A      5.583815   361A      5.635038  
     362A      5.667656   363A      5.712622   364A      5.786047  
     365A      5.789473   366A      5.839061   367A      6.005467  
     368A      6.114382   369A      6.131326   370A      6.204587  
     371A      6.215274   372A      6.241335   373A      6.275826  
     374A      6.350509   375A      6.370780   376A      6.436284  
     377A      6.509627   378A      6.543804   379A      6.595467  
     380A      6.654341   381A      6.662447   382A      6.670383  
     383A      6.686784   384A      6.777265   385A      6.805565  
     386A      6.829874   387A      6.839555   388A      6.851704  
     389A      6.899472   390A      6.905322   391A      6.935713  
     392A      6.949549   393A      6.995353   394A      7.002085  
     395A      7.066129   396A      7.109356   397A      7.132565  
     398A      7.140341   399A      7.163467   400A      7.189554  
     401A      7.212248   402A      7.274678   403A      7.282482  
     404A      7.300436   405A      7.323723   406A      7.336158  
     407A      7.387090   408A      7.439299   409A      7.475496  
     410A      7.493921   411A      7.521961   412A      7.577771  
     413A      7.628873   414A      7.652818   415A      7.684665  
     416A      7.713024   417A      7.763492   418A      7.778032  
     419A      7.793573   420A      7.819201   421A      7.838199  
     422A      7.901936   423A      7.921181   424A      7.982486  
     425A      7.991427   426A      8.005298   427A      8.076505  
     428A      8.078659   429A      8.101646   430A      8.148360  
     431A      8.199838   432A      8.210982   433A      8.325514  
     434A      8.370399   435A      8.380147   436A      8.456263  
     437A      8.472126   438A      8.508411   439A      8.577368  
     440A      8.592863   441A      8.607237   442A      8.621575  
     443A      8.658787   444A      8.676027   445A      8.688173  
     446A      8.716929   447A      8.719939   448A      8.775384  
     449A      8.813464   450A      8.845729   451A      8.871419  
     452A      8.885817   453A      8.940138   454A      9.012988  
     455A      9.046238   456A      9.080827   457A      9.121246  
     458A      9.148758   459A      9.156685   460A      9.186172  
     461A      9.225711   462A      9.266165   463A      9.279986  
     464A      9.317249   465A      9.321243   466A      9.348642  
     467A      9.436854   468A      9.476615   469A      9.485314  
     470A      9.545519   471A      9.614519   472A      9.623128  
     473A      9.639366   474A      9.672677   475A      9.729699  
     476A      9.743991   477A      9.756227   478A      9.807631  
     479A      9.864169   480A      9.871720   481A      9.951786  
     482A      9.994358   483A     10.019902   484A     10.045203  
     485A     10.087049   486A     10.102453   487A     10.116234  
     488A     10.173998   489A     10.218031   490A     10.247355  
     491A     10.251874   492A     10.320708   493A     10.376780  
     494A     10.423538   495A     10.506750   496A     10.570537  
     497A     10.573744   498A     10.631719   499A     10.668893  
     500A     10.822751   501A     10.867555   502A     10.896019  
     503A     10.928946   504A     11.001811   505A     11.060367  
     506A     11.068080   507A     11.107797   508A     11.181970  
     509A     11.219407   510A     11.281984   511A     11.370422  
     512A     11.400823   513A     11.458833   514A     11.465302  
     515A     11.543689   516A     11.582571   517A     11.691141  
     518A     11.712409   519A     11.875621   520A     11.923058  
     521A     12.030136   522A     12.094744   523A     12.190825  
     524A     12.266196   525A     12.308521   526A     12.314208  
     527A     12.423991   528A     12.579422   529A     12.801749  
     530A     12.840212   531A     12.948678   532A     12.983649  
     533A     13.178452   534A     13.288925   535A     13.348189  
     536A     13.415467   537A     13.432041   538A     13.472944  
     539A     13.658555   540A     13.793437   541A     14.051950  
     542A     14.112610   543A     14.706541   544A     14.911776  
     545A     15.054735   546A     15.289811   547A     26.491092  
     548A     29.175647   549A     35.660218   550A     44.166603  

    Final Occupation by Irrep:
              A 
    DOCC [    16 ]

  @DF-RHF Final Energy:  -208.07449676106438

   => Energetics <=

    Nuclear Repulsion Energy =            121.8556418136202240
    One-Electron Energy =                -524.6600613345141255
    Two-Electron Energy =                 194.7299227598295488
    Total Energy =                       -208.0744967610643812

Computation Completed


Properties will be evaluated at   0.000000,   0.000000,   0.000000 [a0]

Properties computed using the SCF density matrix

  Nuclear Dipole Moment: [e a0]
     X:   133.8968      Y:     2.1063      Z:     7.8867

  Electronic Dipole Moment: [e a0]
     X:  -133.3153      Y:    -0.6313      Z:    -7.1800

  Dipole Moment: [e a0]
     X:     0.5816      Y:     1.4750      Z:     0.7067     Total:     1.7358

  Dipole Moment: [D]
     X:     1.4782      Y:     3.7490      Z:     1.7962     Total:     4.4121


*** tstop() called on node37.bme.utexas.edu at Sat Apr 11 17:33:35 2020
Module time:
	user time   =      88.26 seconds =       1.47 minutes
	system time =       6.55 seconds =       0.11 minutes
	total time  =         19 seconds =       0.32 minutes
Total time:
	user time   =     120.68 seconds =       2.01 minutes
	system time =       9.59 seconds =       0.16 minutes
	total time  =         26 seconds =       0.43 minutes

*** tstart() called on node37.bme.utexas.edu
*** at Sat Apr 11 17:33:35 2020


  //>>>>>>>>>>>>>>>>>>>>>>>>>>>>>>>>>>>//
  //               DFMP2               //
  //<<<<<<<<<<<<<<<<<<<<<<<<<<<<<<<<<<<//

   => Loading Basis Set <=

    Name: (AUG-CC-PVQZ AUX)
    Role: RIFIT
    Keyword: DF_BASIS_MP2
    atoms 1, 6     entry C          line   184 file /home/liuchw/anaconda3/envs/psi4env/share/psi4/basis/aug-cc-pvqz-ri.gbs 
    atoms 2        entry O          line   332 file /home/liuchw/anaconda3/envs/psi4env/share/psi4/basis/aug-cc-pvqz-ri.gbs 
    atoms 3        entry N          line   258 file /home/liuchw/anaconda3/envs/psi4env/share/psi4/basis/aug-cc-pvqz-ri.gbs 
    atoms 4-5, 7-9 entry H          line    30 file /home/liuchw/anaconda3/envs/psi4env/share/psi4/basis/aug-cc-pvqz-ri.gbs 

	 --------------------------------------------------------
	                          DF-MP2                         
	      2nd-Order Density-Fitted Moller-Plesset Theory     
	              RMP2 Wavefunction,   6 Threads             
	                                                         
	        Rob Parrish, Justin Turney, Andy Simmonett,      
	           Ed Hohenstein, and C. David Sherrill          
	 --------------------------------------------------------

   => Auxiliary Basis Set <=

  Basis Set: (AUG-CC-PVQZ AUX)
    Blend: AUG-CC-PVQZ-RI
    Number of shells: 244
    Number of basis function: 1072
    Number of Cartesian functions: 1473
    Spherical Harmonics?: true
    Max angular momentum: 5

	 --------------------------------------------------------
	                 NBF =   550, NAUX =  1072
	 --------------------------------------------------------
	   CLASS    FOCC     OCC    AOCC    AVIR     VIR    FVIR
	   PAIRS       0      16      16     534     534       0
	 --------------------------------------------------------

	-----------------------------------------------------------
	 ==================> DF-MP2 Energies <==================== 
	-----------------------------------------------------------
	 Reference Energy          =    -208.0744967610643812 [Eh]
	 Singles Energy            =      -0.0000000000000000 [Eh]
	 Same-Spin Energy          =      -0.2173717262408256 [Eh]
	 Opposite-Spin Energy      =      -0.7402211514308358 [Eh]
	 Correlation Energy        =      -0.9575928776716613 [Eh]
	 Total Energy              =    -209.0320896387360392 [Eh]
	-----------------------------------------------------------
	 ================> DF-SCS-MP2 Energies <================== 
	-----------------------------------------------------------
	 SCS Same-Spin Scale       =       0.3333333333333333 [-]
	 SCS Opposite-Spin Scale   =       1.2000000000000000 [-]
	 SCS Same-Spin Energy      =      -0.0724572420802752 [Eh]
	 SCS Opposite-Spin Energy  =      -0.8882653817170029 [Eh]
	 SCS Correlation Energy    =      -0.9607226237972780 [Eh]
	 SCS Total Energy          =    -209.0352193848616480 [Eh]
	-----------------------------------------------------------


*** tstop() called on node37.bme.utexas.edu at Sat Apr 11 17:33:44 2020
Module time:
	user time   =      36.09 seconds =       0.60 minutes
	system time =       2.63 seconds =       0.04 minutes
	total time  =          9 seconds =       0.15 minutes
Total time:
	user time   =     156.78 seconds =       2.61 minutes
	system time =      12.22 seconds =       0.20 minutes
	total time  =         35 seconds =       0.58 minutes

  //>>>>>>>>>>>>>>>>>>>>>>>>>>>>>>>>>>>//
  //  CBS Results: mp2/aug-cc-pv[tq]z  //
  //<<<<<<<<<<<<<<<<<<<<<<<<<<<<<<<<<<<//


   ==> HF <==

   HI-zeta (4) Energy:               -208.074496761064


   ==> Helgaker 2-point correlated extrapolation for method: MP2 <==

   LO-zeta (3) Energy:               -208.922490729850
   HI-zeta (4) Energy:               -209.032089638736
   Alpha (exponent) Value:             3.000000000000
   Extrapolated Energy:              -209.112067220896

   @Extrapolated MP2/(T,Q):          -209.112067220896



   ==> Helgaker 2-point correlated extrapolation for method: HF <==

   LO-zeta (3) Energy:               -208.061359683190
   HI-zeta (4) Energy:               -208.074496761064
   Alpha (exponent) Value:             3.000000000000
   Extrapolated Energy:              -208.084083277351

   @Extrapolated HF/(T,Q):           -208.084083277351


   ==> Components <==

  ---------------------------------------------------------------------------------------------------------
                          Method / Basis                      Rqd      Energy [Eh]   Variable
  ---------------------------------------------------------------------------------------------------------
                              hf / aug-cc-pvtz                  *    -208.06135968   HF TOTAL ENERGY
                             mp2 / aug-cc-pvtz                  *    -208.92249073   MP2 TOTAL ENERGY
                              hf / aug-cc-pvqz                  *    -208.07449676   HF TOTAL ENERGY
                             mp2 / aug-cc-pvqz                  *    -209.03208964   MP2 TOTAL ENERGY
  ---------------------------------------------------------------------------------------------------------

   ==> Stages <==

  ---------------------------------------------------------------------------------------------------------
      Stage               Method / Basis                       Wt      Energy [Eh]   Scheme
  ---------------------------------------------------------------------------------------------------------
        scf                   hf / aug-cc-pvqz                  1    -208.07449676   xtpl_highest_1
       corl                  mp2 / aug-cc-pv[tq]z               1    -209.11206722   corl_xtpl_helgaker_2
       corl                   hf / aug-cc-pv[tq]z              -1    -208.08408328   corl_xtpl_helgaker_2
  ---------------------------------------------------------------------------------------------------------

   ==> CBS <==

  ---------------------------------------------------------------------------------------------------------
      Stage               Method / Basis                               Energy [Eh]   Scheme
  ---------------------------------------------------------------------------------------------------------
        scf                   hf / aug-cc-pvqz                       -208.07449676   xtpl_highest_1
       corl                  mp2 / aug-cc-pv[tq]z                      -1.02798394   corl_xtpl_helgaker_2
      total                  CBS                                     -209.10248070   
  ---------------------------------------------------------------------------------------------------------
   => Loading Basis Set <=

    Name: DEF2-SVP
    Role: ORBITAL
    Keyword: BASIS
    atoms 1, 6     entry C          line    90 file /home/liuchw/anaconda3/envs/psi4env/share/psi4/basis/def2-svp.gbs 
    atoms 2        entry O          line   130 file /home/liuchw/anaconda3/envs/psi4env/share/psi4/basis/def2-svp.gbs 
    atoms 3        entry N          line   110 file /home/liuchw/anaconda3/envs/psi4env/share/psi4/basis/def2-svp.gbs 
    atoms 4-5, 7-9 entry H          line    15 file /home/liuchw/anaconda3/envs/psi4env/share/psi4/basis/def2-svp.gbs 


       N-Body: Complex Energy (fragments = (2,), basis = (2,):  -209.10248070460918)

       N-Body: Computing complex (2/4) with fragments (2,) in the basis of fragments (1, 2).


Scratch directory: /scratch//

  //>>>>>>>>>>>>>>>>>>>>>>>>>>>>>>>>>>>//
  //   CBS Setup: mp2/aug-cc-pv[tq]z   //
  //<<<<<<<<<<<<<<<<<<<<<<<<<<<<<<<<<<<//

    Naive listing of computations required.
             hf / aug-cc-pvqz              for  HF TOTAL ENERGY
            mp2 / aug-cc-pvtz              for  MP2 TOTAL ENERGY
            mp2 / aug-cc-pvqz              for  MP2 TOTAL ENERGY
             hf / aug-cc-pvtz              for  HF TOTAL ENERGY
             hf / aug-cc-pvqz              for  HF TOTAL ENERGY

    Enlightened listing of computations required.
            mp2 / aug-cc-pvtz              for  MP2 TOTAL ENERGY
            mp2 / aug-cc-pvqz              for  MP2 TOTAL ENERGY

    Full listing of computations to be obtained (required and bonus).
             hf / aug-cc-pvtz              for  HF TOTAL ENERGY
            mp2 / aug-cc-pvtz              for  MP2 TOTAL ENERGY
             hf / aug-cc-pvqz              for  HF TOTAL ENERGY
            mp2 / aug-cc-pvqz              for  MP2 TOTAL ENERGY

  //>>>>>>>>>>>>>>>>>>>>>>>>>>>>>>>>>>>>//
  // CBS Computation: MP2 / AUG-CC-PVTZ //
  //<<<<<<<<<<<<<<<<<<<<<<<<<<<<<<<<<<<<//


Scratch directory: /scratch//

*** tstart() called on node37.bme.utexas.edu
*** at Sat Apr 11 17:33:45 2020

   => Loading Basis Set <=

    Name: AUG-CC-PVTZ
    Role: ORBITAL
    Keyword: BASIS
    atoms 1, 6, 10, 15           entry C          line   239 file /home/liuchw/anaconda3/envs/psi4env/share/psi4/basis/aug-cc-pvtz.gbs 
    atoms 2, 11                  entry O          line   331 file /home/liuchw/anaconda3/envs/psi4env/share/psi4/basis/aug-cc-pvtz.gbs 
    atoms 3, 12                  entry N          line   285 file /home/liuchw/anaconda3/envs/psi4env/share/psi4/basis/aug-cc-pvtz.gbs 
    atoms 4-5, 7-9, 13-14, 16-18 entry H          line    40 file /home/liuchw/anaconda3/envs/psi4env/share/psi4/basis/aug-cc-pvtz.gbs 


         ---------------------------------------------------------
                                   SCF
               by Justin Turney, Rob Parrish, Andy Simmonett
                          and Daniel G. A. Smith
                              RHF Reference
                        6 Threads,  38146 MiB Core
         ---------------------------------------------------------

  ==> Geometry <==

    Molecular point group: c1
    Full point group: C1

    Geometry (in Angstrom), charge = 0, multiplicity = 1:

       Center              X                  Y                   Z               Mass       
    ------------   -----------------  -----------------  -----------------  -----------------
      Gh(C)          -2.098255934386     0.056930786559    -0.082937062800    12.000000000000
      Gh(O)          -1.513805934386     1.031902786559     0.394945937200    15.994914619570
      Gh(N)          -1.454126934386    -1.028190213441    -0.549761062800    14.003074004430
      Gh(H)          -0.433922934386    -1.071797213441    -0.517076062800     1.007825032230
      Gh(H)          -1.972132934386    -1.796845213441    -0.928523062800     1.007825032230
      Gh(C)          -3.605224934386     0.032753786559    -0.168373062800    12.000000000000
      Gh(H)          -4.009134934386     0.139295786559     0.835314937200     1.007825032230
      Gh(H)          -3.997933934386    -0.874611213441    -0.619667062800     1.007825032230
      Gh(H)          -3.931663934386     0.893350786559    -0.746660062800     1.007825032230
         C            2.098225065614    -0.057138213441     0.083257937200    12.000000000000
         O            1.513803065614    -1.031158213441    -0.396473062800    15.994914619570
         N            1.454137065614     1.027604786559     0.551103937200    14.003074004430
         H            0.434032065614     1.072042786559     0.516802937200     1.007825032230
         H            1.972161065614     1.795566786559     0.931224937200     1.007825032230
         C            3.605224065614    -0.032853213441     0.168482937200    12.000000000000
         H            3.997095065614     0.866795786559     0.635666937200     1.007825032230
         H            4.008780065614    -0.120399213441    -0.837297062800     1.007825032230
         H            3.933003065614    -0.903428213441     0.730662937200     1.007825032230

  Running in c1 symmetry.

  Rotational constants: A =      0.17901  B =      0.02559  C =      0.02258 [cm^-1]
  Rotational constants: A =   5366.44051  B =    767.21118  C =    676.82336 [MHz]
  Nuclear repulsion =  121.855641813620224

  Charge       = 0
  Multiplicity = 1
  Electrons    = 32
  Nalpha       = 16
  Nbeta        = 16

  ==> Algorithm <==

  SCF Algorithm Type is DF.
  DIIS enabled.
  MOM disabled.
  Fractional occupation disabled.
  Guess Type is SAD.
  Energy threshold   = 1.00e-07
  Density threshold  = 1.00e-08
  Integral threshold = 0.00e+00

  ==> Primary Basis <==

  Basis Set: AUG-CC-PVTZ
    Blend: AUG-CC-PVTZ
    Number of shells: 202
    Number of basis function: 598
    Number of Cartesian functions: 690
    Spherical Harmonics?: true
    Max angular momentum: 3

   => Loading Basis Set <=

    Name: (AUG-CC-PVTZ AUX)
    Role: JKFIT
    Keyword: DF_BASIS_SCF
    atoms 1, 6, 10, 15           entry C          line   162 file /home/liuchw/anaconda3/envs/psi4env/share/psi4/basis/aug-cc-pvtz-jkfit.gbs 
    atoms 2, 11                  entry O          line   286 file /home/liuchw/anaconda3/envs/psi4env/share/psi4/basis/aug-cc-pvtz-jkfit.gbs 
    atoms 3, 12                  entry N          line   224 file /home/liuchw/anaconda3/envs/psi4env/share/psi4/basis/aug-cc-pvtz-jkfit.gbs 
    atoms 4-5, 7-9, 13-14, 16-18 entry H          line    70 file /home/liuchw/anaconda3/envs/psi4env/share/psi4/basis/aug-cc-pvtz-jkfit.gbs 

  ==> Pre-Iterations <==

   -------------------------------------------------------
    Irrep   Nso     Nmo     Nalpha   Nbeta   Ndocc  Nsocc
   -------------------------------------------------------
     A        598     598       0       0       0       0
   -------------------------------------------------------
    Total     598     598      16      16      16       0
   -------------------------------------------------------

  ==> Integral Setup <==

  DFHelper Memory: AOs need 3.172 GiB; user supplied 27.940 GiB. Using in-core AOs.

  ==> MemDFJK: Density-Fitted J/K Matrices <==

    J tasked:                   Yes
    K tasked:                   Yes
    wK tasked:                   No
    OpenMP threads:               6
    Memory [MiB]:             28610
    Algorithm:                 Core
    Schwarz Cutoff:           1E-12
    Mask sparsity (%):      10.7605
    Fitting Condition:        1E-10

   => Auxiliary Basis Set <=

  Basis Set: (AUG-CC-PVTZ AUX)
    Blend: AUG-CC-PVTZ-JKFIT
    Number of shells: 380
    Number of basis function: 1292
    Number of Cartesian functions: 1598
    Spherical Harmonics?: true
    Max angular momentum: 4

  Minimum eigenvalue in the overlap matrix is 5.3728941542E-06.
  Using Symmetric Orthogonalization.

  SCF Guess: Superposition of Atomic Densities via on-the-fly atomic UHF.

  ==> Iterations <==

                           Total Energy        Delta E     RMS |[F,P]|

   @DF-RHF iter SAD:  -207.23354299976816   -2.07234e+02   0.00000e+00 
   @DF-RHF iter   1:  -207.88215350766086   -6.48611e-01   1.02365e-03 DIIS
   @DF-RHF iter   2:  -208.01563371439804   -1.33480e-01   6.02409e-04 DIIS
   @DF-RHF iter   3:  -208.05850553866173   -4.28718e-02   1.12997e-04 DIIS
   @DF-RHF iter   4:  -208.06096907387087   -2.46354e-03   4.64973e-05 DIIS
   @DF-RHF iter   5:  -208.06148018511331   -5.11111e-04   8.43392e-06 DIIS
   @DF-RHF iter   6:  -208.06151004420389   -2.98591e-05   3.96251e-06 DIIS
   @DF-RHF iter   7:  -208.06151540481420   -5.36061e-06   1.46547e-06 DIIS
   @DF-RHF iter   8:  -208.06151654507710   -1.14026e-06   4.88946e-07 DIIS
   @DF-RHF iter   9:  -208.06151669347008   -1.48393e-07   1.31631e-07 DIIS
   @DF-RHF iter  10:  -208.06151670177138   -8.30130e-09   4.31217e-08 DIIS
   @DF-RHF iter  11:  -208.06151670254854   -7.77163e-10   1.11077e-08 DIIS
   @DF-RHF iter  12:  -208.06151670259868   -5.01359e-11   2.27113e-09 DIIS
  Energy and wave function converged.


  ==> Post-Iterations <==

    Orbital Energies [Eh]
    ---------------------

    Doubly Occupied:                                                      

       1A    -20.511355     2A    -15.593459     3A    -11.352770  
       4A    -11.237602     5A     -1.369055     6A     -1.218834  
       7A     -1.005877     8A     -0.804965     9A     -0.730867  
      10A     -0.663358    11A     -0.615641    12A     -0.579274  
      13A     -0.564527    14A     -0.524469    15A     -0.421409  
      16A     -0.414129  

    Virtual:                                                              

      17A      0.018736    18A      0.027313    19A      0.037999  
      20A      0.044369    21A      0.048070    22A      0.050781  
      23A      0.051802    24A      0.064913    25A      0.074045  
      26A      0.081609    27A      0.090346    28A      0.095390  
      29A      0.103299    30A      0.109226    31A      0.112303  
      32A      0.114014    33A      0.115163    34A      0.125149  
      35A      0.133384    36A      0.134987    37A      0.140685  
      38A      0.143655    39A      0.152330    40A      0.157895  
      41A      0.163614    42A      0.168063    43A      0.172137  
      44A      0.176937    45A      0.177879    46A      0.189700  
      47A      0.202804    48A      0.210682    49A      0.214358  
      50A      0.221434    51A      0.222932    52A      0.235825  
      53A      0.237780    54A      0.243353    55A      0.251751  
      56A      0.258625    57A      0.260411    58A      0.273209  
      59A      0.275816    60A      0.290780    61A      0.295557  
      62A      0.296107    63A      0.306917    64A      0.312054  
      65A      0.321217    66A      0.321996    67A      0.326121  
      68A      0.328897    69A      0.337315    70A      0.341498  
      71A      0.351755    72A      0.358989    73A      0.359994  
      74A      0.360953    75A      0.366076    76A      0.373536  
      77A      0.379018    78A      0.386033    79A      0.387223  
      80A      0.391855    81A      0.399677    82A      0.404658  
      83A      0.406866    84A      0.407661    85A      0.410856  
      86A      0.424109    87A      0.427102    88A      0.427604  
      89A      0.431480    90A      0.432447    91A      0.439558  
      92A      0.441450    93A      0.452591    94A      0.459903  
      95A      0.469542    96A      0.479632    97A      0.490204  
      98A      0.493135    99A      0.495053   100A      0.505121  
     101A      0.505850   102A      0.509377   103A      0.513922  
     104A      0.520530   105A      0.527778   106A      0.543822  
     107A      0.549705   108A      0.552931   109A      0.554142  
     110A      0.565130   111A      0.580747   112A      0.585924  
     113A      0.589619   114A      0.603999   115A      0.608989  
     116A      0.612437   117A      0.622450   118A      0.630729  
     119A      0.632527   120A      0.642220   121A      0.649608  
     122A      0.651586   123A      0.661699   124A      0.667872  
     125A      0.680858   126A      0.687764   127A      0.703051  
     128A      0.714527   129A      0.719712   130A      0.738670  
     131A      0.742671   132A      0.743123   133A      0.763419  
     134A      0.764235   135A      0.775494   136A      0.778953  
     137A      0.785404   138A      0.800907   139A      0.803071  
     140A      0.822508   141A      0.824245   142A      0.826746  
     143A      0.831215   144A      0.845536   145A      0.851628  
     146A      0.857699   147A      0.863659   148A      0.877582  
     149A      0.891292   150A      0.892569   151A      0.899006  
     152A      0.903207   153A      0.913541   154A      0.917592  
     155A      0.924367   156A      0.927322   157A      0.935949  
     158A      0.946783   159A      0.948700   160A      0.952271  
     161A      0.960462   162A      0.976148   163A      0.989917  
     164A      0.993615   165A      0.998729   166A      1.000614  
     167A      1.009805   168A      1.020674   169A      1.025469  
     170A      1.027759   171A      1.032212   172A      1.046490  
     173A      1.052002   174A      1.062718   175A      1.068364  
     176A      1.079412   177A      1.080581   178A      1.082936  
     179A      1.092287   180A      1.097771   181A      1.100822  
     182A      1.116579   183A      1.120876   184A      1.124216  
     185A      1.136258   186A      1.138687   187A      1.143928  
     188A      1.145628   189A      1.154606   190A      1.164128  
     191A      1.166338   192A      1.179703   193A      1.186792  
     194A      1.189063   195A      1.205364   196A      1.214694  
     197A      1.218637   198A      1.225738   199A      1.227035  
     200A      1.252746   201A      1.256160   202A      1.257015  
     203A      1.260829   204A      1.266228   205A      1.275575  
     206A      1.282170   207A      1.297426   208A      1.298631  
     209A      1.306155   210A      1.319532   211A      1.324934  
     212A      1.331267   213A      1.335205   214A      1.349169  
     215A      1.356192   216A      1.363810   217A      1.371818  
     218A      1.384268   219A      1.386950   220A      1.394583  
     221A      1.395944   222A      1.403776   223A      1.428513  
     224A      1.445521   225A      1.448850   226A      1.465871  
     227A      1.473485   228A      1.476870   229A      1.485611  
     230A      1.492579   231A      1.498526   232A      1.512120  
     233A      1.522206   234A      1.526382   235A      1.538097  
     236A      1.547916   237A      1.560200   238A      1.585983  
     239A      1.591008   240A      1.593339   241A      1.601035  
     242A      1.616224   243A      1.618893   244A      1.625254  
     245A      1.627247   246A      1.635395   247A      1.645151  
     248A      1.647751   249A      1.665531   250A      1.677389  
     251A      1.688201   252A      1.696780   253A      1.701189  
     254A      1.716434   255A      1.736769   256A      1.748739  
     257A      1.752475   258A      1.764836   259A      1.765211  
     260A      1.767085   261A      1.779729   262A      1.784723  
     263A      1.812181   264A      1.825714   265A      1.831121  
     266A      1.833749   267A      1.853157   268A      1.862053  
     269A      1.864134   270A      1.891237   271A      1.893438  
     272A      1.901612   273A      1.902955   274A      1.930608  
     275A      1.936380   276A      1.937135   277A      1.963927  
     278A      1.971878   279A      1.985752   280A      2.001783  
     281A      2.015124   282A      2.022690   283A      2.032199  
     284A      2.035392   285A      2.064492   286A      2.088902  
     287A      2.093481   288A      2.094135   289A      2.109754  
     290A      2.122685   291A      2.128627   292A      2.147023  
     293A      2.178317   294A      2.185155   295A      2.190411  
     296A      2.195201   297A      2.205132   298A      2.210481  
     299A      2.211857   300A      2.233560   301A      2.248898  
     302A      2.275401   303A      2.277986   304A      2.291131  
     305A      2.295452   306A      2.319517   307A      2.351570  
     308A      2.358830   309A      2.369205   310A      2.384511  
     311A      2.386406   312A      2.408584   313A      2.413676  
     314A      2.454894   315A      2.457660   316A      2.475178  
     317A      2.488221   318A      2.522670   319A      2.525114  
     320A      2.544264   321A      2.562672   322A      2.600892  
     323A      2.616993   324A      2.622025   325A      2.639383  
     326A      2.648955   327A      2.670889   328A      2.675860  
     329A      2.687763   330A      2.706907   331A      2.727000  
     332A      2.729953   333A      2.735101   334A      2.746324  
     335A      2.750646   336A      2.771998   337A      2.773509  
     338A      2.792817   339A      2.808879   340A      2.817996  
     341A      2.821711   342A      2.841362   343A      2.868058  
     344A      2.868995   345A      2.883706   346A      2.929238  
     347A      2.948257   348A      2.954297   349A      2.988476  
     350A      2.998977   351A      3.010961   352A      3.029225  
     353A      3.040166   354A      3.056953   355A      3.075656  
     356A      3.111293   357A      3.139436   358A      3.160906  
     359A      3.196122   360A      3.210469   361A      3.229769  
     362A      3.240629   363A      3.299010   364A      3.305780  
     365A      3.338887   366A      3.377162   367A      3.402583  
     368A      3.413447   369A      3.442079   370A      3.465984  
     371A      3.482122   372A      3.499885   373A      3.521132  
     374A      3.552869   375A      3.580225   376A      3.607228  
     377A      3.628255   378A      3.630687   379A      3.644539  
     380A      3.652549   381A      3.682228   382A      3.687732  
     383A      3.692413   384A      3.744018   385A      3.811294  
     386A      3.827882   387A      3.855840   388A      3.870139  
     389A      3.915841   390A      3.919616   391A      3.932329  
     392A      3.942415   393A      3.949969   394A      3.978831  
     395A      4.008337   396A      4.016240   397A      4.044345  
     398A      4.078377   399A      4.082083   400A      4.090451  
     401A      4.100159   402A      4.127331   403A      4.131730  
     404A      4.134890   405A      4.167999   406A      4.170539  
     407A      4.189212   408A      4.240430   409A      4.259336  
     410A      4.273362   411A      4.282829   412A      4.289377  
     413A      4.316611   414A      4.320848   415A      4.328934  
     416A      4.345986   417A      4.353225   418A      4.379754  
     419A      4.419528   420A      4.432582   421A      4.434951  
     422A      4.449529   423A      4.474227   424A      4.478310  
     425A      4.492411   426A      4.518176   427A      4.529138  
     428A      4.532533   429A      4.545471   430A      4.564990  
     431A      4.573315   432A      4.605386   433A      4.612536  
     434A      4.617704   435A      4.643337   436A      4.657869  
     437A      4.722347   438A      4.726381   439A      4.729273  
     440A      4.734342   441A      4.753647   442A      4.758482  
     443A      4.781290   444A      4.790547   445A      4.810416  
     446A      4.830739   447A      4.835652   448A      4.867050  
     449A      4.868551   450A      4.891856   451A      4.918925  
     452A      4.935242   453A      4.956836   454A      4.959159  
     455A      4.978965   456A      4.989307   457A      4.999474  
     458A      5.013959   459A      5.042202   460A      5.045003  
     461A      5.069416   462A      5.081704   463A      5.122358  
     464A      5.140778   465A      5.147455   466A      5.161279  
     467A      5.177011   468A      5.178507   469A      5.204257  
     470A      5.240431   471A      5.266616   472A      5.271491  
     473A      5.275030   474A      5.305285   475A      5.306823  
     476A      5.331208   477A      5.343640   478A      5.349958  
     479A      5.388114   480A      5.393593   481A      5.408957  
     482A      5.410084   483A      5.420058   484A      5.450887  
     485A      5.494182   486A      5.496416   487A      5.520273  
     488A      5.531358   489A      5.540177   490A      5.546524  
     491A      5.564421   492A      5.591341   493A      5.592446  
     494A      5.619017   495A      5.626898   496A      5.673188  
     497A      5.676920   498A      5.692179   499A      5.719001  
     500A      5.771533   501A      5.795632   502A      5.816618  
     503A      5.853101   504A      5.923563   505A      5.941971  
     506A      5.945957   507A      5.982253   508A      5.985656  
     509A      6.037309   510A      6.085649   511A      6.091317  
     512A      6.131205   513A      6.136810   514A      6.170684  
     515A      6.190015   516A      6.221984   517A      6.224797  
     518A      6.238768   519A      6.315378   520A      6.371672  
     521A      6.380061   522A      6.396503   523A      6.454274  
     524A      6.486298   525A      6.567755   526A      6.639664  
     527A      6.656055   528A      6.691151   529A      6.694442  
     530A      6.717597   531A      6.741217   532A      6.763224  
     533A      6.847446   534A      6.861521   535A      6.908882  
     536A      6.932653   537A      6.954667   538A      7.006602  
     539A      7.116615   540A      7.122225   541A      7.195528  
     542A      7.236201   543A      7.238831   544A      7.278899  
     545A      7.406588   546A      7.431355   547A      7.449894  
     548A      7.526730   549A      7.598641   550A      7.660318  
     551A      7.674849   552A      7.696597   553A      7.711427  
     554A      7.740433   555A      7.778772   556A      7.782978  
     557A      7.830311   558A      7.849722   559A      7.856600  
     560A      7.924205   561A      7.934211   562A      7.960393  
     563A      7.991775   564A      8.023398   565A      8.068713  
     566A      8.162608   567A      8.192723   568A      8.221229  
     569A      8.363312   570A      8.425394   571A      8.592121  
     572A      8.724726   573A      9.095251   574A      9.147496  
     575A      9.446184   576A      9.570781   577A      9.846524  
     578A      9.962457   579A     10.130641   580A     10.231879  
     581A     10.449089   582A     10.456081   583A     10.690615  
     584A     11.300629   585A     11.818328   586A     11.970985  
     587A     12.665065   588A     12.858755   589A     13.210960  
     590A     14.056809   591A     15.871469   592A     17.457672  
     593A     18.880802   594A     20.046833   595A     51.603373  
     596A     53.944161   597A     62.820052   598A     68.947949  

    Final Occupation by Irrep:
              A 
    DOCC [    16 ]

  @DF-RHF Final Energy:  -208.06151670259868

   => Energetics <=

    Nuclear Repulsion Energy =            121.8556418136202240
    One-Electron Energy =                -524.6191379911476815
    Two-Electron Energy =                 194.7019794749288053
    Total Energy =                       -208.0615167025986807

Computation Completed


Properties will be evaluated at   0.000000,   0.000000,   0.000000 [a0]

Properties computed using the SCF density matrix

  Nuclear Dipole Moment: [e a0]
     X:   133.8968      Y:     2.1063      Z:     7.8867

  Electronic Dipole Moment: [e a0]
     X:  -133.3151      Y:    -0.6307      Z:    -7.1797

  Dipole Moment: [e a0]
     X:     0.5818      Y:     1.4756      Z:     0.7070     Total:     1.7366

  Dipole Moment: [D]
     X:     1.4787      Y:     3.7506      Z:     1.7970     Total:     4.4139


*** tstop() called on node37.bme.utexas.edu at Sat Apr 11 17:34:10 2020
Module time:
	user time   =     118.54 seconds =       1.98 minutes
	system time =       9.51 seconds =       0.16 minutes
	total time  =         25 seconds =       0.42 minutes
Total time:
	user time   =     277.39 seconds =       4.62 minutes
	system time =      21.78 seconds =       0.36 minutes
	total time  =         61 seconds =       1.02 minutes

*** tstart() called on node37.bme.utexas.edu
*** at Sat Apr 11 17:34:10 2020


  //>>>>>>>>>>>>>>>>>>>>>>>>>>>>>>>>>>>//
  //               DFMP2               //
  //<<<<<<<<<<<<<<<<<<<<<<<<<<<<<<<<<<<//

   => Loading Basis Set <=

    Name: (AUG-CC-PVTZ AUX)
    Role: RIFIT
    Keyword: DF_BASIS_MP2
    atoms 1, 6, 10, 15           entry C          line   148 file /home/liuchw/anaconda3/envs/psi4env/share/psi4/basis/aug-cc-pvtz-ri.gbs 
    atoms 2, 11                  entry O          line   264 file /home/liuchw/anaconda3/envs/psi4env/share/psi4/basis/aug-cc-pvtz-ri.gbs 
    atoms 3, 12                  entry N          line   206 file /home/liuchw/anaconda3/envs/psi4env/share/psi4/basis/aug-cc-pvtz-ri.gbs 
    atoms 4-5, 7-9, 13-14, 16-18 entry H          line    30 file /home/liuchw/anaconda3/envs/psi4env/share/psi4/basis/aug-cc-pvtz-ri.gbs 

	 --------------------------------------------------------
	                          DF-MP2                         
	      2nd-Order Density-Fitted Moller-Plesset Theory     
	              RMP2 Wavefunction,   6 Threads             
	                                                         
	        Rob Parrish, Justin Turney, Andy Simmonett,      
	           Ed Hohenstein, and C. David Sherrill          
	 --------------------------------------------------------

   => Auxiliary Basis Set <=

  Basis Set: (AUG-CC-PVTZ AUX)
    Blend: AUG-CC-PVTZ-RI
    Number of shells: 364
    Number of basis function: 1308
    Number of Cartesian functions: 1638
    Spherical Harmonics?: true
    Max angular momentum: 4

	 --------------------------------------------------------
	                 NBF =   598, NAUX =  1308
	 --------------------------------------------------------
	   CLASS    FOCC     OCC    AOCC    AVIR     VIR    FVIR
	   PAIRS       0      16      16     582     582       0
	 --------------------------------------------------------

	-----------------------------------------------------------
	 ==================> DF-MP2 Energies <==================== 
	-----------------------------------------------------------
	 Reference Energy          =    -208.0615167025986807 [Eh]
	 Singles Energy            =      -0.0000000000000000 [Eh]
	 Same-Spin Energy          =      -0.2050154084603069 [Eh]
	 Opposite-Spin Energy      =      -0.6583735968824159 [Eh]
	 Correlation Energy        =      -0.8633890053427228 [Eh]
	 Total Energy              =    -208.9249057079414058 [Eh]
	-----------------------------------------------------------
	 ================> DF-SCS-MP2 Energies <================== 
	-----------------------------------------------------------
	 SCS Same-Spin Scale       =       0.3333333333333333 [-]
	 SCS Opposite-Spin Scale   =       1.2000000000000000 [-]
	 SCS Same-Spin Energy      =      -0.0683384694867690 [Eh]
	 SCS Opposite-Spin Energy  =      -0.7900483162588990 [Eh]
	 SCS Correlation Energy    =      -0.8583867857456680 [Eh]
	 SCS Total Energy          =    -208.9199034883443460 [Eh]
	-----------------------------------------------------------


*** tstop() called on node37.bme.utexas.edu at Sat Apr 11 17:34:25 2020
Module time:
	user time   =      53.11 seconds =       0.89 minutes
	system time =      11.82 seconds =       0.20 minutes
	total time  =         15 seconds =       0.25 minutes
Total time:
	user time   =     330.51 seconds =       5.51 minutes
	system time =      33.60 seconds =       0.56 minutes
	total time  =         76 seconds =       1.27 minutes

  //>>>>>>>>>>>>>>>>>>>>>>>>>>>>>>>>>>>>//
  // CBS Computation: MP2 / AUG-CC-PVQZ //
  //<<<<<<<<<<<<<<<<<<<<<<<<<<<<<<<<<<<<//


Scratch directory: /scratch//

*** tstart() called on node37.bme.utexas.edu
*** at Sat Apr 11 17:34:25 2020

   => Loading Basis Set <=

    Name: AUG-CC-PVQZ
    Role: ORBITAL
    Keyword: BASIS
    atoms 1, 6, 10, 15           entry C          line   303 file /home/liuchw/anaconda3/envs/psi4env/share/psi4/basis/aug-cc-pvqz.gbs 
    atoms 2, 11                  entry O          line   423 file /home/liuchw/anaconda3/envs/psi4env/share/psi4/basis/aug-cc-pvqz.gbs 
    atoms 3, 12                  entry N          line   363 file /home/liuchw/anaconda3/envs/psi4env/share/psi4/basis/aug-cc-pvqz.gbs 
    atoms 4-5, 7-9, 13-14, 16-18 entry H          line    40 file /home/liuchw/anaconda3/envs/psi4env/share/psi4/basis/aug-cc-pvqz.gbs 


         ---------------------------------------------------------
                                   SCF
               by Justin Turney, Rob Parrish, Andy Simmonett
                          and Daniel G. A. Smith
                              RHF Reference
                        6 Threads,  38146 MiB Core
         ---------------------------------------------------------

  ==> Geometry <==

    Molecular point group: c1
    Full point group: C1

    Geometry (in Angstrom), charge = 0, multiplicity = 1:

       Center              X                  Y                   Z               Mass       
    ------------   -----------------  -----------------  -----------------  -----------------
      Gh(C)          -2.098255934386     0.056930786559    -0.082937062800    12.000000000000
      Gh(O)          -1.513805934386     1.031902786559     0.394945937200    15.994914619570
      Gh(N)          -1.454126934386    -1.028190213441    -0.549761062800    14.003074004430
      Gh(H)          -0.433922934386    -1.071797213441    -0.517076062800     1.007825032230
      Gh(H)          -1.972132934386    -1.796845213441    -0.928523062800     1.007825032230
      Gh(C)          -3.605224934386     0.032753786559    -0.168373062800    12.000000000000
      Gh(H)          -4.009134934386     0.139295786559     0.835314937200     1.007825032230
      Gh(H)          -3.997933934386    -0.874611213441    -0.619667062800     1.007825032230
      Gh(H)          -3.931663934386     0.893350786559    -0.746660062800     1.007825032230
         C            2.098225065614    -0.057138213441     0.083257937200    12.000000000000
         O            1.513803065614    -1.031158213441    -0.396473062800    15.994914619570
         N            1.454137065614     1.027604786559     0.551103937200    14.003074004430
         H            0.434032065614     1.072042786559     0.516802937200     1.007825032230
         H            1.972161065614     1.795566786559     0.931224937200     1.007825032230
         C            3.605224065614    -0.032853213441     0.168482937200    12.000000000000
         H            3.997095065614     0.866795786559     0.635666937200     1.007825032230
         H            4.008780065614    -0.120399213441    -0.837297062800     1.007825032230
         H            3.933003065614    -0.903428213441     0.730662937200     1.007825032230

  Running in c1 symmetry.

  Rotational constants: A =      0.17901  B =      0.02559  C =      0.02258 [cm^-1]
[...]
     654A      4.639515   655A      4.642790   656A      4.650903  
     657A      4.665008   658A      4.679500   659A      4.688663  
     660A      4.716161   661A      4.721276   662A      4.732200  
     663A      4.754788   664A      4.755250   665A      4.764264  
     666A      4.783361   667A      4.785457   668A      4.816146  
     669A      4.822465   670A      4.824566   671A      4.831014  
     672A      4.861487   673A      4.880118   674A      4.915169  
     675A      4.921754   676A      4.931879   677A      4.939787  
     678A      4.943110   679A      4.961046   680A      4.964046  
     681A      4.967444   682A      4.979114   683A      5.028790  
     684A      5.041337   685A      5.048851   686A      5.089169  
     687A      5.093584   688A      5.108247   689A      5.115976  
     690A      5.118260   691A      5.135577   692A      5.136324  
     693A      5.147984   694A      5.161475   695A      5.195093  
     696A      5.205883   697A      5.212145   698A      5.269473  
     699A      5.284176   700A      5.294960   701A      5.307310  
     702A      5.340508   703A      5.372848   704A      5.390893  
     705A      5.422215   706A      5.423155   707A      5.456787  
     708A      5.478480   709A      5.491090   710A      5.492697  
     711A      5.502457   712A      5.568931   713A      5.574563  
     714A      5.617416   715A      5.619830   716A      5.675557  
     717A      5.681252   718A      5.681618   719A      5.730839  
     720A      5.756389   721A      5.825629   722A      5.835633  
     723A      5.857011   724A      5.858804   725A      5.893177  
     726A      5.915665   727A      5.970832   728A      6.028530  
     729A      6.029365   730A      6.062895   731A      6.067967  
     732A      6.124131   733A      6.142717   734A      6.172181  
     735A      6.173279   736A      6.217687   737A      6.244458  
     738A      6.258855   739A      6.262506   740A      6.264844  
     741A      6.276382   742A      6.321494   743A      6.335145  
     744A      6.383661   745A      6.389872   746A      6.398717  
     747A      6.406559   748A      6.412900   749A      6.465466  
     750A      6.483648   751A      6.545081   752A      6.561035  
     753A      6.578301   754A      6.608085   755A      6.640033  
     756A      6.645649   757A      6.658808   758A      6.678664  
     759A      6.709787   760A      6.724294   761A      6.728794  
     762A      6.736033   763A      6.740192   764A      6.743984  
     765A      6.761316   766A      6.798835   767A      6.814643  
     768A      6.818185   769A      6.852987   770A      6.856159  
     771A      6.857503   772A      6.862401   773A      6.875639  
     774A      6.890508   775A      6.922374   776A      6.925380  
     777A      6.928209   778A      6.938090   779A      6.951970  
     780A      6.963521   781A      6.974080   782A      6.988557  
     783A      7.046304   784A      7.046894   785A      7.052154  
     786A      7.053063   787A      7.082940   788A      7.086276  
     789A      7.100889   790A      7.112666   791A      7.158706  
     792A      7.173768   793A      7.175528   794A      7.179012  
     795A      7.191473   796A      7.211698   797A      7.239667  
     798A      7.258380   799A      7.258972   800A      7.260699  
     801A      7.280000   802A      7.293084   803A      7.324597  
     804A      7.332483   805A      7.342791   806A      7.349007  
     807A      7.350340   808A      7.358723   809A      7.381438  
     810A      7.391788   811A      7.398325   812A      7.411972  
     813A      7.415176   814A      7.422943   815A      7.491561  
     816A      7.494314   817A      7.498267   818A      7.502627  
     819A      7.585201   820A      7.592632   821A      7.599312  
     822A      7.610202   823A      7.672839   824A      7.685755  
     825A      7.703110   826A      7.710472   827A      7.739190  
     828A      7.739863   829A      7.765714   830A      7.793964  
     831A      7.804225   832A      7.808361   833A      7.820264  
     834A      7.821535   835A      7.825716   836A      7.841639  
     837A      7.870003   838A      7.877788   839A      7.902625  
     840A      7.920147   841A      7.933813   842A      7.936884  
     843A      7.939573   844A      7.946339   845A      7.967089  
     846A      7.968270   847A      8.022818   848A      8.029722  
     849A      8.064345   850A      8.068885   851A      8.100258  
     852A      8.110653   853A      8.115453   854A      8.121966  
     855A      8.158973   856A      8.182867   857A      8.190524  
     858A      8.195484   859A      8.244172   860A      8.246836  
     861A      8.250142   862A      8.256981   863A      8.292530  
     864A      8.331378   865A      8.386327   866A      8.393560  
     867A      8.412597   868A      8.421864   869A      8.462414  
     870A      8.478564   871A      8.493274   872A      8.507491  
     873A      8.578342   874A      8.582345   875A      8.602982  
     876A      8.605200   877A      8.633038   878A      8.636014  
     879A      8.662621   880A      8.665939   881A      8.674516  
     882A      8.675115   883A      8.681905   884A      8.707258  
     885A      8.709919   886A      8.712514   887A      8.734241  
     888A      8.738924   889A      8.742835   890A      8.781741  
     891A      8.793608   892A      8.823858   893A      8.839469  
     894A      8.846984   895A      8.879045   896A      8.889198  
     897A      8.940996   898A      8.949254   899A      8.957757  
     900A      8.970972   901A      8.971868   902A      9.015875  
     903A      9.032091   904A      9.034218   905A      9.060672  
     906A      9.071017   907A      9.102745   908A      9.137635  
     909A      9.139717   910A      9.144701   911A      9.149725  
     912A      9.158634   913A      9.166223   914A      9.176574  
     915A      9.195564   916A      9.209325   917A      9.231994  
     918A      9.272845   919A      9.289439   920A      9.295462  
     921A      9.298701   922A      9.316295   923A      9.345735  
     924A      9.354579   925A      9.355206   926A      9.357852  
     927A      9.366543   928A      9.384880   929A      9.412552  
     930A      9.417305   931A      9.512039   932A      9.522191  
     933A      9.550804   934A      9.556944   935A      9.569326  
     936A      9.570596   937A      9.574298   938A      9.640186  
     939A      9.644736   940A      9.647603   941A      9.678272  
     942A      9.680593   943A      9.694205   944A      9.721430  
     945A      9.738683   946A      9.750698   947A      9.757994  
     948A      9.796650   949A      9.801901   950A      9.826080  
     951A      9.839150   952A      9.843360   953A      9.862826  
     954A      9.863097   955A      9.887283   956A      9.907788  
     957A      9.912496   958A      9.915926   959A      9.932067  
     960A      9.952816   961A     10.030594   962A     10.060454  
     963A     10.083295   964A     10.095772   965A     10.113980  
     966A     10.133019   967A     10.137612   968A     10.138900  
     969A     10.142013   970A     10.179223   971A     10.179637  
     972A     10.195926   973A     10.197810   974A     10.207830  
     975A     10.215645   976A     10.242545   977A     10.274248  
     978A     10.274316   979A     10.318282   980A     10.342759  
     981A     10.357107   982A     10.381261   983A     10.394780  
     984A     10.425141   985A     10.432455   986A     10.450392  
     987A     10.462245   988A     10.463785   989A     10.540937  
     990A     10.549865   991A     10.610605   992A     10.623202  
     993A     10.746390   994A     10.755303   995A     10.779256  
     996A     10.782339   997A     10.783707   998A     10.822482  
     999A     10.879737  1000A     10.880602  1001A     10.972274  
    1002A     10.986181  1003A     11.024247  1004A     11.051009  
    1005A     11.062313  1006A     11.073080  1007A     11.100010  
    1008A     11.106968  1009A     11.113076  1010A     11.133128  
    1011A     11.187974  1012A     11.196087  1013A     11.267369  
    1014A     11.268639  1015A     11.269941  1016A     11.275248  
    1017A     11.308231  1018A     11.313409  1019A     11.322730  
    1020A     11.362996  1021A     11.453444  1022A     11.470196  
    1023A     11.472847  1024A     11.474859  1025A     11.480603  
    1026A     11.487757  1027A     11.546327  1028A     11.564326  
    1029A     11.614427  1030A     11.615910  1031A     11.618762  
    1032A     11.713961  1033A     11.792149  1034A     11.810056  
    1035A     11.895527  1036A     11.910813  1037A     11.983797  
    1038A     12.013517  1039A     12.089840  1040A     12.129429  
    1041A     12.143955  1042A     12.178577  1043A     12.230421  
    1044A     12.235431  1045A     12.330307  1046A     12.343739  
    1047A     12.375874  1048A     12.380205  1049A     12.384040  
    1050A     12.393911  1051A     12.451148  1052A     12.471896  
    1053A     12.529456  1054A     12.594787  1055A     12.640550  
    1056A     12.679809  1057A     12.849597  1058A     12.864972  
    1059A     12.875861  1060A     12.891221  1061A     12.981919  
    1062A     13.013377  1063A     13.040866  1064A     13.084869  
    1065A     13.254643  1066A     13.312000  1067A     13.327649  
    1068A     13.337789  1069A     13.426478  1070A     13.434376  
    1071A     13.496052  1072A     13.515250  1073A     13.522787  
    1074A     13.527862  1075A     13.715290  1076A     13.757223  
    1077A     13.777593  1078A     13.839684  1079A     13.916020  
    1080A     14.015580  1081A     14.062784  1082A     14.073172  
    1083A     14.150538  1084A     14.181446  1085A     14.769894  
    1086A     14.775434  1087A     15.069733  1088A     15.118829  
    1089A     15.146745  1090A     15.152550  1091A     15.565215  
    1092A     15.607620  1093A     26.616485  1094A     26.643659  
    1095A     29.244991  1096A     29.255776  1097A     35.814374  
    1098A     35.827485  1099A     44.557520  1100A     44.631295  

    Final Occupation by Irrep:
              A 
    DOCC [    32 ]

  @DF-RHF Final Energy:  -416.16926975215205

   => Energetics <=

    Nuclear Repulsion Energy =            370.3135332798610193
    One-Electron Energy =               -1302.8731368167048004
    Two-Electron Energy =                 516.3903337846916202
    Total Energy =                       -416.1692697521521040

Computation Completed


Properties will be evaluated at   0.000000,   0.000000,   0.000000 [a0]

Properties computed using the SCF density matrix

  Nuclear Dipole Moment: [e a0]
     X:     0.0003      Y:    -0.0000      Z:     0.0004

  Electronic Dipole Moment: [e a0]
     X:    -0.0001      Y:    -0.0006      Z:     0.0005

  Dipole Moment: [e a0]
     X:     0.0002      Y:    -0.0006      Z:     0.0009     Total:     0.0012

  Dipole Moment: [D]
     X:     0.0004      Y:    -0.0016      Z:     0.0024     Total:     0.0029


*** tstop() called on node37.bme.utexas.edu at Sat Apr 11 17:45:15 2020
Module time:
	user time   =     646.18 seconds =      10.77 minutes
	system time =      41.54 seconds =       0.69 minutes
	total time  =        133 seconds =       2.22 minutes
Total time:
	user time   =    3178.48 seconds =      52.97 minutes
	system time =     321.07 seconds =       5.35 minutes
	total time  =        726 seconds =      12.10 minutes

*** tstart() called on node37.bme.utexas.edu
*** at Sat Apr 11 17:45:15 2020


  //>>>>>>>>>>>>>>>>>>>>>>>>>>>>>>>>>>>//
  //               DFMP2               //
  //<<<<<<<<<<<<<<<<<<<<<<<<<<<<<<<<<<<//

   => Loading Basis Set <=

    Name: (AUG-CC-PVQZ AUX)
    Role: RIFIT
    Keyword: DF_BASIS_MP2
    atoms 1, 6, 10, 15           entry C          line   184 file /home/liuchw/anaconda3/envs/psi4env/share/psi4/basis/aug-cc-pvqz-ri.gbs 
    atoms 2, 11                  entry O          line   332 file /home/liuchw/anaconda3/envs/psi4env/share/psi4/basis/aug-cc-pvqz-ri.gbs 
    atoms 3, 12                  entry N          line   258 file /home/liuchw/anaconda3/envs/psi4env/share/psi4/basis/aug-cc-pvqz-ri.gbs 
    atoms 4-5, 7-9, 13-14, 16-18 entry H          line    30 file /home/liuchw/anaconda3/envs/psi4env/share/psi4/basis/aug-cc-pvqz-ri.gbs 

	 --------------------------------------------------------
	                          DF-MP2                         
	      2nd-Order Density-Fitted Moller-Plesset Theory     
	              RMP2 Wavefunction,   6 Threads             
	                                                         
	        Rob Parrish, Justin Turney, Andy Simmonett,      
	           Ed Hohenstein, and C. David Sherrill          
	 --------------------------------------------------------

   => Auxiliary Basis Set <=

  Basis Set: (AUG-CC-PVQZ AUX)
    Blend: AUG-CC-PVQZ-RI
    Number of shells: 488
    Number of basis function: 2144
    Number of Cartesian functions: 2946
    Spherical Harmonics?: true
    Max angular momentum: 5

	 --------------------------------------------------------
	                 NBF =  1100, NAUX =  2144
	 --------------------------------------------------------
	   CLASS    FOCC     OCC    AOCC    AVIR     VIR    FVIR
	   PAIRS       0      32      32    1068    1068       0
	 --------------------------------------------------------

	-----------------------------------------------------------
	 ==================> DF-MP2 Energies <==================== 
	-----------------------------------------------------------
	 Reference Energy          =    -416.1692697521520472 [Eh]
	 Singles Energy            =      -0.0000000000000000 [Eh]
	 Same-Spin Energy          =      -0.4381497281166907 [Eh]
	 Opposite-Spin Energy      =      -1.4829736301154566 [Eh]
	 Correlation Energy        =      -1.9211233582321472 [Eh]
	 Total Energy              =    -418.0903931103841842 [Eh]
	-----------------------------------------------------------
	 ================> DF-SCS-MP2 Energies <================== 
	-----------------------------------------------------------
	 SCS Same-Spin Scale       =       0.3333333333333333 [-]
	 SCS Opposite-Spin Scale   =       1.2000000000000000 [-]
	 SCS Same-Spin Energy      =      -0.1460499093722302 [Eh]
	 SCS Opposite-Spin Energy  =      -1.7795683561385478 [Eh]
	 SCS Correlation Energy    =      -1.9256182655107781 [Eh]
	 SCS Total Energy          =    -418.0948880176628109 [Eh]
	-----------------------------------------------------------


*** tstop() called on node37.bme.utexas.edu at Sat Apr 11 17:46:39 2020
Module time:
	user time   =     334.41 seconds =       5.57 minutes
	system time =      35.24 seconds =       0.59 minutes
	total time  =         84 seconds =       1.40 minutes
Total time:
	user time   =    3512.90 seconds =      58.55 minutes
	system time =     356.31 seconds =       5.94 minutes
	total time  =        810 seconds =      13.50 minutes

  //>>>>>>>>>>>>>>>>>>>>>>>>>>>>>>>>>>>//
  //  CBS Results: mp2/aug-cc-pv[tq]z  //
  //<<<<<<<<<<<<<<<<<<<<<<<<<<<<<<<<<<<//


   ==> HF <==

   HI-zeta (4) Energy:               -416.169269752152


   ==> Helgaker 2-point correlated extrapolation for method: MP2 <==

   LO-zeta (3) Energy:               -417.874027692614
   HI-zeta (4) Energy:               -418.090393110384
   Alpha (exponent) Value:             3.000000000000
   Extrapolated Energy:              -418.248281388217

   @Extrapolated MP2/(T,Q):          -418.248281388217



   ==> Helgaker 2-point correlated extrapolation for method: HF <==

   LO-zeta (3) Energy:               -416.143100871294
   HI-zeta (4) Energy:               -416.169269752152
   Alpha (exponent) Value:             3.000000000000
   Extrapolated Energy:              -416.188365962508

   @Extrapolated HF/(T,Q):           -416.188365962508


   ==> Components <==

  ---------------------------------------------------------------------------------------------------------
                          Method / Basis                      Rqd      Energy [Eh]   Variable
  ---------------------------------------------------------------------------------------------------------
                              hf / aug-cc-pvtz                  *    -416.14310087   HF TOTAL ENERGY
                             mp2 / aug-cc-pvtz                  *    -417.87402769   MP2 TOTAL ENERGY
                              hf / aug-cc-pvqz                  *    -416.16926975   HF TOTAL ENERGY
                             mp2 / aug-cc-pvqz                  *    -418.09039311   MP2 TOTAL ENERGY
  ---------------------------------------------------------------------------------------------------------

   ==> Stages <==

  ---------------------------------------------------------------------------------------------------------
      Stage               Method / Basis                       Wt      Energy [Eh]   Scheme
  ---------------------------------------------------------------------------------------------------------
        scf                   hf / aug-cc-pvqz                  1    -416.16926975   xtpl_highest_1
       corl                  mp2 / aug-cc-pv[tq]z               1    -418.24828139   corl_xtpl_helgaker_2
       corl                   hf / aug-cc-pv[tq]z              -1    -416.18836596   corl_xtpl_helgaker_2
  ---------------------------------------------------------------------------------------------------------

   ==> CBS <==

  ---------------------------------------------------------------------------------------------------------
      Stage               Method / Basis                               Energy [Eh]   Scheme
  ---------------------------------------------------------------------------------------------------------
        scf                   hf / aug-cc-pvqz                       -416.16926975   xtpl_highest_1
       corl                  mp2 / aug-cc-pv[tq]z                      -2.05991543   corl_xtpl_helgaker_2
      total                  CBS                                     -418.22918518   
  ---------------------------------------------------------------------------------------------------------
   => Loading Basis Set <=

    Name: DEF2-SVP
    Role: ORBITAL
    Keyword: BASIS
    atoms 1, 6, 10, 15           entry C          line    90 file /home/liuchw/anaconda3/envs/psi4env/share/psi4/basis/def2-svp.gbs 
    atoms 2, 11                  entry O          line   130 file /home/liuchw/anaconda3/envs/psi4env/share/psi4/basis/def2-svp.gbs 
    atoms 3, 12                  entry N          line   110 file /home/liuchw/anaconda3/envs/psi4env/share/psi4/basis/def2-svp.gbs 
    atoms 4-5, 7-9, 13-14, 16-18 entry H          line    15 file /home/liuchw/anaconda3/envs/psi4env/share/psi4/basis/def2-svp.gbs 


       N-Body: Complex Energy (fragments = (1, 2), basis = (1, 2):  -418.22918517786115)

   ==> N-Body: Counterpoise Corrected (CP) energies <==

   n-Body     Total Energy [Eh]       I.E. [kcal/mol]      Delta [kcal/mol]
        1     -418.204958396679        0.000000000000        0.000000000000
        2     -418.230134695903      -15.798366277772      -15.798366277772

   => Loading Basis Set <=

    Name: DEF2-SVP
    Role: ORBITAL
    Keyword: BASIS
    atoms 1, 6, 10, 15           entry C          line    90 file /home/liuchw/anaconda3/envs/psi4env/share/psi4/basis/def2-svp.gbs 
    atoms 2, 11                  entry O          line   130 file /home/liuchw/anaconda3/envs/psi4env/share/psi4/basis/def2-svp.gbs 
    atoms 3, 12                  entry N          line   110 file /home/liuchw/anaconda3/envs/psi4env/share/psi4/basis/def2-svp.gbs 
    atoms 4-5, 7-9, 13-14, 16-18 entry H          line    15 file /home/liuchw/anaconda3/envs/psi4env/share/psi4/basis/def2-svp.gbs 


    Psi4 stopped on: Saturday, 11 April 2020 05:46PM
    Psi4 wall time for execution: 0:13:31.02

*** Psi4 exiting successfully. Buy a developer a beer!
