
    -----------------------------------------------------------------------
          Psi4: An Open-Source Ab Initio Electronic Structure Package
                               Psi4 1.4a2.dev224 

                         Git: Rev {master} e453b16 


    R. M. Parrish, L. A. Burns, D. G. A. Smith, A. C. Simmonett,
    A. E. DePrince III, E. G. Hohenstein, U. Bozkaya, A. Yu. Sokolov,
    R. Di Remigio, R. M. Richard, J. F. Gonthier, A. M. James,
    H. R. McAlexander, A. Kumar, M. Saitow, X. Wang, B. P. Pritchard,
    P. Verma, H. F. Schaefer III, K. Patkowski, R. A. King, E. F. Valeev,
    F. A. Evangelista, J. M. Turney, T. D. Crawford, and C. D. Sherrill,
    J. Chem. Theory Comput. 13(7) pp 3185--3197 (2017).
    (doi: 10.1021/acs.jctc.7b00174)


                         Additional Contributions by
    P. Kraus, H. Kruse, M. H. Lechner, M. C. Schieber, R. A. Shaw,
    A. Alenaizan, R. Galvelis, Z. L. Glick, S. Lehtola, and J. P. Misiewicz

    -----------------------------------------------------------------------


    Psi4 started on: Sunday, 26 June 2011 12:46AM

    Process ID: 94543
    Host:       node142.bme.utexas.edu
    PSIDATADIR: /home/liuchw/anaconda3/envs/psi4env/share/psi4
    Memory:     500.0 MiB
    Threads:    6
    
  ==> Input File <==

--------------------------------------------------------------------------
#Generated by lconvert.py for cbs job

memory 40 GB

molecule  {
0 1
  C       -1.1136260     1.3270200     0.2751670
  O       -0.4670830     2.3493880     0.4615370
  O       -0.5780890     0.1369200     0.0496170
  H        0.4133200     0.2032570     0.0554870
  C       -2.6114250     1.2861900     0.2773610
  H       -3.0066490     2.2768850     0.4657900
  H       -2.9642560     0.9152590    -0.6820010
  H       -2.9531140     0.5917980     1.0412400
--
0 1
  N        4.0265360     1.0838620     0.1834930
  H        4.4197420     0.1684720     0.0117740
  C        4.9480640     2.1319780     0.3649460
  O        6.1452110     1.9136820     0.3120660
  C        4.3089980     3.4114400     0.6055530
  H        4.9285330     4.2783650     0.7570310
  C        2.9619140     3.4914300     0.6349350
  H        2.4390740     4.4198770     0.8102330
  N        2.1581830     2.4007480     0.4445290
  H        1.1341310     2.4706960     0.4683190
  C        2.6581160     1.1505250     0.2103560
  O        1.9460830     0.1610200     0.0368860
units angstrom
no_reorient
symmetry c1
}

set {
scf_type DF
mp2_type DF
e_convergence 7
reference rhf
}

energy('mp2/aug-cc-pv[tq]z', bsse_type='cp')
--------------------------------------------------------------------------

  Memory set to  37.253 GiB by Python driver.

Scratch directory: /scratch//


   ===> N-Body Interaction Abacus <===
        BSSE Treatment:                     cp
        Number of 1-body computations:     4
        Number of 2-body computations:     1

   ==> N-Body: Now computing 1-body complexes <==


       N-Body: Computing complex (1/4) with fragments (2,) in the basis of fragments (2,).


Scratch directory: /scratch//

  //>>>>>>>>>>>>>>>>>>>>>>>>>>>>>>>>>>>//
  //   CBS Setup: mp2/aug-cc-pv[tq]z   //
  //<<<<<<<<<<<<<<<<<<<<<<<<<<<<<<<<<<<//

    Naive listing of computations required.
             hf / aug-cc-pvqz              for  HF TOTAL ENERGY
            mp2 / aug-cc-pvtz              for  MP2 TOTAL ENERGY
            mp2 / aug-cc-pvqz              for  MP2 TOTAL ENERGY
             hf / aug-cc-pvtz              for  HF TOTAL ENERGY
             hf / aug-cc-pvqz              for  HF TOTAL ENERGY

    Enlightened listing of computations required.
            mp2 / aug-cc-pvtz              for  MP2 TOTAL ENERGY
            mp2 / aug-cc-pvqz              for  MP2 TOTAL ENERGY

    Full listing of computations to be obtained (required and bonus).
             hf / aug-cc-pvtz              for  HF TOTAL ENERGY
            mp2 / aug-cc-pvtz              for  MP2 TOTAL ENERGY
             hf / aug-cc-pvqz              for  HF TOTAL ENERGY
            mp2 / aug-cc-pvqz              for  MP2 TOTAL ENERGY

  //>>>>>>>>>>>>>>>>>>>>>>>>>>>>>>>>>>>>//
  // CBS Computation: MP2 / AUG-CC-PVTZ //
  //<<<<<<<<<<<<<<<<<<<<<<<<<<<<<<<<<<<<//


Scratch directory: /scratch//

*** tstart() called on node142.bme.utexas.edu
*** at Sun Jun 26 00:46:58 2011

   => Loading Basis Set <=

    Name: AUG-CC-PVTZ
    Role: ORBITAL
    Keyword: BASIS
    atoms 1, 9        entry N          line   285 file /home/liuchw/anaconda3/envs/psi4env/share/psi4/basis/aug-cc-pvtz.gbs 
    atoms 2, 6, 8, 10 entry H          line    40 file /home/liuchw/anaconda3/envs/psi4env/share/psi4/basis/aug-cc-pvtz.gbs 
    atoms 3, 5, 7, 11 entry C          line   239 file /home/liuchw/anaconda3/envs/psi4env/share/psi4/basis/aug-cc-pvtz.gbs 
    atoms 4, 12       entry O          line   331 file /home/liuchw/anaconda3/envs/psi4env/share/psi4/basis/aug-cc-pvtz.gbs 


         ---------------------------------------------------------
                                   SCF
               by Justin Turney, Rob Parrish, Andy Simmonett
                          and Daniel G. A. Smith
                              RHF Reference
                        6 Threads,  38146 MiB Core
         ---------------------------------------------------------

  ==> Geometry <==

    Molecular point group: c1
    Full point group: C1

    Geometry (in Angstrom), charge = 0, multiplicity = 1:

       Center              X                  Y                   Z               Mass       
    ------------   -----------------  -----------------  -----------------  -----------------
         N            2.064431313692    -0.606218967887    -0.129919726668    14.003074004430
         H            2.457637313692    -1.521608967887    -0.301638726668     1.007825032230
         C            2.985959313692     0.441897032113     0.051533273332    12.000000000000
         O            4.183106313692     0.223601032113    -0.001346726668    15.994914619570
         C            2.346893313692     1.721359032113     0.292140273332    12.000000000000
         H            2.966428313692     2.588284032113     0.443618273332     1.007825032230
         C            0.999809313692     1.801349032113     0.321522273332    12.000000000000
         H            0.476969313692     2.729796032113     0.496820273332     1.007825032230
         N            0.196078313692     0.710667032113     0.131116273332    14.003074004430
         H           -0.827973686308     0.780615032113     0.154906273332     1.007825032230
         C            0.696011313692    -0.539555967887    -0.103056726668    12.000000000000
         O           -0.016021686308    -1.529060967887    -0.276526726668    15.994914619570

  Running in c1 symmetry.

  Rotational constants: A =      0.12530  B =      0.02984  C =      0.02410 [cm^-1]
  Rotational constants: A =   3756.45555  B =    894.49961  C =    722.46498 [MHz]
  Nuclear repulsion =  357.302396036070945

  Charge       = 0
  Multiplicity = 1
  Electrons    = 58
  Nalpha       = 29
  Nbeta        = 29

  ==> Algorithm <==

  SCF Algorithm Type is DF.
  DIIS enabled.
  MOM disabled.
  Fractional occupation disabled.
  Guess Type is SAD.
  Energy threshold   = 1.00e-07
  Density threshold  = 1.00e-08
  Integral threshold = 0.00e+00

  ==> Primary Basis <==

  Basis Set: AUG-CC-PVTZ
    Blend: AUG-CC-PVTZ
    Number of shells: 148
    Number of basis function: 460
    Number of Cartesian functions: 540
    Spherical Harmonics?: true
    Max angular momentum: 3

   => Loading Basis Set <=

    Name: (AUG-CC-PVTZ AUX)
    Role: JKFIT
    Keyword: DF_BASIS_SCF
    atoms 1, 9        entry N          line   224 file /home/liuchw/anaconda3/envs/psi4env/share/psi4/basis/aug-cc-pvtz-jkfit.gbs 
    atoms 2, 6, 8, 10 entry H          line    70 file /home/liuchw/anaconda3/envs/psi4env/share/psi4/basis/aug-cc-pvtz-jkfit.gbs 
    atoms 3, 5, 7, 11 entry C          line   162 file /home/liuchw/anaconda3/envs/psi4env/share/psi4/basis/aug-cc-pvtz-jkfit.gbs 
    atoms 4, 12       entry O          line   286 file /home/liuchw/anaconda3/envs/psi4env/share/psi4/basis/aug-cc-pvtz-jkfit.gbs 

  ==> Pre-Iterations <==

   -------------------------------------------------------
    Irrep   Nso     Nmo     Nalpha   Nbeta   Ndocc  Nsocc
   -------------------------------------------------------
     A        460     460       0       0       0       0
   -------------------------------------------------------
    Total     460     460      29      29      29       0
   -------------------------------------------------------

  ==> Integral Setup <==

  DFHelper Memory: AOs need 1.623 GiB; user supplied 27.940 GiB. Using in-core AOs.

  ==> MemDFJK: Density-Fitted J/K Matrices <==

    J tasked:                   Yes
    K tasked:                   Yes
    wK tasked:                   No
    OpenMP threads:               6
    Memory [MiB]:             28610
    Algorithm:                 Core
    Schwarz Cutoff:           1E-12
    Mask sparsity (%):       2.4159
    Fitting Condition:        1E-10

   => Auxiliary Basis Set <=

  Basis Set: (AUG-CC-PVTZ AUX)
    Blend: AUG-CC-PVTZ-JKFIT
    Number of shells: 296
    Number of basis function: 1016
    Number of Cartesian functions: 1268
    Spherical Harmonics?: true
    Max angular momentum: 4

  Minimum eigenvalue in the overlap matrix is 4.2095753210E-06.
  Using Symmetric Orthogonalization.

  SCF Guess: Superposition of Atomic Densities via on-the-fly atomic UHF.

  ==> Iterations <==

                           Total Energy        Delta E     RMS |[F,P]|

   @DF-RHF iter SAD:  -411.97385155283553   -4.11974e+02   0.00000e+00 
   @DF-RHF iter   1:  -412.37552183234851   -4.01670e-01   1.62179e-03 DIIS
   @DF-RHF iter   2:  -412.53822034616866   -1.62699e-01   1.07758e-03 DIIS
   @DF-RHF iter   3:  -412.61735044276782   -7.91301e-02   1.94307e-04 DIIS
   @DF-RHF iter   4:  -412.62159955049907   -4.24911e-03   7.94582e-05 DIIS
   @DF-RHF iter   5:  -412.62247964591739   -8.80095e-04   1.61800e-05 DIIS
   @DF-RHF iter   6:  -412.62258350341068   -1.03857e-04   8.06838e-06 DIIS
   @DF-RHF iter   7:  -412.62260164908889   -1.81457e-05   3.28372e-06 DIIS
   @DF-RHF iter   8:  -412.62260488629551   -3.23721e-06   1.08623e-06 DIIS
   @DF-RHF iter   9:  -412.62260513132469   -2.45029e-07   4.65511e-07 DIIS
   @DF-RHF iter  10:  -412.62260519011403   -5.87893e-08   1.57312e-07 DIIS
   @DF-RHF iter  11:  -412.62260519779051   -7.67648e-09   5.15439e-08 DIIS
   @DF-RHF iter  12:  -412.62260519838759   -5.97083e-10   1.67862e-08 DIIS
   @DF-RHF iter  13:  -412.62260519845751   -6.99174e-11   5.72050e-09 DIIS
  Energy and wave function converged.


  ==> Post-Iterations <==

    Orbital Energies [Eh]
    ---------------------

    Doubly Occupied:                                                      

       1A    -20.543936     2A    -20.541198     3A    -15.650153  
       4A    -15.628085     5A    -11.416739     6A    -11.382419  
       7A    -11.343638     8A    -11.258705     9A     -1.431926  
      10A     -1.397777    11A     -1.313244    12A     -1.247464  
      13A     -1.091212    14A     -0.938294    15A     -0.901594  
      16A     -0.808286    17A     -0.768262    18A     -0.716110  
      19A     -0.677713    20A     -0.670932    21A     -0.648611  
      22A     -0.616196    23A     -0.602665    24A     -0.571886  
      25A     -0.524081    26A     -0.480775    27A     -0.449433  
      28A     -0.435594    29A     -0.371577  

    Virtual:                                                              

      30A      0.013575    31A      0.033189    32A      0.041173  
      33A      0.050780    34A      0.056730    35A      0.076244  
      36A      0.079813    37A      0.086645    38A      0.092672  
      39A      0.099510    40A      0.106538    41A      0.106863  
      42A      0.115716    43A      0.121743    44A      0.124188  
      45A      0.134446    46A      0.138181    47A      0.145074  
      48A      0.156444    49A      0.159455    50A      0.163562  
      51A      0.164145    52A      0.176211    53A      0.200789  
      54A      0.210042    55A      0.214381    56A      0.218599  
      57A      0.228785    58A      0.240720    59A      0.248490  
      60A      0.263116    61A      0.264218    62A      0.267785  
      63A      0.269864    64A      0.271041    65A      0.276638  
      66A      0.285578    67A      0.292281    68A      0.296236  
      69A      0.310034    70A      0.313711    71A      0.329273  
      72A      0.330498    73A      0.344953    74A      0.350144  
      75A      0.353896    76A      0.358041    77A      0.365486  
      78A      0.374176    79A      0.375514    80A      0.390980  
      81A      0.398212    82A      0.414443    83A      0.415546  
      84A      0.424514    85A      0.432603    86A      0.434462  
      87A      0.448689    88A      0.453554    89A      0.459190  
      90A      0.464185    91A      0.468858    92A      0.471180  
      93A      0.483555    94A      0.495880    95A      0.501193  
      96A      0.513361    97A      0.520816    98A      0.522062  
      99A      0.524804   100A      0.538736   101A      0.562192  
     102A      0.572443   103A      0.595980   104A      0.599500  
     105A      0.599996   106A      0.611504   107A      0.619595  
     108A      0.628829   109A      0.638546   110A      0.644267  
     111A      0.663753   112A      0.672375   113A      0.681964  
     114A      0.682244   115A      0.692763   116A      0.711646  
     117A      0.714977   118A      0.734344   119A      0.735420  
     120A      0.746466   121A      0.753040   122A      0.755619  
     123A      0.772922   124A      0.774614   125A      0.804075  
     126A      0.808277   127A      0.825779   128A      0.841331  
     129A      0.848756   130A      0.848832   131A      0.870440  
     132A      0.877321   133A      0.881288   134A      0.892669  
     135A      0.893623   136A      0.911268   137A      0.914970  
     138A      0.917905   139A      0.929507   140A      0.937967  
     141A      0.938789   142A      0.948354   143A      0.954093  
     144A      0.960195   145A      0.974807   146A      0.981104  
     147A      0.984485   148A      1.000114   149A      1.008703  
     150A      1.017753   151A      1.033269   152A      1.051849  
     153A      1.052172   154A      1.073366   155A      1.085249  
     156A      1.088230   157A      1.098711   158A      1.110921  
     159A      1.116238   160A      1.128135   161A      1.128547  
     162A      1.137667   163A      1.146451   164A      1.152974  
     165A      1.167936   166A      1.174335   167A      1.183166  
     168A      1.184134   169A      1.190905   170A      1.213257  
     171A      1.215707   172A      1.229226   173A      1.231525  
     174A      1.242007   175A      1.265356   176A      1.281573  
     177A      1.288157   178A      1.300048   179A      1.325920  
     180A      1.329820   181A      1.347273   182A      1.362875  
     183A      1.367579   184A      1.372726   185A      1.391779  
     186A      1.405214   187A      1.411252   188A      1.419800  
     189A      1.433787   190A      1.433847   191A      1.458553  
     192A      1.461650   193A      1.482356   194A      1.490473  
     195A      1.494841   196A      1.509015   197A      1.515151  
     198A      1.526515   199A      1.551698   200A      1.562614  
     201A      1.576316   202A      1.578929   203A      1.598359  
     204A      1.626513   205A      1.641917   206A      1.642843  
     207A      1.653029   208A      1.668503   209A      1.687641  
     210A      1.701670   211A      1.704439   212A      1.729760  
     213A      1.736689   214A      1.764460   215A      1.793877  
     216A      1.826570   217A      1.838433   218A      1.859594  
     219A      1.867966   220A      1.874606   221A      1.874786  
     222A      1.916244   223A      1.921214   224A      1.929103  
     225A      1.930509   226A      1.982990   227A      2.004727  
     228A      2.005970   229A      2.022507   230A      2.100015  
     231A      2.101606   232A      2.115820   233A      2.122910  
     234A      2.140434   235A      2.146631   236A      2.154728  
     237A      2.162920   238A      2.190340   239A      2.202814  
     240A      2.210131   241A      2.229803   242A      2.262108  
     243A      2.271624   244A      2.279608   245A      2.303463  
     246A      2.327521   247A      2.352011   248A      2.365889  
     249A      2.398797   250A      2.407960   251A      2.411577  
     252A      2.433855   253A      2.453069   254A      2.470017  
     255A      2.479694   256A      2.483762   257A      2.500503  
     258A      2.511457   259A      2.532484   260A      2.541061  
     261A      2.556864   262A      2.570400   263A      2.578267  
     264A      2.586937   265A      2.607891   266A      2.616206  
     267A      2.644689   268A      2.667199   269A      2.679061  
     270A      2.696598   271A      2.706009   272A      2.756663  
     273A      2.765190   274A      2.767066   275A      2.779275  
     276A      2.819475   277A      2.835741   278A      2.842964  
     279A      2.871158   280A      2.919566   281A      2.929315  
     282A      2.963735   283A      2.969072   284A      2.999734  
     285A      3.008718   286A      3.015138   287A      3.046583  
     288A      3.122415   289A      3.122584   290A      3.184707  
     291A      3.199450   292A      3.201559   293A      3.245367  
     294A      3.254418   295A      3.263766   296A      3.283742  
     297A      3.299839   298A      3.339083   299A      3.361492  
     300A      3.426689   301A      3.429822   302A      3.439345  
     303A      3.470619   304A      3.478619   305A      3.512137  
     306A      3.530500   307A      3.533555   308A      3.580849  
     309A      3.599979   310A      3.611334   311A      3.641777  
     312A      3.643875   313A      3.685010   314A      3.690258  
     315A      3.713545   316A      3.749277   317A      3.749530  
     318A      3.759381   319A      3.775320   320A      3.811514  
     321A      3.830720   322A      3.845561   323A      3.884435  
     324A      3.892442   325A      3.919896   326A      3.945330  
     327A      3.945407   328A      3.985310   329A      3.999966  
     330A      4.055328   331A      4.072621   332A      4.076239  
     333A      4.103323   334A      4.116470   335A      4.150753  
     336A      4.165526   337A      4.194670   338A      4.206157  
     339A      4.222562   340A      4.242753   341A      4.249313  
     342A      4.277635   343A      4.286388   344A      4.305439  
     345A      4.333586   346A      4.337779   347A      4.367118  
     348A      4.372514   349A      4.419492   350A      4.423922  
     351A      4.434365   352A      4.456371   353A      4.461808  
     354A      4.503581   355A      4.551889   356A      4.601338  
     357A      4.623423   358A      4.629285   359A      4.662762  
     360A      4.677368   361A      4.688367   362A      4.724377  
     363A      4.754791   364A      4.762178   365A      4.806267  
     366A      4.846520   367A      4.855728   368A      4.890270  
     369A      4.906789   370A      4.920580   371A      4.951164  
     372A      5.003072   373A      5.015265   374A      5.040941  
     375A      5.071658   376A      5.099563   377A      5.106210  
     378A      5.111283   379A      5.117802   380A      5.134980  
     381A      5.206751   382A      5.227853   383A      5.256146  
     384A      5.311151   385A      5.359919   386A      5.406736  
     387A      5.416190   388A      5.476719   389A      5.483025  
     390A      5.489542   391A      5.516662   392A      5.519273  
     393A      5.562089   394A      5.589753   395A      5.613420  
     396A      5.659196   397A      5.702863   398A      5.743221  
     399A      5.782065   400A      5.786360   401A      5.801476  
     402A      5.817909   403A      5.851701   404A      5.909518  
     405A      5.979801   406A      6.001061   407A      6.016523  
     408A      6.039131   409A      6.064733   410A      6.104739  
     411A      6.151090   412A      6.174262   413A      6.257860  
     414A      6.264864   415A      6.455861   416A      6.542998  
     417A      6.582741   418A      6.623935   419A      6.659572  
     420A      6.665581   421A      6.707475   422A      6.732816  
     423A      6.739055   424A      6.806073   425A      6.822994  
     426A      6.838192   427A      6.854514   428A      6.933559  
     429A      6.947800   430A      7.002046   431A      7.002229  
     432A      7.109892   433A      7.130454   434A      7.190455  
     435A      7.248855   436A      7.330803   437A      7.370816  
     438A      7.371743   439A      7.387374   440A      7.397287  
     441A      7.451079   442A      7.639471   443A      7.644173  
     444A      7.680460   445A      7.702291   446A      7.806226  
     447A      7.850954   448A      7.910166   449A      7.938469  
     450A      7.975470   451A      8.028442   452A      8.115920  
     453A     15.755248   454A     15.950382   455A     16.387866  
     456A     16.938519   457A     18.271865   458A     19.407255  
     459A     19.725484   460A     20.493114  

    Final Occupation by Irrep:
              A 
    DOCC [    29 ]

  @DF-RHF Final Energy:  -412.62260519845751

   => Energetics <=

    Nuclear Repulsion Energy =            357.3023960360709452
    One-Electron Energy =               -1270.9929858324323959
    Two-Electron Energy =                 501.0679845979039442
    Total Energy =                       -412.6226051984575065

Computation Completed


Properties will be evaluated at   0.000000,   0.000000,   0.000000 [a0]

Properties computed using the SCF density matrix

  Nuclear Dipole Moment: [e a0]
     X:   182.1797      Y:    29.1298      Z:     3.6886

  Electronic Dipole Moment: [e a0]
     X:  -183.3868      Y:   -27.5113      Z:    -3.3796

  Dipole Moment: [e a0]
     X:    -1.2071      Y:     1.6185      Z:     0.3090     Total:     2.0426

  Dipole Moment: [D]
     X:    -3.0681      Y:     4.1139      Z:     0.7854     Total:     5.1918


*** tstop() called on node142.bme.utexas.edu at Sun Jun 26 00:47:12 2011
Module time:
	user time   =      71.99 seconds =       1.20 minutes
	system time =       2.16 seconds =       0.04 minutes
	total time  =         14 seconds =       0.23 minutes
Total time:
	user time   =      71.99 seconds =       1.20 minutes
	system time =       2.16 seconds =       0.04 minutes
	total time  =         14 seconds =       0.23 minutes

*** tstart() called on node142.bme.utexas.edu
*** at Sun Jun 26 00:47:12 2011


  //>>>>>>>>>>>>>>>>>>>>>>>>>>>>>>>>>>>//
  //               DFMP2               //
  //<<<<<<<<<<<<<<<<<<<<<<<<<<<<<<<<<<<//

   => Loading Basis Set <=

    Name: (AUG-CC-PVTZ AUX)
    Role: RIFIT
    Keyword: DF_BASIS_MP2
    atoms 1, 9        entry N          line   206 file /home/liuchw/anaconda3/envs/psi4env/share/psi4/basis/aug-cc-pvtz-ri.gbs 
    atoms 2, 6, 8, 10 entry H          line    30 file /home/liuchw/anaconda3/envs/psi4env/share/psi4/basis/aug-cc-pvtz-ri.gbs 
    atoms 3, 5, 7, 11 entry C          line   148 file /home/liuchw/anaconda3/envs/psi4env/share/psi4/basis/aug-cc-pvtz-ri.gbs 
    atoms 4, 12       entry O          line   264 file /home/liuchw/anaconda3/envs/psi4env/share/psi4/basis/aug-cc-pvtz-ri.gbs 

	 --------------------------------------------------------
	                          DF-MP2                         
	      2nd-Order Density-Fitted Moller-Plesset Theory     
	              RMP2 Wavefunction,   6 Threads             
	                                                         
	        Rob Parrish, Justin Turney, Andy Simmonett,      
	           Ed Hohenstein, and C. David Sherrill          
	 --------------------------------------------------------

   => Auxiliary Basis Set <=

  Basis Set: (AUG-CC-PVTZ AUX)
    Blend: AUG-CC-PVTZ-RI
    Number of shells: 280
    Number of basis function: 1032
    Number of Cartesian functions: 1308
    Spherical Harmonics?: true
    Max angular momentum: 4

	 --------------------------------------------------------
	                 NBF =   460, NAUX =  1032
	 --------------------------------------------------------
	   CLASS    FOCC     OCC    AOCC    AVIR     VIR    FVIR
	   PAIRS       0      29      29     431     431       0
	 --------------------------------------------------------

	-----------------------------------------------------------
	 ==================> DF-MP2 Energies <==================== 
	-----------------------------------------------------------
	 Reference Energy          =    -412.6226051984575065 [Eh]
	 Singles Energy            =      -0.0000000000000000 [Eh]
	 Same-Spin Energy          =      -0.4144694321373890 [Eh]
	 Opposite-Spin Energy      =      -1.2270036916062681 [Eh]
	 Correlation Energy        =      -1.6414731237436571 [Eh]
	 Total Energy              =    -414.2640783222011578 [Eh]
	-----------------------------------------------------------
	 ================> DF-SCS-MP2 Energies <================== 
	-----------------------------------------------------------
	 SCS Same-Spin Scale       =       0.3333333333333333 [-]
	 SCS Opposite-Spin Scale   =       1.2000000000000000 [-]
	 SCS Same-Spin Energy      =      -0.1381564773791296 [Eh]
	 SCS Opposite-Spin Energy  =      -1.4724044299275216 [Eh]
	 SCS Correlation Energy    =      -1.6105609073066514 [Eh]
	 SCS Total Energy          =    -414.2331661057641554 [Eh]
	-----------------------------------------------------------


*** tstop() called on node142.bme.utexas.edu at Sun Jun 26 00:47:19 2011
Module time:
	user time   =      33.39 seconds =       0.56 minutes
	system time =       1.03 seconds =       0.02 minutes
	total time  =          7 seconds =       0.12 minutes
Total time:
	user time   =     105.39 seconds =       1.76 minutes
	system time =       3.19 seconds =       0.05 minutes
	total time  =         21 seconds =       0.35 minutes

  //>>>>>>>>>>>>>>>>>>>>>>>>>>>>>>>>>>>>//
  // CBS Computation: MP2 / AUG-CC-PVQZ //
  //<<<<<<<<<<<<<<<<<<<<<<<<<<<<<<<<<<<<//


Scratch directory: /scratch//

*** tstart() called on node142.bme.utexas.edu
*** at Sun Jun 26 00:47:19 2011

   => Loading Basis Set <=

    Name: AUG-CC-PVQZ
    Role: ORBITAL
    Keyword: BASIS
    atoms 1, 9        entry N          line   363 file /home/liuchw/anaconda3/envs/psi4env/share/psi4/basis/aug-cc-pvqz.gbs 
    atoms 2, 6, 8, 10 entry H          line    40 file /home/liuchw/anaconda3/envs/psi4env/share/psi4/basis/aug-cc-pvqz.gbs 
    atoms 3, 5, 7, 11 entry C          line   303 file /home/liuchw/anaconda3/envs/psi4env/share/psi4/basis/aug-cc-pvqz.gbs 
    atoms 4, 12       entry O          line   423 file /home/liuchw/anaconda3/envs/psi4env/share/psi4/basis/aug-cc-pvqz.gbs 


         ---------------------------------------------------------
                                   SCF
               by Justin Turney, Rob Parrish, Andy Simmonett
                          and Daniel G. A. Smith
                              RHF Reference
                        6 Threads,  38146 MiB Core
         ---------------------------------------------------------

  ==> Geometry <==

    Molecular point group: c1
    Full point group: C1

    Geometry (in Angstrom), charge = 0, multiplicity = 1:

       Center              X                  Y                   Z               Mass       
    ------------   -----------------  -----------------  -----------------  -----------------
         N            2.064431313692    -0.606218967887    -0.129919726668    14.003074004430
         H            2.457637313692    -1.521608967887    -0.301638726668     1.007825032230
         C            2.985959313692     0.441897032113     0.051533273332    12.000000000000
         O            4.183106313692     0.223601032113    -0.001346726668    15.994914619570
         C            2.346893313692     1.721359032113     0.292140273332    12.000000000000
         H            2.966428313692     2.588284032113     0.443618273332     1.007825032230
         C            0.999809313692     1.801349032113     0.321522273332    12.000000000000
         H            0.476969313692     2.729796032113     0.496820273332     1.007825032230
         N            0.196078313692     0.710667032113     0.131116273332    14.003074004430
         H           -0.827973686308     0.780615032113     0.154906273332     1.007825032230
         C            0.696011313692    -0.539555967887    -0.103056726668    12.000000000000
         O           -0.016021686308    -1.529060967887    -0.276526726668    15.994914619570

  Running in c1 symmetry.

  Rotational constants: A =      0.12530  B =      0.02984  C =      0.02410 [cm^-1]
  Rotational constants: A =   3756.45555  B =    894.49961  C =    722.46498 [MHz]
  Nuclear repulsion =  357.302396036070945

  Charge       = 0
  Multiplicity = 1
  Electrons    = 58
  Nalpha       = 29
  Nbeta        = 29

  ==> Algorithm <==

  SCF Algorithm Type is DF.
  DIIS enabled.
  MOM disabled.
  Fractional occupation disabled.
  Guess Type is SAD.
  Energy threshold   = 1.00e-07
  Density threshold  = 1.00e-08
  Integral threshold = 0.00e+00

  ==> Primary Basis <==

  Basis Set: AUG-CC-PVQZ
    Blend: AUG-CC-PVQZ
    Number of shells: 216
    Number of basis function: 824
    Number of Cartesian functions: 1060
    Spherical Harmonics?: true
    Max angular momentum: 4

   => Loading Basis Set <=

    Name: (AUG-CC-PVQZ AUX)
    Role: JKFIT
    Keyword: DF_BASIS_SCF
    atoms 1, 9        entry N          line   248 file /home/liuchw/anaconda3/envs/psi4env/share/psi4/basis/aug-cc-pvqz-jkfit.gbs 
    atoms 2, 6, 8, 10 entry H          line    70 file /home/liuchw/anaconda3/envs/psi4env/share/psi4/basis/aug-cc-pvqz-jkfit.gbs 
    atoms 3, 5, 7, 11 entry C          line   178 file /home/liuchw/anaconda3/envs/psi4env/share/psi4/basis/aug-cc-pvqz-jkfit.gbs 
    atoms 4, 12       entry O          line   318 file /home/liuchw/anaconda3/envs/psi4env/share/psi4/basis/aug-cc-pvqz-jkfit.gbs 

  ==> Pre-Iterations <==

   -------------------------------------------------------
    Irrep   Nso     Nmo     Nalpha   Nbeta   Ndocc  Nsocc
   -------------------------------------------------------
     A        824     824       0       0       0       0
   -------------------------------------------------------
    Total     824     824      29      29      29       0
   -------------------------------------------------------

  ==> Integral Setup <==

  DFHelper Memory: AOs need 7.120 GiB; user supplied 27.940 GiB. Using in-core AOs.

  ==> MemDFJK: Density-Fitted J/K Matrices <==

    J tasked:                   Yes
    K tasked:                   Yes
    wK tasked:                   No
    OpenMP threads:               6
    Memory [MiB]:             28610
    Algorithm:                 Core
    Schwarz Cutoff:           1E-12
    Mask sparsity (%):       5.1766
    Fitting Condition:        1E-10

   => Auxiliary Basis Set <=

  Basis Set: (AUG-CC-PVQZ AUX)
    Blend: AUG-CC-PVQZ-JKFIT
    Number of shells: 344
    Number of basis function: 1440
    Number of Cartesian functions: 1988
    Spherical Harmonics?: true
    Max angular momentum: 5

  Minimum eigenvalue in the overlap matrix is 9.5378889031E-07.
  Using Symmetric Orthogonalization.

  SCF Guess: Superposition of Atomic Densities via on-the-fly atomic UHF.

  ==> Iterations <==

                           Total Energy        Delta E     RMS |[F,P]|

   @DF-RHF iter SAD:  -411.99692729852967   -4.11997e+02   0.00000e+00 
   @DF-RHF iter   1:  -412.40039716884752   -4.03470e-01   9.08041e-04 DIIS
   @DF-RHF iter   2:  -412.56340822936409   -1.63011e-01   6.03558e-04 DIIS
   @DF-RHF iter   3:  -412.64280011796427   -7.93919e-02   1.09027e-04 DIIS
   @DF-RHF iter   4:  -412.64706631997223   -4.26620e-03   4.47264e-05 DIIS
   @DF-RHF iter   5:  -412.64795160277043   -8.85283e-04   9.11487e-06 DIIS
   @DF-RHF iter   6:  -412.64805629006020   -1.04687e-04   4.52634e-06 DIIS
   @DF-RHF iter   7:  -412.64807477685332   -1.84868e-05   1.86750e-06 DIIS
   @DF-RHF iter   8:  -412.64807811081153   -3.33396e-06   6.15870e-07 DIIS
   @DF-RHF iter   9:  -412.64807836792960   -2.57118e-07   2.66773e-07 DIIS
   @DF-RHF iter  10:  -412.64807842772143   -5.97918e-08   9.05590e-08 DIIS
   @DF-RHF iter  11:  -412.64807843583418   -8.11275e-09   2.92040e-08 DIIS
   @DF-RHF iter  12:  -412.64807843645156   -6.17376e-10   9.72875e-09 DIIS
  Energy and wave function converged.


  ==> Post-Iterations <==

    Orbital Energies [Eh]
    ---------------------

    Doubly Occupied:                                                      

       1A    -20.541218     2A    -20.538460     3A    -15.647917  
       4A    -15.625859     5A    -11.415613     6A    -11.381236  
       7A    -11.342561     8A    -11.257515     9A     -1.431166  
      10A     -1.396890    11A     -1.312563    12A     -1.246870  
      13A     -1.090822    14A     -0.938069    15A     -0.901316  
      16A     -0.808230    17A     -0.768207    18A     -0.716078  
      19A     -0.677657    20A     -0.670982    21A     -0.648600  
      22A     -0.616210    23A     -0.602721    24A     -0.571934  
      25A     -0.524177    26A     -0.480846    27A     -0.449521  
      28A     -0.435727    29A     -0.371718  

    Virtual:                                                              

      30A      0.011222    31A      0.029535    32A      0.036810  
      33A      0.045991    34A      0.047839    35A      0.068490  
      36A      0.072154    37A      0.075960    38A      0.078888  
      39A      0.085162    40A      0.091042    41A      0.092386  
      42A      0.099868    43A      0.105618    44A      0.109666  
      45A      0.116599    46A      0.120014    47A      0.126638  
      48A      0.135776    49A      0.136143    50A      0.141467  
      51A      0.154345    52A      0.155884    53A      0.168702  
      54A      0.179537    55A      0.182581    56A      0.186693  
      57A      0.195629    58A      0.205808    59A      0.208203  
      60A      0.220659    61A      0.223403    62A      0.226976  
      63A      0.227143    64A      0.228391    65A      0.235884  
      66A      0.242165    67A      0.252442    68A      0.255975  
      69A      0.263824    70A      0.268234    71A      0.273422  
      72A      0.280658    73A      0.281199    74A      0.292279  
      75A      0.294275    76A      0.296632    77A      0.308589  
      78A      0.320177    79A      0.320424    80A      0.329842  
      81A      0.329914    82A      0.335607    83A      0.345553  
      84A      0.353988    85A      0.354379    86A      0.358468  
      87A      0.361997    88A      0.368807    89A      0.374044  
      90A      0.389112    91A      0.390946    92A      0.406532  
      93A      0.414537    94A      0.418416    95A      0.421850  
      96A      0.427920    97A      0.436809    98A      0.441691  
      99A      0.452282   100A      0.458827   101A      0.460207  
     102A      0.467820   103A      0.471643   104A      0.477873  
     105A      0.480434   106A      0.488587   107A      0.498705  
     108A      0.504895   109A      0.507373   110A      0.520447  
     111A      0.535779   112A      0.535844   113A      0.540688  
     114A      0.540699   115A      0.556734   116A      0.567301  
     117A      0.567906   118A      0.578246   119A      0.581036  
     120A      0.595532   121A      0.595728   122A      0.602519  
     123A      0.605884   124A      0.625833   125A      0.628080  
     126A      0.642367   127A      0.643197   128A      0.653047  
     129A      0.661000   130A      0.667362   131A      0.673990  
     132A      0.679856   133A      0.684699   134A      0.700797  
     135A      0.700894   136A      0.710490   137A      0.713516  
     138A      0.714617   139A      0.720885   140A      0.720939  
     141A      0.723253   142A      0.729830   143A      0.745191  
     144A      0.750444   145A      0.755559   146A      0.761057  
     147A      0.770917   148A      0.779207   149A      0.788077  
     150A      0.790196   151A      0.792791   152A      0.806857  
     153A      0.809407   154A      0.838083   155A      0.842304  
     156A      0.848582   157A      0.857608   158A      0.864598  
     159A      0.865458   160A      0.875033   161A      0.877159  
     162A      0.883895   163A      0.887683   164A      0.887897  
     165A      0.892468   166A      0.909979   167A      0.929036  
     168A      0.934635   169A      0.938304   170A      0.942871  
     171A      0.944461   172A      0.950088   173A      0.957108  
     174A      0.970024   175A      0.974021   176A      0.977267  
     177A      0.982562   178A      0.992679   179A      1.005726  
     180A      1.013952   181A      1.015232   182A      1.023162  
     183A      1.033800   184A      1.048496   185A      1.066221  
     186A      1.073889   187A      1.086088   188A      1.087590  
     189A      1.089483   190A      1.107237   191A      1.107425  
     192A      1.113328   193A      1.129388   194A      1.146976  
     195A      1.150388   196A      1.152250   197A      1.158704  
     198A      1.175094   199A      1.181237   200A      1.190610  
     201A      1.205150   202A      1.219666   203A      1.225800  
     204A      1.225946   205A      1.235901   206A      1.240201  
     207A      1.257423   208A      1.263242   209A      1.268941  
     210A      1.287214   211A      1.301554   212A      1.302665  
     213A      1.323534   214A      1.329665   215A      1.350664  
     216A      1.364279   217A      1.375593   218A      1.387895  
     219A      1.403263   220A      1.411819   221A      1.419929  
     222A      1.429866   223A      1.430931   224A      1.448585  
     225A      1.472590   226A      1.492442   227A      1.494187  
     228A      1.506735   229A      1.511545   230A      1.520386  
     231A      1.534191   232A      1.543487   233A      1.546248  
     234A      1.559897   235A      1.563106   236A      1.567548  
     237A      1.579849   238A      1.587855   239A      1.601316  
     240A      1.616959   241A      1.635891   242A      1.642314  
     243A      1.648631   244A      1.665773   245A      1.670449  
     246A      1.691507   247A      1.693579   248A      1.700071  
     249A      1.702320   250A      1.714523   251A      1.726892  
     252A      1.732392   253A      1.738276   254A      1.745569  
     255A      1.763154   256A      1.766391   257A      1.774460  
     258A      1.779207   259A      1.784072   260A      1.795894  
     261A      1.813199   262A      1.818865   263A      1.829314  
     264A      1.834207   265A      1.843540   266A      1.844020  
     267A      1.862457   268A      1.868295   269A      1.885054  
     270A      1.892924   271A      1.908993   272A      1.913159  
     273A      1.917093   274A      1.931145   275A      1.932489  
     276A      1.943045   277A      1.944188   278A      1.954404  
     279A      1.958801   280A      1.971536   281A      1.973626  
     282A      1.983412   283A      1.991770   284A      2.001089  
     285A      2.012318   286A      2.017781   287A      2.025677  
     288A      2.039581   289A      2.049497   290A      2.050892  
     291A      2.055993   292A      2.066726   293A      2.070443  
     294A      2.079347   295A      2.084519   296A      2.103815  
     297A      2.116133   298A      2.126166   299A      2.133106  
     300A      2.134786   301A      2.144552   302A      2.144984  
     303A      2.150773   304A      2.168840   305A      2.189196  
     306A      2.190307   307A      2.198684   308A      2.211196  
     309A      2.218511   310A      2.230945   311A      2.238468  
     312A      2.253686   313A      2.256303   314A      2.260611  
     315A      2.272468   316A      2.282960   317A      2.295251  
     318A      2.299873   319A      2.331413   320A      2.333686  
     321A      2.339575   322A      2.362403   323A      2.369304  
     324A      2.380267   325A      2.381746   326A      2.397503  
     327A      2.398815   328A      2.412939   329A      2.416559  
     330A      2.433181   331A      2.451083   332A      2.472076  
     333A      2.473550   334A      2.478888   335A      2.480339  
     336A      2.516383   337A      2.527031   338A      2.534906  
     339A      2.540060   340A      2.549616   341A      2.563624  
     342A      2.570262   343A      2.591484   344A      2.618858  
     345A      2.645085   346A      2.645758   347A      2.691039  
     348A      2.700826   349A      2.703993   350A      2.712018  
     351A      2.726544   352A      2.735835   353A      2.747800  
     354A      2.760136   355A      2.767684   356A      2.769957  
     357A      2.783576   358A      2.789648   359A      2.795826  
     360A      2.822577   361A      2.836445   362A      2.852802  
     363A      2.867566   364A      2.874813   365A      2.879237  
     366A      2.915334   367A      2.920597   368A      2.922826  
     369A      2.938288   370A      2.951194   371A      2.954531  
     372A      2.965849   373A      2.969501   374A      2.979699  
     375A      3.010324   376A      3.016381   377A      3.046905  
     378A      3.061923   379A      3.070444   380A      3.074813  
     381A      3.105439   382A      3.110014   383A      3.128844  
     384A      3.140351   385A      3.149313   386A      3.159043  
     387A      3.172552   388A      3.188963   389A      3.198344  
     390A      3.224992   391A      3.225799   392A      3.261374  
     393A      3.262548   394A      3.262813   395A      3.275759  
     396A      3.280392   397A      3.302803   398A      3.310326  
     399A      3.324896   400A      3.343112   401A      3.373250  
     402A      3.376977   403A      3.399760   404A      3.406916  
     405A      3.417933   406A      3.446545   407A      3.448480  
     408A      3.459363   409A      3.460902   410A      3.508789  
     411A      3.511457   412A      3.519718   413A      3.545548  
     414A      3.560052   415A      3.560246   416A      3.586140  
     417A      3.603129   418A      3.606590   419A      3.611968  
     420A      3.637719   421A      3.676076   422A      3.699214  
     423A      3.715870   424A      3.736739   425A      3.744296  
     426A      3.753026   427A      3.783499   428A      3.792625  
     429A      3.794102   430A      3.830406   431A      3.852369  
     432A      3.854946   433A      3.885397   434A      3.886415  
     435A      3.894271   436A      3.911646   437A      3.940733  
     438A      3.949438   439A      3.968002   440A      3.977457  
     441A      3.980815   442A      3.984399   443A      3.999739  
     444A      4.001968   445A      4.011954   446A      4.032368  
     447A      4.049965   448A      4.063346   449A      4.067936  
     450A      4.100679   451A      4.111227   452A      4.127608  
     453A      4.127905   454A      4.161865   455A      4.186895  
     456A      4.195831   457A      4.233353   458A      4.263265  
     459A      4.276422   460A      4.279037   461A      4.290333  
     462A      4.292920   463A      4.309633   464A      4.325197  
     465A      4.344752   466A      4.349310   467A      4.367185  
     468A      4.369269   469A      4.380792   470A      4.391368  
     471A      4.404489   472A      4.413560   473A      4.418916  
     474A      4.432060   475A      4.442747   476A      4.465306  
     477A      4.476115   478A      4.477329   479A      4.492096  
     480A      4.511347   481A      4.513618   482A      4.523527  
     483A      4.524446   484A      4.535805   485A      4.555613  
     486A      4.565167   487A      4.572461   488A      4.610089  
     489A      4.647969   490A      4.650234   491A      4.679296  
     492A      4.691778   493A      4.693775   494A      4.702061  
     495A      4.719443   496A      4.757771   497A      4.758427  
     498A      4.760718   499A      4.794714   500A      4.814210  
     501A      4.829710   502A      4.843738   503A      4.851206  
     504A      4.887412   505A      4.894697   506A      4.925548  
     507A      4.926041   508A      4.937515   509A      4.949038  
     510A      5.005077   511A      5.009248   512A      5.017116  
     513A      5.021885   514A      5.072551   515A      5.076389  
     516A      5.096535   517A      5.111017   518A      5.136036  
     519A      5.138582   520A      5.196944   521A      5.222723  
     522A      5.229683   523A      5.283956   524A      5.302411  
     525A      5.320461   526A      5.338394   527A      5.369247  
     528A      5.369613   529A      5.393857   530A      5.428509  
     531A      5.454898   532A      5.492035   533A      5.550219  
     534A      5.552221   535A      5.560294   536A      5.633325  
     537A      5.633563   538A      5.651913   539A      5.667697  
     540A      5.679597   541A      5.728873   542A      5.735981  
     543A      5.775190   544A      5.806846   545A      5.878576  
     546A      5.898806   547A      5.919605   548A      5.935161  
     549A      5.955574   550A      5.974955   551A      5.988450  
     552A      6.035539   553A      6.039757   554A      6.067430  
     555A      6.110806   556A      6.125113   557A      6.141368  
     558A      6.193681   559A      6.208292   560A      6.244695  
     561A      6.280227   562A      6.283862   563A      6.348400  
     564A      6.380873   565A      6.394880   566A      6.428389  
     567A      6.444099   568A      6.468711   569A      6.510237  
     570A      6.514190   571A      6.521627   572A      6.538592  
     573A      6.557664   574A      6.559266   575A      6.591277  
     576A      6.595721   577A      6.634981   578A      6.655155  
     579A      6.655269   580A      6.671868   581A      6.683937  
     582A      6.715836   583A      6.719641   584A      6.745565  
     585A      6.779409   586A      6.826189   587A      6.859899  
     588A      6.873186   589A      6.884832   590A      6.898741  
     591A      6.912538   592A      6.950081   593A      6.959456  
     594A      6.971399   595A      6.973861   596A      7.001259  
     597A      7.005408   598A      7.036976   599A      7.059708  
     600A      7.075237   601A      7.132004   602A      7.134273  
     603A      7.146360   604A      7.184836   605A      7.220649  
     606A      7.227616   607A      7.240269   608A      7.241528  
     609A      7.294956   610A      7.305369   611A      7.335660  
     612A      7.338207   613A      7.358851   614A      7.394038  
     615A      7.400630   616A      7.453264   617A      7.465855  
     618A      7.468602   619A      7.512028   620A      7.524909  
     621A      7.542871   622A      7.575130   623A      7.606046  
     624A      7.645040   625A      7.659923   626A      7.689603  
     627A      7.718010   628A      7.732450   629A      7.750307  
     630A      7.756315   631A      7.789222   632A      7.824626  
     633A      7.833181   634A      7.857614   635A      7.888933  
     636A      7.898319   637A      7.940009   638A      7.953426  
     639A      8.003109   640A      8.012701   641A      8.028637  
     642A      8.050293   643A      8.106774   644A      8.130703  
     645A      8.177876   646A      8.185314   647A      8.223303  
     648A      8.291672   649A      8.319171   650A      8.334485  
     651A      8.374862   652A      8.424162   653A      8.438960  
     654A      8.462246   655A      8.511971   656A      8.514864  
     657A      8.546669   658A      8.565540   659A      8.567315  
     660A      8.580518   661A      8.588862   662A      8.629474  
     663A      8.634079   664A      8.641386   665A      8.706382  
     666A      8.728084   667A      8.728874   668A      8.776384  
     669A      8.819349   670A      8.828239   671A      8.843313  
     672A      8.863452   673A      8.869827   674A      8.913533  
     675A      8.942983   676A      8.966070   677A      8.994978  
     678A      9.049899   679A      9.066164   680A      9.102698  
     681A      9.119167   682A      9.128826   683A      9.136006  
     684A      9.175117   685A      9.181643   686A      9.241681  
     687A      9.276081   688A      9.277019   689A      9.305705  
     690A      9.312124   691A      9.348820   692A      9.370227  
     693A      9.399411   694A      9.423074   695A      9.467075  
     696A      9.490167   697A      9.504180   698A      9.547677  
     699A      9.585149   700A      9.586880   701A      9.640885  
     702A      9.656725   703A      9.686678   704A      9.699027  
     705A      9.779684   706A      9.792858   707A      9.839423  
     708A      9.852292   709A      9.885198   710A      9.924900  
     711A      9.946340   712A      9.974446   713A      9.983873  
     714A      9.989849   715A     10.040441   716A     10.056664  
     717A     10.069466   718A     10.144455   719A     10.157918  
     720A     10.186105   721A     10.221482   722A     10.248941  
     723A     10.263487   724A     10.269796   725A     10.303977  
     726A     10.341446   727A     10.436271   728A     10.524158  
     729A     10.574011   730A     10.613108   731A     10.645312  
     732A     10.669780   733A     10.670850   734A     10.683853  
     735A     10.709066   736A     10.771658   737A     10.797546  
     738A     10.828249   739A     10.840557   740A     10.868258  
     741A     10.879137   742A     10.891585   743A     10.902864  
     744A     11.048828   745A     11.120457   746A     11.139458  
     747A     11.172838   748A     11.178544   749A     11.206877  
     750A     11.208618   751A     11.244704   752A     11.260554  
     753A     11.329070   754A     11.350356   755A     11.362844  
     756A     11.399377   757A     11.412510   758A     11.421449  
     759A     11.456944   760A     11.485432   761A     11.510032  
     762A     11.519209   763A     11.539739   764A     11.606363  
     765A     11.608484   766A     11.636699   767A     11.683606  
     768A     11.771999   769A     11.874588   770A     11.894040  
     771A     11.939979   772A     11.994819   773A     12.004321  
     774A     12.032701   775A     12.095285   776A     12.162511  
     777A     12.165410   778A     12.211615   779A     12.236427  
     780A     12.248386   781A     12.292390   782A     12.347255  
     783A     12.452530   784A     12.517727   785A     12.544812  
     786A     12.553066   787A     12.636061   788A     12.693878  
     789A     12.798271   790A     12.806889   791A     12.841761  
     792A     12.844930   793A     12.935244   794A     12.974433  
     795A     13.233828   796A     13.239740   797A     13.308441  
     798A     13.311630   799A     13.344553   800A     13.403038  
     801A     13.449599   802A     13.489110   803A     13.503375  
     804A     13.557371   805A     13.614074   806A     13.962447  
     807A     14.016534   808A     14.092241   809A     14.273133  
     810A     14.306373   811A     14.768263   812A     14.894930  
     813A     15.088877   814A     15.132109   815A     15.222027  
     816A     15.298781   817A     26.412755   818A     26.633047  
     819A     26.795374   820A     27.174438   821A     35.066547  
     822A     35.208746   823A     44.370704   824A     44.546954  

    Final Occupation by Irrep:
              A 
    DOCC [    29 ]

  @DF-RHF Final Energy:  -412.64807843645156

   => Energetics <=

    Nuclear Repulsion Energy =            357.3023960360709452
    One-Electron Energy =               -1271.0795685794516885
    Two-Electron Energy =                 501.1290941069291875
    Total Energy =                       -412.6480784364515557

Computation Completed


Properties will be evaluated at   0.000000,   0.000000,   0.000000 [a0]

Properties computed using the SCF density matrix

  Nuclear Dipole Moment: [e a0]
     X:   182.1797      Y:    29.1298      Z:     3.6886

  Electronic Dipole Moment: [e a0]
     X:  -183.3862      Y:   -27.5126      Z:    -3.3799

  Dipole Moment: [e a0]
     X:    -1.2065      Y:     1.6172      Z:     0.3088     Total:     2.0412

  Dipole Moment: [D]
     X:    -3.0666      Y:     4.1106      Z:     0.7848     Total:     5.1882


*** tstop() called on node142.bme.utexas.edu at Sun Jun 26 00:48:14 2011
Module time:
	user time   =     300.50 seconds =       5.01 minutes
	system time =       6.00 seconds =       0.10 minutes
	total time  =         55 seconds =       0.92 minutes
Total time:
	user time   =     405.94 seconds =       6.77 minutes
	system time =       9.19 seconds =       0.15 minutes
	total time  =         76 seconds =       1.27 minutes

*** tstart() called on node142.bme.utexas.edu
*** at Sun Jun 26 00:48:14 2011


  //>>>>>>>>>>>>>>>>>>>>>>>>>>>>>>>>>>>//
  //               DFMP2               //
  //<<<<<<<<<<<<<<<<<<<<<<<<<<<<<<<<<<<//

   => Loading Basis Set <=

    Name: (AUG-CC-PVQZ AUX)
    Role: RIFIT
    Keyword: DF_BASIS_MP2
    atoms 1, 9        entry N          line   258 file /home/liuchw/anaconda3/envs/psi4env/share/psi4/basis/aug-cc-pvqz-ri.gbs 
    atoms 2, 6, 8, 10 entry H          line    30 file /home/liuchw/anaconda3/envs/psi4env/share/psi4/basis/aug-cc-pvqz-ri.gbs 
    atoms 3, 5, 7, 11 entry C          line   184 file /home/liuchw/anaconda3/envs/psi4env/share/psi4/basis/aug-cc-pvqz-ri.gbs 
    atoms 4, 12       entry O          line   332 file /home/liuchw/anaconda3/envs/psi4env/share/psi4/basis/aug-cc-pvqz-ri.gbs 

	 --------------------------------------------------------
	                          DF-MP2                         
	      2nd-Order Density-Fitted Moller-Plesset Theory     
	              RMP2 Wavefunction,   6 Threads             
	                                                         
	        Rob Parrish, Justin Turney, Andy Simmonett,      
	           Ed Hohenstein, and C. David Sherrill          
	 --------------------------------------------------------

   => Auxiliary Basis Set <=

  Basis Set: (AUG-CC-PVQZ AUX)
    Blend: AUG-CC-PVQZ-RI
    Number of shells: 368
    Number of basis function: 1664
    Number of Cartesian functions: 2316
    Spherical Harmonics?: true
    Max angular momentum: 5

	 --------------------------------------------------------
	                 NBF =   824, NAUX =  1664
	 --------------------------------------------------------
	   CLASS    FOCC     OCC    AOCC    AVIR     VIR    FVIR
	   PAIRS       0      29      29     795     795       0
	 --------------------------------------------------------

	-----------------------------------------------------------
	 ==================> DF-MP2 Energies <==================== 
	-----------------------------------------------------------
	 Reference Energy          =    -412.6480784364515557 [Eh]
	 Singles Energy            =      -0.0000000000000000 [Eh]
	 Same-Spin Energy          =      -0.4395413781141854 [Eh]
	 Opposite-Spin Energy      =      -1.3889556133848773 [Eh]
	 Correlation Energy        =      -1.8284969914990628 [Eh]
	 Total Energy              =    -414.4765754279505927 [Eh]
	-----------------------------------------------------------
	 ================> DF-SCS-MP2 Energies <================== 
	-----------------------------------------------------------
	 SCS Same-Spin Scale       =       0.3333333333333333 [-]
	 SCS Opposite-Spin Scale   =       1.2000000000000000 [-]
	 SCS Same-Spin Energy      =      -0.1465137927047285 [Eh]
	 SCS Opposite-Spin Energy  =      -1.6667467360618526 [Eh]
	 SCS Correlation Energy    =      -1.8132605287665811 [Eh]
	 SCS Total Energy          =    -414.4613389652181468 [Eh]
	-----------------------------------------------------------


*** tstop() called on node142.bme.utexas.edu at Sun Jun 26 00:48:52 2011
Module time:
	user time   =     184.28 seconds =       3.07 minutes
	system time =       3.72 seconds =       0.06 minutes
	total time  =         38 seconds =       0.63 minutes
Total time:
	user time   =     590.23 seconds =       9.84 minutes
	system time =      12.91 seconds =       0.22 minutes
	total time  =        114 seconds =       1.90 minutes

  //>>>>>>>>>>>>>>>>>>>>>>>>>>>>>>>>>>>//
  //  CBS Results: mp2/aug-cc-pv[tq]z  //
  //<<<<<<<<<<<<<<<<<<<<<<<<<<<<<<<<<<<//


   ==> HF <==

   HI-zeta (4) Energy:               -412.648078436452


   ==> Helgaker 2-point correlated extrapolation for method: MP2 <==

   LO-zeta (3) Energy:               -414.264078322201
   HI-zeta (4) Energy:               -414.476575427951
   Alpha (exponent) Value:             3.000000000000
   Extrapolated Energy:              -414.631640883497

   @Extrapolated MP2/(T,Q):          -414.631640883497



   ==> Helgaker 2-point correlated extrapolation for method: HF <==

   LO-zeta (3) Energy:               -412.622605198458
   HI-zeta (4) Energy:               -412.648078436452
   Alpha (exponent) Value:             3.000000000000
   Extrapolated Energy:              -412.666667015528

   @Extrapolated HF/(T,Q):           -412.666667015528


   ==> Components <==

  ---------------------------------------------------------------------------------------------------------
                          Method / Basis                      Rqd      Energy [Eh]   Variable
  ---------------------------------------------------------------------------------------------------------
                              hf / aug-cc-pvtz                  *    -412.62260520   HF TOTAL ENERGY
                             mp2 / aug-cc-pvtz                  *    -414.26407832   MP2 TOTAL ENERGY
                              hf / aug-cc-pvqz                  *    -412.64807844   HF TOTAL ENERGY
                             mp2 / aug-cc-pvqz                  *    -414.47657543   MP2 TOTAL ENERGY
  ---------------------------------------------------------------------------------------------------------

   ==> Stages <==

  ---------------------------------------------------------------------------------------------------------
      Stage               Method / Basis                       Wt      Energy [Eh]   Scheme
  ---------------------------------------------------------------------------------------------------------
        scf                   hf / aug-cc-pvqz                  1    -412.64807844   xtpl_highest_1
       corl                  mp2 / aug-cc-pv[tq]z               1    -414.63164088   corl_xtpl_helgaker_2
       corl                   hf / aug-cc-pv[tq]z              -1    -412.66666702   corl_xtpl_helgaker_2
  ---------------------------------------------------------------------------------------------------------

   ==> CBS <==

  ---------------------------------------------------------------------------------------------------------
      Stage               Method / Basis                               Energy [Eh]   Scheme
  ---------------------------------------------------------------------------------------------------------
        scf                   hf / aug-cc-pvqz                       -412.64807844   xtpl_highest_1
       corl                  mp2 / aug-cc-pv[tq]z                      -1.96497387   corl_xtpl_helgaker_2
      total                  CBS                                     -414.61305230   
  ---------------------------------------------------------------------------------------------------------
   => Loading Basis Set <=

    Name: DEF2-SVP
    Role: ORBITAL
    Keyword: BASIS
    atoms 1, 9        entry N          line   110 file /home/liuchw/anaconda3/envs/psi4env/share/psi4/basis/def2-svp.gbs 
    atoms 2, 6, 8, 10 entry H          line    15 file /home/liuchw/anaconda3/envs/psi4env/share/psi4/basis/def2-svp.gbs 
    atoms 3, 5, 7, 11 entry C          line    90 file /home/liuchw/anaconda3/envs/psi4env/share/psi4/basis/def2-svp.gbs 
    atoms 4, 12       entry O          line   130 file /home/liuchw/anaconda3/envs/psi4env/share/psi4/basis/def2-svp.gbs 


       N-Body: Complex Energy (fragments = (2,), basis = (2,):  -414.61305230442065)

       N-Body: Computing complex (2/4) with fragments (2,) in the basis of fragments (1, 2).


Scratch directory: /scratch//

  //>>>>>>>>>>>>>>>>>>>>>>>>>>>>>>>>>>>//
  //   CBS Setup: mp2/aug-cc-pv[tq]z   //
  //<<<<<<<<<<<<<<<<<<<<<<<<<<<<<<<<<<<//

    Naive listing of computations required.
             hf / aug-cc-pvqz              for  HF TOTAL ENERGY
            mp2 / aug-cc-pvtz              for  MP2 TOTAL ENERGY
            mp2 / aug-cc-pvqz              for  MP2 TOTAL ENERGY
             hf / aug-cc-pvtz              for  HF TOTAL ENERGY
             hf / aug-cc-pvqz              for  HF TOTAL ENERGY

    Enlightened listing of computations required.
            mp2 / aug-cc-pvtz              for  MP2 TOTAL ENERGY
            mp2 / aug-cc-pvqz              for  MP2 TOTAL ENERGY

    Full listing of computations to be obtained (required and bonus).
             hf / aug-cc-pvtz              for  HF TOTAL ENERGY
            mp2 / aug-cc-pvtz              for  MP2 TOTAL ENERGY
             hf / aug-cc-pvqz              for  HF TOTAL ENERGY
            mp2 / aug-cc-pvqz              for  MP2 TOTAL ENERGY

  //>>>>>>>>>>>>>>>>>>>>>>>>>>>>>>>>>>>>//
  // CBS Computation: MP2 / AUG-CC-PVTZ //
  //<<<<<<<<<<<<<<<<<<<<<<<<<<<<<<<<<<<<//


Scratch directory: /scratch//

*** tstart() called on node142.bme.utexas.edu
*** at Sun Jun 26 00:48:54 2011

   => Loading Basis Set <=

    Name: AUG-CC-PVTZ
    Role: ORBITAL
    Keyword: BASIS
    atoms 1, 5, 11, 13, 15, 19   entry C          line   239 file /home/liuchw/anaconda3/envs/psi4env/share/psi4/basis/aug-cc-pvtz.gbs 
    atoms 2-3, 12, 20            entry O          line   331 file /home/liuchw/anaconda3/envs/psi4env/share/psi4/basis/aug-cc-pvtz.gbs 
    atoms 4, 6-8, 10, 14, 16, 18 entry H          line    40 file /home/liuchw/anaconda3/envs/psi4env/share/psi4/basis/aug-cc-pvtz.gbs 
    atoms 9, 17                  entry N          line   285 file /home/liuchw/anaconda3/envs/psi4env/share/psi4/basis/aug-cc-pvtz.gbs 


         ---------------------------------------------------------
                                   SCF
               by Justin Turney, Rob Parrish, Andy Simmonett
                          and Daniel G. A. Smith
                              RHF Reference
                        6 Threads,  38146 MiB Core
         ---------------------------------------------------------

  ==> Geometry <==

    Molecular point group: c1
    Full point group: C1

    Geometry (in Angstrom), charge = 0, multiplicity = 1:

       Center              X                  Y                   Z               Mass       
    ------------   -----------------  -----------------  -----------------  -----------------
      Gh(C)          -3.075730686308    -0.363060967887    -0.038245726668    12.000000000000
      Gh(O)          -2.429187686308     0.659307032113     0.148124273332    15.994914619570
      Gh(O)          -2.540193686308    -1.553160967887    -0.263795726668    15.994914619570
      Gh(H)          -1.548784686308    -1.486823967887    -0.257925726668     1.007825032230
      Gh(C)          -4.573529686308    -0.403890967887    -0.036051726668    12.000000000000
      Gh(H)          -4.968753686308     0.586804032113     0.152377273332     1.007825032230
      Gh(H)          -4.926360686308    -0.774821967887    -0.995413726668     1.007825032230
      Gh(H)          -4.915218686308    -1.098282967887     0.727827273332     1.007825032230
         N            2.064431313692    -0.606218967887    -0.129919726668    14.003074004430
         H            2.457637313692    -1.521608967887    -0.301638726668     1.007825032230
         C            2.985959313692     0.441897032113     0.051533273332    12.000000000000
         O            4.183106313692     0.223601032113    -0.001346726668    15.994914619570
         C            2.346893313692     1.721359032113     0.292140273332    12.000000000000
         H            2.966428313692     2.588284032113     0.443618273332     1.007825032230
         C            0.999809313692     1.801349032113     0.321522273332    12.000000000000
         H            0.476969313692     2.729796032113     0.496820273332     1.007825032230
         N            0.196078313692     0.710667032113     0.131116273332    14.003074004430
         H           -0.827973686308     0.780615032113     0.154906273332     1.007825032230
         C            0.696011313692    -0.539555967887    -0.103056726668    12.000000000000
         O           -0.016021686308    -1.529060967887    -0.276526726668    15.994914619570

  Running in c1 symmetry.

  Rotational constants: A =      0.09316  B =      0.01388  C =      0.01210 [cm^-1]
  Rotational constants: A =   2792.85085  B =    415.97128  C =    362.85355 [MHz]
  Nuclear repulsion =  357.302396036070945

  Charge       = 0
  Multiplicity = 1
  Electrons    = 58
  Nalpha       = 29
  Nbeta        = 29

  ==> Algorithm <==

  SCF Algorithm Type is DF.
  DIIS enabled.
  MOM disabled.
  Fractional occupation disabled.
  Guess Type is SAD.
  Energy threshold   = 1.00e-07
  Density threshold  = 1.00e-08
  Integral threshold = 0.00e+00

  ==> Primary Basis <==

  Basis Set: AUG-CC-PVTZ
    Blend: AUG-CC-PVTZ
    Number of shells: 240
    Number of basis function: 736
    Number of Cartesian functions: 860
    Spherical Harmonics?: true
    Max angular momentum: 3

   => Loading Basis Set <=

    Name: (AUG-CC-PVTZ AUX)
    Role: JKFIT
    Keyword: DF_BASIS_SCF
    atoms 1, 5, 11, 13, 15, 19   entry C          line   162 file /home/liuchw/anaconda3/envs/psi4env/share/psi4/basis/aug-cc-pvtz-jkfit.gbs 
    atoms 2-3, 12, 20            entry O          line   286 file /home/liuchw/anaconda3/envs/psi4env/share/psi4/basis/aug-cc-pvtz-jkfit.gbs 
    atoms 4, 6-8, 10, 14, 16, 18 entry H          line    70 file /home/liuchw/anaconda3/envs/psi4env/share/psi4/basis/aug-cc-pvtz-jkfit.gbs 
    atoms 9, 17                  entry N          line   224 file /home/liuchw/anaconda3/envs/psi4env/share/psi4/basis/aug-cc-pvtz-jkfit.gbs 

  ==> Pre-Iterations <==

   -------------------------------------------------------
    Irrep   Nso     Nmo     Nalpha   Nbeta   Ndocc  Nsocc
   -------------------------------------------------------
     A        736     736       0       0       0       0
   -------------------------------------------------------
    Total     736     736      29      29      29       0
   -------------------------------------------------------

  ==> Integral Setup <==

  DFHelper Memory: AOs need 5.816 GiB; user supplied 27.940 GiB. Using in-core AOs.

  ==> MemDFJK: Density-Fitted J/K Matrices <==

    J tasked:                   Yes
    K tasked:                   Yes
    wK tasked:                   No
    OpenMP threads:               6
    Memory [MiB]:             28610
    Algorithm:                 Core
    Schwarz Cutoff:           1E-12
    Mask sparsity (%):      13.1694
    Fitting Condition:        1E-10

   => Auxiliary Basis Set <=

  Basis Set: (AUG-CC-PVTZ AUX)
    Blend: AUG-CC-PVTZ-JKFIT
    Number of shells: 472
    Number of basis function: 1616
    Number of Cartesian functions: 2012
    Spherical Harmonics?: true
    Max angular momentum: 4

  Minimum eigenvalue in the overlap matrix is 2.3185108714E-06.
  Using Symmetric Orthogonalization.

  SCF Guess: Superposition of Atomic Densities via on-the-fly atomic UHF.

  ==> Iterations <==

                           Total Energy        Delta E     RMS |[F,P]|

   @DF-RHF iter SAD:  -411.97385303946550   -4.11974e+02   0.00000e+00 
   @DF-RHF iter   1:  -412.37579618204654   -4.01943e-01   1.01363e-03 DIIS
   @DF-RHF iter   2:  -412.53851747791475   -1.62721e-01   6.73473e-04 DIIS
   @DF-RHF iter   3:  -412.61763713977876   -7.91197e-02   1.21443e-04 DIIS
   @DF-RHF iter   4:  -412.62188621412599   -4.24907e-03   4.96778e-05 DIIS
   @DF-RHF iter   5:  -412.62276653352990   -8.80319e-04   1.01142e-05 DIIS
   @DF-RHF iter   6:  -412.62287043497264   -1.03901e-04   5.04266e-06 DIIS
   @DF-RHF iter   7:  -412.62288858389417   -1.81489e-05   2.05306e-06 DIIS
   @DF-RHF iter   8:  -412.62289182552240   -3.24163e-06   6.79075e-07 DIIS
   @DF-RHF iter   9:  -412.62289207075617   -2.45234e-07   2.91108e-07 DIIS
   @DF-RHF iter  10:  -412.62289212956603   -5.88099e-08   9.83531e-08 DIIS
   @DF-RHF iter  11:  -412.62289213724569   -7.67966e-09   3.22074e-08 DIIS
   @DF-RHF iter  12:  -412.62289213784430   -5.98618e-10   1.04913e-08 DIIS
   @DF-RHF iter  13:  -412.62289213791547   -7.11680e-11   3.57671e-09 DIIS
  Energy and wave function converged.


  ==> Post-Iterations <==

    Orbital Energies [Eh]
    ---------------------

    Doubly Occupied:                                                      

       1A    -20.543931     2A    -20.541144     3A    -15.650146  
       4A    -15.628081     5A    -11.416732     6A    -11.382411  
       7A    -11.343643     8A    -11.258694     9A     -1.431900  
      10A     -1.397761    11A     -1.313217    12A     -1.247452  
      13A     -1.091205    14A     -0.938279    15A     -0.901584  
      16A     -0.808278    17A     -0.768249    18A     -0.716102  
      19A     -0.677702    20A     -0.670917    21A     -0.648602  
      22A     -0.616187    23A     -0.602658    24A     -0.571874  
      25A     -0.524062    26A     -0.480768    27A     -0.449426  
      28A     -0.435576    29A     -0.371566  

    Virtual:                                                              

      30A      0.010200    31A      0.025486    32A      0.035581  
      33A      0.041027    34A      0.042223    35A      0.048854  
      36A      0.052897    37A      0.060567    38A      0.068818  
      39A      0.075087    40A      0.076521    41A      0.085172  
      42A      0.093037    43A      0.093765    44A      0.099257  
      45A      0.100144    46A      0.110554    47A      0.114930  
      48A      0.116056    49A      0.123588    50A      0.124459  
      51A      0.129900    52A      0.130618    53A      0.131523  
      54A      0.142355    55A      0.144903    56A      0.147497  
      57A      0.158071    58A      0.158858    59A      0.167181  
      60A      0.175666    61A      0.179783    62A      0.186810  
      63A      0.190075    64A      0.196727    65A      0.197135  
      66A      0.201962    67A      0.208788    68A      0.213111  
      69A      0.216220    70A      0.223617    71A      0.227772  
      72A      0.241730    73A      0.242022    74A      0.248758  
      75A      0.254951    76A      0.258558    77A      0.268542  
      78A      0.271564    79A      0.272495    80A      0.279516  
      81A      0.280714    82A      0.282683    83A      0.287902  
      84A      0.290134    85A      0.292520    86A      0.296855  
      87A      0.303857    88A      0.314271    89A      0.318506  
      90A      0.321198    91A      0.332689    92A      0.333936  
      93A      0.334693    94A      0.342880    95A      0.349377  
      96A      0.350642    97A      0.351375    98A      0.366601  
      99A      0.371428   100A      0.371770   101A      0.375513  
     102A      0.378983   103A      0.382726   104A      0.397993  
     105A      0.398191   106A      0.403012   107A      0.412863  
     108A      0.413790   109A      0.419304   110A      0.425479  
     111A      0.426651   112A      0.429510   113A      0.435416  
     114A      0.442966   115A      0.446764   116A      0.448995  
     117A      0.453892   118A      0.458348   119A      0.459728  
     120A      0.465467   121A      0.471716   122A      0.474788  
     123A      0.477410   124A      0.483297   125A      0.484989  
     126A      0.492257   127A      0.494069   128A      0.499881  
     129A      0.502431   130A      0.507629   131A      0.520096  
     132A      0.520179   133A      0.529451   134A      0.531215  
     135A      0.534756   136A      0.541480   137A      0.553794  
     138A      0.555813   139A      0.559297   140A      0.570086  
     141A      0.596969   142A      0.599124   143A      0.603108  
     144A      0.608292   145A      0.609035   146A      0.619523  
     147A      0.622334   148A      0.628221   149A      0.629486  
     150A      0.632695   151A      0.647155   152A      0.648553  
     153A      0.657608   154A      0.658176   155A      0.666242  
     156A      0.675452   157A      0.679110   158A      0.680037  
     159A      0.683176   160A      0.688501   161A      0.709369  
     162A      0.710822   163A      0.723675   164A      0.734271  
     165A      0.738881   166A      0.743924   167A      0.745191  
     168A      0.754783   169A      0.764180   170A      0.769742  
     171A      0.772357   172A      0.783733   173A      0.791017  
     174A      0.793158   175A      0.806624   176A      0.807668  
     177A      0.814621   178A      0.824196   179A      0.832136  
     180A      0.838252   181A      0.842072   182A      0.861340  
     183A      0.867532   184A      0.871507   185A      0.878660  
     186A      0.884620   187A      0.887281   188A      0.887461  
     189A      0.901145   190A      0.903476   191A      0.909530  
     192A      0.924708   193A      0.926724   194A      0.933504  
     195A      0.936487   196A      0.942127   197A      0.943637  
     198A      0.947823   199A      0.958699   200A      0.963209  
     201A      0.966456   202A      0.969078   203A      0.972849  
     204A      0.985098   205A      0.986845   206A      0.993010  
     207A      1.006534   208A      1.010338   209A      1.011741  
     210A      1.016506   211A      1.024163   212A      1.026952  
     213A      1.031688   214A      1.034797   215A      1.043889  
     216A      1.049184   217A      1.050100   218A      1.059096  
     219A      1.068921   220A      1.074416   221A      1.087545  
     222A      1.094275   223A      1.098750   224A      1.106823  
     225A      1.107587   226A      1.116375   227A      1.122485  
     228A      1.125911   229A      1.133920   230A      1.139960  
     231A      1.142962   232A      1.147158   233A      1.149990  
     234A      1.158108   235A      1.167453   236A      1.169586  
     237A      1.174666   238A      1.182093   239A      1.189500  
     240A      1.192276   241A      1.202062   242A      1.204517  
     243A      1.212497   244A      1.222824   245A      1.228402  
     246A      1.232607   247A      1.236555   248A      1.240702  
     249A      1.254040   250A      1.258032   251A      1.265007  
     252A      1.271777   253A      1.282333   254A      1.286289  
     255A      1.293324   256A      1.299944   257A      1.302319  
     258A      1.311263   259A      1.321823   260A      1.323252  
     261A      1.329671   262A      1.342347   263A      1.352233  
     264A      1.361066   265A      1.364101   266A      1.368611  
     267A      1.372213   268A      1.388744   269A      1.393411  
     270A      1.399966   271A      1.405694   272A      1.406075  
     273A      1.428011   274A      1.435681   275A      1.444943  
     276A      1.450505   277A      1.458453   278A      1.459171  
     279A      1.466749   280A      1.473430   281A      1.473587  
     282A      1.492653   283A      1.502340   284A      1.505766  
     285A      1.515037   286A      1.524419   287A      1.541651  
     288A      1.542557   289A      1.550718   290A      1.551491  
     291A      1.559808   292A      1.579269   293A      1.584870  
     294A      1.604754   295A      1.609254   296A      1.614219  
     297A      1.618598   298A      1.627295   299A      1.629076  
     300A      1.638316   301A      1.653432   302A      1.665247  
     303A      1.685970   304A      1.687779   305A      1.704571  
     306A      1.705653   307A      1.711438   308A      1.731782  
     309A      1.732158   310A      1.740443   311A      1.751001  
     312A      1.764291   313A      1.767972   314A      1.775360  
     315A      1.785690   316A      1.791803   317A      1.800300  
     318A      1.811209   319A      1.820641   320A      1.841837  
     321A      1.855132   322A      1.856953   323A      1.867331  
     324A      1.875323   325A      1.883857   326A      1.889981  
     327A      1.894587   328A      1.900419   329A      1.906318  
     330A      1.921779   331A      1.930437   332A      1.938001  
     333A      1.944361   334A      1.959362   335A      1.964408  
     336A      1.968255   337A      1.987669   338A      1.994756  
     339A      2.002564   340A      2.014996   341A      2.030766  
     342A      2.037285   343A      2.052926   344A      2.070727  
     345A      2.087163   346A      2.092452   347A      2.096389  
     348A      2.115370   349A      2.131400   350A      2.137685  
     351A      2.148365   352A      2.154786   353A      2.164144  
     354A      2.165622   355A      2.167461   356A      2.187078  
     357A      2.188707   358A      2.203422   359A      2.205097  
     360A      2.210788   361A      2.218001   362A      2.238119  
     363A      2.250552   364A      2.279928   365A      2.284700  
     366A      2.294795   367A      2.297466   368A      2.299663  
     369A      2.327903   370A      2.337649   371A      2.359557  
     372A      2.364048   373A      2.379548   374A      2.385544  
     375A      2.405362   376A      2.411226   377A      2.435042  
     378A      2.448968   379A      2.460055   380A      2.478526  
     381A      2.486912   382A      2.494054   383A      2.510225  
     384A      2.510698   385A      2.524391   386A      2.529657  
     387A      2.534153   388A      2.546057   389A      2.546506  
     390A      2.562807   391A      2.579801   392A      2.582602  
     393A      2.611665   394A      2.614091   395A      2.643474  
     396A      2.655330   397A      2.655986   398A      2.666801  
     399A      2.680180   400A      2.682086   401A      2.685529  
     402A      2.694334   403A      2.702846   404A      2.710450  
     405A      2.721878   406A      2.727405   407A      2.744216  
     408A      2.748078   409A      2.754613   410A      2.775537  
     411A      2.794861   412A      2.799558   413A      2.819448  
     414A      2.828382   415A      2.839151   416A      2.860322  
     417A      2.862556   418A      2.869756   419A      2.883852  
     420A      2.892956   421A      2.909866   422A      2.914129  
     423A      2.916306   424A      2.951788   425A      2.956121  
     426A      2.960360   427A      2.983893   428A      2.994491  
     429A      3.005928   430A      3.020223   431A      3.025054  
     432A      3.057325   433A      3.080621   434A      3.093752  
     435A      3.094552   436A      3.108747   437A      3.124701  
     438A      3.149213   439A      3.153480   440A      3.168410  
     441A      3.189042   442A      3.219912   443A      3.227955  
     444A      3.232029   445A      3.269255   446A      3.270747  
     447A      3.293159   448A      3.306909   449A      3.325392  
     450A      3.335329   451A      3.342190   452A      3.367980  
     453A      3.378509   454A      3.402592   455A      3.412427  
     456A      3.425282   457A      3.437816   458A      3.456451  
     459A      3.466936   460A      3.479912   461A      3.494888  
     462A      3.523811   463A      3.530840   464A      3.542586  
     465A      3.556421   466A      3.585887   467A      3.613634  
     468A      3.614933   469A      3.617991   470A      3.643500  
     471A      3.659104   472A      3.668267   473A      3.668500  
     474A      3.686090   475A      3.694959   476A      3.716326  
[...]
     883A      6.125659   884A      6.132466   885A      6.148672  
     886A      6.168168   887A      6.169700   888A      6.194780  
     889A      6.214924   890A      6.232796   891A      6.242992  
     892A      6.245670   893A      6.275053   894A      6.289594  
     895A      6.297824   896A      6.323150   897A      6.323550  
     898A      6.342685   899A      6.371741   900A      6.379253  
     901A      6.398027   902A      6.407159   903A      6.431197  
     904A      6.438490   905A      6.441516   906A      6.466015  
     907A      6.466811   908A      6.480111   909A      6.490343  
     910A      6.528332   911A      6.544956   912A      6.547592  
     913A      6.561212   914A      6.585917   915A      6.602402  
     916A      6.610663   917A      6.610677   918A      6.622360  
     919A      6.638846   920A      6.660412   921A      6.661075  
     922A      6.685177   923A      6.696089   924A      6.701604  
     925A      6.721242   926A      6.723954   927A      6.751514  
     928A      6.769589   929A      6.778577   930A      6.784941  
     931A      6.791030   932A      6.793928   933A      6.804304  
     934A      6.809907   935A      6.830438   936A      6.835792  
     937A      6.852345   938A      6.857266   939A      6.879553  
     940A      6.892702   941A      6.900799   942A      6.912869  
     943A      6.918556   944A      6.930170   945A      6.946723  
     946A      6.953493   947A      6.960301   948A      6.983992  
     949A      6.998858   950A      7.010469   951A      7.014479  
     952A      7.031065   953A      7.041372   954A      7.045391  
     955A      7.073560   956A      7.074073   957A      7.075547  
     958A      7.087840   959A      7.089682   960A      7.103015  
     961A      7.130464   962A      7.138192   963A      7.145125  
     964A      7.163482   965A      7.168616   966A      7.181114  
     967A      7.191753   968A      7.199228   969A      7.212343  
     970A      7.229425   971A      7.237618   972A      7.247420  
     973A      7.251424   974A      7.277821   975A      7.281624  
     976A      7.310901   977A      7.321473   978A      7.346825  
     979A      7.347133   980A      7.353465   981A      7.361791  
     982A      7.379687   983A      7.390231   984A      7.398101  
     985A      7.404767   986A      7.435254   987A      7.452261  
     988A      7.468134   989A      7.482608   990A      7.490662  
     991A      7.493148   992A      7.509343   993A      7.528991  
     994A      7.552051   995A      7.570998   996A      7.594284  
     997A      7.605317   998A      7.615232   999A      7.670545  
    1000A      7.684479  1001A      7.701907  1002A      7.715077  
    1003A      7.727669  1004A      7.733360  1005A      7.752789  
    1006A      7.769801  1007A      7.786775  1008A      7.797870  
    1009A      7.810729  1010A      7.818105  1011A      7.850452  
    1012A      7.863736  1013A      7.886538  1014A      7.900158  
    1015A      7.910674  1016A      7.922736  1017A      7.942240  
    1018A      7.945446  1019A      7.962170  1020A      7.968717  
    1021A      7.991953  1022A      8.006446  1023A      8.013180  
    1024A      8.048376  1025A      8.059304  1026A      8.060373  
    1027A      8.080391  1028A      8.120149  1029A      8.132415  
    1030A      8.145995  1031A      8.150900  1032A      8.159344  
    1033A      8.192362  1034A      8.202522  1035A      8.208699  
    1036A      8.220601  1037A      8.229360  1038A      8.296709  
    1039A      8.302496  1040A      8.337780  1041A      8.364711  
    1042A      8.377757  1043A      8.386640  1044A      8.396719  
    1045A      8.435751  1046A      8.444988  1047A      8.460089  
    1048A      8.483868  1049A      8.493629  1050A      8.500077  
    1051A      8.533031  1052A      8.543418  1053A      8.562168  
    1054A      8.589491  1055A      8.589691  1056A      8.603432  
    1057A      8.617298  1058A      8.635360  1059A      8.641468  
    1060A      8.650306  1061A      8.688310  1062A      8.703448  
    1063A      8.711911  1064A      8.712702  1065A      8.718999  
    1066A      8.734345  1067A      8.744382  1068A      8.771136  
    1069A      8.772044  1070A      8.795346  1071A      8.819006  
    1072A      8.829818  1073A      8.843075  1074A      8.856039  
    1075A      8.899641  1076A      8.902569  1077A      8.910315  
    1078A      8.932429  1079A      8.935245  1080A      8.985876  
    1081A      9.018483  1082A      9.043336  1083A      9.056290  
    1084A      9.068313  1085A      9.090625  1086A      9.102880  
    1087A      9.109062  1088A      9.138384  1089A      9.154847  
    1090A      9.155676  1091A      9.169063  1092A      9.169643  
    1093A      9.197311  1094A      9.202521  1095A      9.225588  
    1096A      9.257139  1097A      9.267251  1098A      9.276226  
    1099A      9.276895  1100A      9.325021  1101A      9.336301  
    1102A      9.339578  1103A      9.350118  1104A      9.370774  
    1105A      9.380149  1106A      9.381372  1107A      9.417415  
    1108A      9.427010  1109A      9.427168  1110A      9.443617  
    1111A      9.461603  1112A      9.503809  1113A      9.521944  
    1114A      9.552321  1115A      9.560678  1116A      9.585330  
    1117A      9.612381  1118A      9.620735  1119A      9.630067  
    1120A      9.641650  1121A      9.648693  1122A      9.691453  
    1123A      9.704737  1124A      9.716235  1125A      9.745293  
    1126A      9.747868  1127A      9.774129  1128A      9.788191  
    1129A      9.792632  1130A      9.812969  1131A      9.850445  
    1132A      9.865121  1133A      9.884258  1134A      9.903031  
    1135A      9.950885  1136A      9.956265  1137A      9.969999  
    1138A      9.987675  1139A     10.036441  1140A     10.042510  
    1141A     10.053335  1142A     10.058860  1143A     10.076919  
    1144A     10.106504  1145A     10.117894  1146A     10.125673  
    1147A     10.138099  1148A     10.181386  1149A     10.185838  
    1150A     10.191587  1151A     10.197586  1152A     10.228680  
    1153A     10.249243  1154A     10.262717  1155A     10.278510  
    1156A     10.285904  1157A     10.286353  1158A     10.307688  
    1159A     10.332838  1160A     10.356439  1161A     10.374053  
    1162A     10.396188  1163A     10.417142  1164A     10.428660  
    1165A     10.475168  1166A     10.520299  1167A     10.541157  
    1168A     10.599206  1169A     10.605315  1170A     10.657489  
    1171A     10.683810  1172A     10.695002  1173A     10.726546  
    1174A     10.727276  1175A     10.767508  1176A     10.808580  
    1177A     10.845686  1178A     10.867916  1179A     10.873213  
    1180A     10.876117  1181A     10.884747  1182A     10.894882  
    1183A     10.921450  1184A     10.988283  1185A     11.003816  
    1186A     11.035281  1187A     11.040138  1188A     11.041529  
    1189A     11.099271  1190A     11.102118  1191A     11.143744  
    1192A     11.148992  1193A     11.173536  1194A     11.184543  
    1195A     11.201991  1196A     11.222461  1197A     11.248912  
    1198A     11.252128  1199A     11.293110  1200A     11.296771  
    1201A     11.322788  1202A     11.341560  1203A     11.353118  
    1204A     11.361286  1205A     11.364847  1206A     11.366778  
    1207A     11.433952  1208A     11.444351  1209A     11.477725  
    1210A     11.482904  1211A     11.496468  1212A     11.507695  
    1213A     11.515753  1214A     11.526966  1215A     11.547601  
    1216A     11.550482  1217A     11.567494  1218A     11.580071  
    1219A     11.591044  1220A     11.591188  1221A     11.621923  
    1222A     11.668202  1223A     11.688533  1224A     11.709450  
    1225A     11.710051  1226A     11.750241  1227A     11.763578  
    1228A     11.774128  1229A     11.820942  1230A     11.837803  
    1231A     11.909825  1232A     11.944697  1233A     11.997135  
    1234A     12.009974  1235A     12.031899  1236A     12.093037  
    1237A     12.102319  1238A     12.109361  1239A     12.150632  
    1240A     12.159932  1241A     12.174335  1242A     12.221621  
    1243A     12.237903  1244A     12.262878  1245A     12.294384  
    1246A     12.297252  1247A     12.323126  1248A     12.343592  
    1249A     12.368444  1250A     12.383801  1251A     12.397931  
    1252A     12.474285  1253A     12.504103  1254A     12.514135  
    1255A     12.514425  1256A     12.539410  1257A     12.592073  
    1258A     12.630807  1259A     12.656038  1260A     12.703116  
    1261A     12.743778  1262A     12.765401  1263A     12.790794  
    1264A     12.836359  1265A     12.838812  1266A     12.885704  
    1267A     12.923511  1268A     12.936704  1269A     12.957681  
    1270A     12.983785  1271A     13.007765  1272A     13.017451  
    1273A     13.040295  1274A     13.104511  1275A     13.281911  
    1276A     13.283292  1277A     13.294701  1278A     13.339949  
    1279A     13.341396  1280A     13.383076  1281A     13.412250  
    1282A     13.469149  1283A     13.489944  1284A     13.509876  
    1285A     13.520369  1286A     13.522802  1287A     13.569428  
    1288A     13.577289  1289A     13.668124  1290A     13.685323  
    1291A     13.721882  1292A     13.775011  1293A     13.830841  
    1294A     13.872607  1295A     13.978767  1296A     14.070281  
    1297A     14.098156  1298A     14.106781  1299A     14.154782  
    1300A     14.192862  1301A     14.306065  1302A     14.385935  
    1303A     14.406247  1304A     14.508688  1305A     14.629341  
    1306A     14.819867  1307A     14.954338  1308A     14.988711  
    1309A     15.141513  1310A     15.232501  1311A     15.284184  
    1312A     15.348014  1313A     15.414852  1314A     15.574604  
    1315A     15.949584  1316A     17.723351  1317A     26.487412  
    1318A     26.677534  1319A     26.748233  1320A     26.870535  
    1321A     27.298859  1322A     29.218669  1323A     35.222817  
    1324A     35.374848  1325A     44.493854  1326A     45.072315  
    1327A     45.433025  1328A     45.845073  

    Final Occupation by Irrep:
              A 
    DOCC [    45 ]

  @DF-RHF Final Energy:  -640.58613914429964

   => Energetics <=

    Nuclear Repulsion Energy =            693.8007490934917314
    One-Electron Energy =               -2253.4143727002838204
    Two-Electron Energy =                 919.0274844624924526
    Total Energy =                       -640.5861391442996364

Computation Completed


Properties will be evaluated at   0.000000,   0.000000,   0.000000 [a0]

Properties computed using the SCF density matrix

  Nuclear Dipole Moment: [e a0]
     X:   -10.5908      Y:     1.6803      Z:     0.3924

  Electronic Dipole Moment: [e a0]
     X:     8.9918      Y:    -0.8832      Z:    -0.2333

  Dipole Moment: [e a0]
     X:    -1.5990      Y:     0.7971      Z:     0.1591     Total:     1.7937

  Dipole Moment: [D]
     X:    -4.0642      Y:     2.0259      Z:     0.4043     Total:     4.5592


*** tstop() called on node142.bme.utexas.edu at Sun Jun 26 01:12:07 2011
Module time:
	user time   =    1724.34 seconds =      28.74 minutes
	system time =      30.62 seconds =       0.51 minutes
	total time  =        304 seconds =       5.07 minutes
Total time:
	user time   =    8122.70 seconds =     135.38 minutes
	system time =     147.24 seconds =       2.45 minutes
	total time  =       1509 seconds =      25.15 minutes

*** tstart() called on node142.bme.utexas.edu
*** at Sun Jun 26 01:12:07 2011


  //>>>>>>>>>>>>>>>>>>>>>>>>>>>>>>>>>>>//
  //               DFMP2               //
  //<<<<<<<<<<<<<<<<<<<<<<<<<<<<<<<<<<<//

   => Loading Basis Set <=

    Name: (AUG-CC-PVQZ AUX)
    Role: RIFIT
    Keyword: DF_BASIS_MP2
    atoms 1, 5, 11, 13, 15, 19   entry C          line   184 file /home/liuchw/anaconda3/envs/psi4env/share/psi4/basis/aug-cc-pvqz-ri.gbs 
    atoms 2-3, 12, 20            entry O          line   332 file /home/liuchw/anaconda3/envs/psi4env/share/psi4/basis/aug-cc-pvqz-ri.gbs 
    atoms 4, 6-8, 10, 14, 16, 18 entry H          line    30 file /home/liuchw/anaconda3/envs/psi4env/share/psi4/basis/aug-cc-pvqz-ri.gbs 
    atoms 9, 17                  entry N          line   258 file /home/liuchw/anaconda3/envs/psi4env/share/psi4/basis/aug-cc-pvqz-ri.gbs 

	 --------------------------------------------------------
	                          DF-MP2                         
	      2nd-Order Density-Fitted Moller-Plesset Theory     
	              RMP2 Wavefunction,   6 Threads             
	                                                         
	        Rob Parrish, Justin Turney, Andy Simmonett,      
	           Ed Hohenstein, and C. David Sherrill          
	 --------------------------------------------------------

   => Auxiliary Basis Set <=

  Basis Set: (AUG-CC-PVQZ AUX)
    Blend: AUG-CC-PVQZ-RI
    Number of shells: 592
    Number of basis function: 2656
    Number of Cartesian functions: 3684
    Spherical Harmonics?: true
    Max angular momentum: 5

	 --------------------------------------------------------
	                 NBF =  1328, NAUX =  2656
	 --------------------------------------------------------
	   CLASS    FOCC     OCC    AOCC    AVIR     VIR    FVIR
	   PAIRS       0      45      45    1283    1283       0
	 --------------------------------------------------------

	-----------------------------------------------------------
	 ==================> DF-MP2 Energies <==================== 
	-----------------------------------------------------------
	 Reference Energy          =    -640.5861391442996364 [Eh]
	 Singles Energy            =      -0.0000000000000000 [Eh]
	 Same-Spin Energy          =      -0.6746996791717329 [Eh]
	 Opposite-Spin Energy      =      -2.1511999160388506 [Eh]
	 Correlation Energy        =      -2.8258995952105836 [Eh]
	 Total Energy              =    -643.4120387395101943 [Eh]
	-----------------------------------------------------------
	 ================> DF-SCS-MP2 Energies <================== 
	-----------------------------------------------------------
	 SCS Same-Spin Scale       =       0.3333333333333333 [-]
	 SCS Opposite-Spin Scale   =       1.2000000000000000 [-]
	 SCS Same-Spin Energy      =      -0.2248998930572443 [Eh]
	 SCS Opposite-Spin Energy  =      -2.5814398992466208 [Eh]
	 SCS Correlation Energy    =      -2.8063397923038651 [Eh]
	 SCS Total Energy          =    -643.3924789366035384 [Eh]
	-----------------------------------------------------------


*** tstop() called on node142.bme.utexas.edu at Sun Jun 26 01:15:42 2011
Module time:
	user time   =    1138.06 seconds =      18.97 minutes
	system time =      12.58 seconds =       0.21 minutes
	total time  =        215 seconds =       3.58 minutes
Total time:
	user time   =    9260.77 seconds =     154.35 minutes
	system time =     159.82 seconds =       2.66 minutes
	total time  =       1724 seconds =      28.73 minutes

  //>>>>>>>>>>>>>>>>>>>>>>>>>>>>>>>>>>>//
  //  CBS Results: mp2/aug-cc-pv[tq]z  //
  //<<<<<<<<<<<<<<<<<<<<<<<<<<<<<<<<<<<//


   ==> HF <==

   HI-zeta (4) Energy:               -640.586139144300


   ==> Helgaker 2-point correlated extrapolation for method: MP2 <==

   LO-zeta (3) Energy:               -643.085932567589
   HI-zeta (4) Energy:               -643.412038739510
   Alpha (exponent) Value:             3.000000000000
   Extrapolated Energy:              -643.650008108210

   @Extrapolated MP2/(T,Q):          -643.650008108210



   ==> Helgaker 2-point correlated extrapolation for method: HF <==

   LO-zeta (3) Energy:               -640.546344425082
   HI-zeta (4) Energy:               -640.586139144300
   Alpha (exponent) Value:             3.000000000000
   Extrapolated Energy:              -640.615178533999

   @Extrapolated HF/(T,Q):           -640.615178533999


   ==> Components <==

  ---------------------------------------------------------------------------------------------------------
                          Method / Basis                      Rqd      Energy [Eh]   Variable
  ---------------------------------------------------------------------------------------------------------
                              hf / aug-cc-pvtz                  *    -640.54634443   HF TOTAL ENERGY
                             mp2 / aug-cc-pvtz                  *    -643.08593257   MP2 TOTAL ENERGY
                              hf / aug-cc-pvqz                  *    -640.58613914   HF TOTAL ENERGY
                             mp2 / aug-cc-pvqz                  *    -643.41203874   MP2 TOTAL ENERGY
  ---------------------------------------------------------------------------------------------------------

   ==> Stages <==

  ---------------------------------------------------------------------------------------------------------
      Stage               Method / Basis                       Wt      Energy [Eh]   Scheme
  ---------------------------------------------------------------------------------------------------------
        scf                   hf / aug-cc-pvqz                  1    -640.58613914   xtpl_highest_1
       corl                  mp2 / aug-cc-pv[tq]z               1    -643.65000811   corl_xtpl_helgaker_2
       corl                   hf / aug-cc-pv[tq]z              -1    -640.61517853   corl_xtpl_helgaker_2
  ---------------------------------------------------------------------------------------------------------

   ==> CBS <==

  ---------------------------------------------------------------------------------------------------------
      Stage               Method / Basis                               Energy [Eh]   Scheme
  ---------------------------------------------------------------------------------------------------------
        scf                   hf / aug-cc-pvqz                       -640.58613914   xtpl_highest_1
       corl                  mp2 / aug-cc-pv[tq]z                      -3.03482957   corl_xtpl_helgaker_2
      total                  CBS                                     -643.62096872   
  ---------------------------------------------------------------------------------------------------------
   => Loading Basis Set <=

    Name: DEF2-SVP
    Role: ORBITAL
    Keyword: BASIS
    atoms 1, 5, 11, 13, 15, 19   entry C          line    90 file /home/liuchw/anaconda3/envs/psi4env/share/psi4/basis/def2-svp.gbs 
    atoms 2-3, 12, 20            entry O          line   130 file /home/liuchw/anaconda3/envs/psi4env/share/psi4/basis/def2-svp.gbs 
    atoms 4, 6-8, 10, 14, 16, 18 entry H          line    15 file /home/liuchw/anaconda3/envs/psi4env/share/psi4/basis/def2-svp.gbs 
    atoms 9, 17                  entry N          line   110 file /home/liuchw/anaconda3/envs/psi4env/share/psi4/basis/def2-svp.gbs 


       N-Body: Complex Energy (fragments = (1, 2), basis = (1, 2):  -643.62096871851054)

   ==> N-Body: Counterpoise Corrected (CP) energies <==

   n-Body     Total Energy [Eh]       I.E. [kcal/mol]      Delta [kcal/mol]
        1     -643.592116372310        0.000000000000        0.000000000000
        2     -643.621153766523      -18.221239962679      -18.221239962679

   => Loading Basis Set <=

    Name: DEF2-SVP
    Role: ORBITAL
    Keyword: BASIS
    atoms 1, 5, 11, 13, 15, 19   entry C          line    90 file /home/liuchw/anaconda3/envs/psi4env/share/psi4/basis/def2-svp.gbs 
    atoms 2-3, 12, 20            entry O          line   130 file /home/liuchw/anaconda3/envs/psi4env/share/psi4/basis/def2-svp.gbs 
    atoms 4, 6-8, 10, 14, 16, 18 entry H          line    15 file /home/liuchw/anaconda3/envs/psi4env/share/psi4/basis/def2-svp.gbs 
    atoms 9, 17                  entry N          line   110 file /home/liuchw/anaconda3/envs/psi4env/share/psi4/basis/def2-svp.gbs 


    Psi4 stopped on: Sunday, 26 June 2011 01:15AM
    Psi4 wall time for execution: 0:28:45.37

*** Psi4 exiting successfully. Buy a developer a beer!
