
    -----------------------------------------------------------------------
          Psi4: An Open-Source Ab Initio Electronic Structure Package
                               Psi4 1.4a2.dev224 

                         Git: Rev {master} e453b16 


    R. M. Parrish, L. A. Burns, D. G. A. Smith, A. C. Simmonett,
    A. E. DePrince III, E. G. Hohenstein, U. Bozkaya, A. Yu. Sokolov,
    R. Di Remigio, R. M. Richard, J. F. Gonthier, A. M. James,
    H. R. McAlexander, A. Kumar, M. Saitow, X. Wang, B. P. Pritchard,
    P. Verma, H. F. Schaefer III, K. Patkowski, R. A. King, E. F. Valeev,
    F. A. Evangelista, J. M. Turney, T. D. Crawford, and C. D. Sherrill,
    J. Chem. Theory Comput. 13(7) pp 3185--3197 (2017).
    (doi: 10.1021/acs.jctc.7b00174)


                         Additional Contributions by
    P. Kraus, H. Kruse, M. H. Lechner, M. C. Schieber, R. A. Shaw,
    A. Alenaizan, R. Galvelis, Z. L. Glick, S. Lehtola, and J. P. Misiewicz

    -----------------------------------------------------------------------


    Psi4 started on: Saturday, 11 April 2020 07:42PM

    Process ID: 40506
    Host:       node37.bme.utexas.edu
    PSIDATADIR: /home/liuchw/anaconda3/envs/psi4env/share/psi4
    Memory:     500.0 MiB
    Threads:    8
    
  ==> Input File <==

--------------------------------------------------------------------------
#Generated by lconvert.py for cbs job

memory 40 GB

molecule  {
0 1
  C        0.7126450     1.1209960     0.0605410
  H        1.3578420     1.9863990     0.1277370
  C        1.2582360    -0.1592520     0.1242340
  H        2.3249540    -0.2871000     0.2467430
  C        0.4268850    -1.2745270     0.0426500
  H        0.8504450    -2.2684330     0.0947500
  C       -0.9495780    -1.1100740    -0.1003140
  H       -1.5944560    -1.9762740    -0.1637130
  C       -1.4955260     0.1710510    -0.1615460
  H       -2.5637830     0.2992210    -0.2737030
  C       -0.6638280     1.2866430    -0.0834010
  H       -1.0869010     2.2810000    -0.1328860
--
0 1
  C        2.0097530     1.1095510     3.7732340
  H        2.6545980     1.9757350     3.8369850
  C        2.5557060    -0.1716000     3.8347540
  H        3.6239130    -0.2997470     3.9474980
  C        1.7240570    -1.2872000     3.7561030
  H        2.1471380    -2.2815530     3.8057570
  C        0.3476550    -1.1215650     3.6113860
  H       -0.2974480    -1.9869760     3.5437540
  C       -0.1979050     0.1586670     3.5474210
  H       -1.2645330     0.2864970     3.4242420
  C        0.6333720     1.2739480     3.6294920
  H        0.2098470     2.2678530     3.5771230
units angstrom
no_reorient
symmetry c1
}

set {
scf_type DF
mp2_type DF
e_convergence 7
reference rhf
}

energy('mp2/aug-cc-pv[tq]z', bsse_type='cp')
--------------------------------------------------------------------------

  Memory set to  37.253 GiB by Python driver.

Scratch directory: /scratch//


   ===> N-Body Interaction Abacus <===
        BSSE Treatment:                     cp
        Number of 1-body computations:     4
        Number of 2-body computations:     1

   ==> N-Body: Now computing 1-body complexes <==


       N-Body: Computing complex (1/4) with fragments (2,) in the basis of fragments (2,).


Scratch directory: /scratch//

  //>>>>>>>>>>>>>>>>>>>>>>>>>>>>>>>>>>>//
  //   CBS Setup: mp2/aug-cc-pv[tq]z   //
  //<<<<<<<<<<<<<<<<<<<<<<<<<<<<<<<<<<<//

    Naive listing of computations required.
             hf / aug-cc-pvqz              for  HF TOTAL ENERGY
            mp2 / aug-cc-pvtz              for  MP2 TOTAL ENERGY
            mp2 / aug-cc-pvqz              for  MP2 TOTAL ENERGY
             hf / aug-cc-pvtz              for  HF TOTAL ENERGY
             hf / aug-cc-pvqz              for  HF TOTAL ENERGY

    Enlightened listing of computations required.
            mp2 / aug-cc-pvtz              for  MP2 TOTAL ENERGY
            mp2 / aug-cc-pvqz              for  MP2 TOTAL ENERGY

    Full listing of computations to be obtained (required and bonus).
             hf / aug-cc-pvtz              for  HF TOTAL ENERGY
            mp2 / aug-cc-pvtz              for  MP2 TOTAL ENERGY
             hf / aug-cc-pvqz              for  HF TOTAL ENERGY
            mp2 / aug-cc-pvqz              for  MP2 TOTAL ENERGY

  //>>>>>>>>>>>>>>>>>>>>>>>>>>>>>>>>>>>>//
  // CBS Computation: MP2 / AUG-CC-PVTZ //
  //<<<<<<<<<<<<<<<<<<<<<<<<<<<<<<<<<<<<//


Scratch directory: /scratch//

*** tstart() called on node37.bme.utexas.edu
*** at Sat Apr 11 19:42:29 2020

   => Loading Basis Set <=

    Name: AUG-CC-PVTZ
    Role: ORBITAL
    Keyword: BASIS
    atoms 1, 3, 5, 7, 9, 11  entry C          line   239 file /home/liuchw/anaconda3/envs/psi4env/share/psi4/basis/aug-cc-pvtz.gbs 
    atoms 2, 4, 6, 8, 10, 12 entry H          line    40 file /home/liuchw/anaconda3/envs/psi4env/share/psi4/basis/aug-cc-pvtz.gbs 


         ---------------------------------------------------------
                                   SCF
               by Justin Turney, Rob Parrish, Andy Simmonett
                          and Daniel G. A. Smith
                              RHF Reference
                        8 Threads,  38146 MiB Core
         ---------------------------------------------------------

  ==> Geometry <==

    Molecular point group: c1
    Full point group: C1

    Geometry (in Angstrom), charge = 0, multiplicity = 1:

       Center              X                  Y                   Z               Mass       
    ------------   -----------------  -----------------  -----------------  -----------------
         C            1.479629403593     1.109831269971     1.937022890560    12.000000000000
         H            2.124474403593     1.976015269971     2.000773890560     1.007825032230
         C            2.025582403593    -0.171319730029     1.998542890560    12.000000000000
         H            3.093789403593    -0.299466730029     2.111286890560     1.007825032230
         C            1.193933403593    -1.286919730029     1.919891890560    12.000000000000
         H            1.617014403593    -2.281272730029     1.969545890560     1.007825032230
         C           -0.182468596407    -1.121284730029     1.775174890560    12.000000000000
         H           -0.827571596407    -1.986695730029     1.707542890560     1.007825032230
         C           -0.728028596407     0.158947269971     1.711209890560    12.000000000000
         H           -1.794656596407     0.286777269971     1.588030890560     1.007825032230
         C            0.103248403593     1.274228269971     1.793280890560    12.000000000000
         H           -0.320276596407     2.268133269971     1.740911890560     1.007825032230

  Running in c1 symmetry.

  Rotational constants: A =      0.10796  B =      0.04322  C =      0.04104 [cm^-1]
  Rotational constants: A =   3236.61694  B =   1295.60036  C =   1230.46533 [MHz]
  Nuclear repulsion =  203.711725547639560

  Charge       = 0
  Multiplicity = 1
  Electrons    = 42
  Nalpha       = 21
  Nbeta        = 21

  ==> Algorithm <==

  SCF Algorithm Type is DF.
  DIIS enabled.
  MOM disabled.
  Fractional occupation disabled.
  Guess Type is SAD.
  Energy threshold   = 1.00e-07
  Density threshold  = 1.00e-08
  Integral threshold = 0.00e+00

  ==> Primary Basis <==

  Basis Set: AUG-CC-PVTZ
    Blend: AUG-CC-PVTZ
    Number of shells: 138
    Number of basis function: 414
    Number of Cartesian functions: 480
    Spherical Harmonics?: true
    Max angular momentum: 3

   => Loading Basis Set <=

    Name: (AUG-CC-PVTZ AUX)
    Role: JKFIT
    Keyword: DF_BASIS_SCF
    atoms 1, 3, 5, 7, 9, 11  entry C          line   162 file /home/liuchw/anaconda3/envs/psi4env/share/psi4/basis/aug-cc-pvtz-jkfit.gbs 
    atoms 2, 4, 6, 8, 10, 12 entry H          line    70 file /home/liuchw/anaconda3/envs/psi4env/share/psi4/basis/aug-cc-pvtz-jkfit.gbs 

  ==> Pre-Iterations <==

   -------------------------------------------------------
    Irrep   Nso     Nmo     Nalpha   Nbeta   Ndocc  Nsocc
   -------------------------------------------------------
     A        414     414       0       0       0       0
   -------------------------------------------------------
    Total     414     414      21      21      21       0
   -------------------------------------------------------

  ==> Integral Setup <==

  DFHelper Memory: AOs need 1.188 GiB; user supplied 27.940 GiB. Using in-core AOs.

  ==> MemDFJK: Density-Fitted J/K Matrices <==

    J tasked:                   Yes
    K tasked:                   Yes
    wK tasked:                   No
    OpenMP threads:               8
    Memory [MiB]:             28610
    Algorithm:                 Core
    Schwarz Cutoff:           1E-12
    Mask sparsity (%):       1.0514
    Fitting Condition:        1E-10

   => Auxiliary Basis Set <=

  Basis Set: (AUG-CC-PVTZ AUX)
    Blend: AUG-CC-PVTZ-JKFIT
    Number of shells: 264
    Number of basis function: 900
    Number of Cartesian functions: 1116
    Spherical Harmonics?: true
    Max angular momentum: 4

  Minimum eigenvalue in the overlap matrix is 3.2936435449E-07.
  Using Symmetric Orthogonalization.

  SCF Guess: Superposition of Atomic Densities via on-the-fly atomic UHF.

  ==> Iterations <==

                           Total Energy        Delta E     RMS |[F,P]|

   @DF-RHF iter SAD:  -230.19476123420921   -2.30195e+02   0.00000e+00 
   @DF-RHF iter   1:  -230.60053159212916   -4.05770e-01   1.32243e-03 DIIS
   @DF-RHF iter   2:  -230.74268644896731   -1.42155e-01   6.56092e-04 DIIS
   @DF-RHF iter   3:  -230.77968675298013   -3.70003e-02   1.04711e-04 DIIS
   @DF-RHF iter   4:  -230.78123521207212   -1.54846e-03   1.29427e-05 DIIS
   @DF-RHF iter   5:  -230.78126412159517   -2.89095e-05   2.36018e-06 DIIS
   @DF-RHF iter   6:  -230.78126514119208   -1.01960e-06   3.04685e-07 DIIS
   @DF-RHF iter   7:  -230.78126515723389   -1.60418e-08   1.42687e-07 DIIS
   @DF-RHF iter   8:  -230.78126515929978   -2.06589e-09   2.35556e-08 DIIS
   @DF-RHF iter   9:  -230.78126515942006   -1.20281e-10   5.92139e-09 DIIS
  Energy and wave function converged.


  ==> Post-Iterations <==

    Orbital Energies [Eh]
    ---------------------

    Doubly Occupied:                                                      

       1A    -11.236290     2A    -11.235710     3A    -11.235685  
       4A    -11.234460     5A    -11.234454     6A    -11.233834  
       7A     -1.150544     8A     -1.015012     9A     -1.014811  
      10A     -0.824231    11A     -0.824173    12A     -0.709754  
      13A     -0.644077    14A     -0.619294    15A     -0.588271  
      16A     -0.588002    17A     -0.502491    18A     -0.495059  
      19A     -0.494793    20A     -0.336938    21A     -0.336818  

    Virtual:                                                              

      22A      0.029992    23A      0.034988    24A      0.034999  
      25A      0.048339    26A      0.048341    27A      0.064636  
      28A      0.099766    29A      0.103615    30A      0.103620  
      31A      0.110649    32A      0.110673    33A      0.117513  
      34A      0.118203    35A      0.118212    36A      0.124034  
      37A      0.128877    38A      0.128881    39A      0.137155  
      40A      0.143143    41A      0.143168    42A      0.154756  
      43A      0.158116    44A      0.158120    45A      0.162505  
      46A      0.162517    47A      0.162739    48A      0.231202  
      49A      0.248704    50A      0.248705    51A      0.254909  
      52A      0.256476    53A      0.256506    54A      0.271059  
      55A      0.296072    56A      0.296150    57A      0.301731  
      58A      0.307062    59A      0.308329    60A      0.308373  
      61A      0.318201    62A      0.324940    63A      0.324981  
      64A      0.332423    65A      0.346036    66A      0.346057  
      67A      0.349496    68A      0.349532    69A      0.365606  
      70A      0.379868    71A      0.379906    72A      0.397778  
      73A      0.421666    74A      0.434748    75A      0.434833  
      76A      0.446314    77A      0.446351    78A      0.458723  
      79A      0.459934    80A      0.463199    81A      0.463248  
      82A      0.477040    83A      0.477055    84A      0.480951  
      85A      0.491047    86A      0.491173    87A      0.501524  
      88A      0.505116    89A      0.523081    90A      0.523196  
      91A      0.527788    92A      0.527821    93A      0.534595  
      94A      0.542291    95A      0.542361    96A      0.549010  
      97A      0.580842    98A      0.616230    99A      0.630267  
     100A      0.630662   101A      0.636016   102A      0.636155  
     103A      0.653078   104A      0.653197   105A      0.663559  
     106A      0.663653   107A      0.700956   108A      0.701030  
     109A      0.702145   110A      0.709894   111A      0.730022  
     112A      0.730263   113A      0.730542   114A      0.744151  
     115A      0.763149   116A      0.763526   117A      0.790569  
     118A      0.802126   119A      0.818056   120A      0.818161  
     121A      0.837335   122A      0.850576   123A      0.850928  
     124A      0.851025   125A      0.867781   126A      0.867961  
     127A      0.880919   128A      0.881025   129A      0.889615  
     130A      0.900808   131A      0.904432   132A      0.906459  
     133A      0.906759   134A      0.924093   135A      0.949634  
     136A      0.949718   137A      0.954924   138A      0.961371  
     139A      0.986949   140A      0.986970   141A      0.993692  
     142A      1.031185   143A      1.031221   144A      1.032985  
     145A      1.033170   146A      1.066342   147A      1.066426  
     148A      1.081680   149A      1.081696   150A      1.085495  
     151A      1.096564   152A      1.100328   153A      1.104567  
     154A      1.105244   155A      1.105757   156A      1.109995  
     157A      1.141604   158A      1.141619   159A      1.151215  
     160A      1.178406   161A      1.178783   162A      1.180924  
     163A      1.181137   164A      1.204708   165A      1.204713  
     166A      1.219408   167A      1.222679   168A      1.222926  
     169A      1.237931   170A      1.237946   171A      1.264492  
     172A      1.267681   173A      1.276062   174A      1.276077  
     175A      1.328563   176A      1.360840   177A      1.360907  
     178A      1.364054   179A      1.387237   180A      1.396772  
     181A      1.396928   182A      1.402883   183A      1.403007  
     184A      1.426194   185A      1.476259   186A      1.476495  
     187A      1.488189   188A      1.511189   189A      1.511211  
     190A      1.518829   191A      1.519609   192A      1.519778  
     193A      1.541577   194A      1.634275   195A      1.678245  
     196A      1.678386   197A      1.694236   198A      1.694782  
     199A      1.702329   200A      1.714295   201A      1.714440  
     202A      1.755006   203A      1.755036   204A      1.778883  
     205A      1.791376   206A      1.817895   207A      1.828205  
     208A      1.828575   209A      1.839802   210A      1.840158  
     211A      1.848590   212A      1.884353   213A      1.888478  
     214A      1.888527   215A      1.909716   216A      1.909909  
     217A      1.928088   218A      1.972026   219A      1.994677  
     220A      1.995060   221A      2.007803   222A      2.007849  
     223A      2.016133   224A      2.016171   225A      2.041180  
     226A      2.053164   227A      2.053409   228A      2.060852  
     229A      2.084871   230A      2.085719   231A      2.101197  
     232A      2.101275   233A      2.101630   234A      2.116520  
     235A      2.227732   236A      2.227956   237A      2.269347  
     238A      2.269451   239A      2.338994   240A      2.339788  
     241A      2.352530   242A      2.369454   243A      2.369609  
     244A      2.375866   245A      2.376100   246A      2.402214  
     247A      2.441100   248A      2.509565   249A      2.510343  
     250A      2.562147   251A      2.562293   252A      2.568267  
     253A      2.591097   254A      2.592493   255A      2.695505  
     256A      2.716657   257A      2.754468   258A      2.764522  
     259A      2.793656   260A      2.836187   261A      2.842061  
     262A      2.842488   263A      2.929101   264A      3.080758  
     265A      3.080870   266A      3.129516   267A      3.165148  
     268A      3.165557   269A      3.224012   270A      3.224134  
     271A      3.312424   272A      3.318866   273A      3.319212  
     274A      3.330270   275A      3.364886   276A      3.365499  
     277A      3.383355   278A      3.383926   279A      3.389341  
     280A      3.405213   281A      3.411712   282A      3.429140  
     283A      3.429513   284A      3.524716   285A      3.525311  
     286A      3.536101   287A      3.536537   288A      3.553741  
     289A      3.553759   290A      3.572989   291A      3.573017  
     292A      3.585564   293A      3.613052   294A      3.631532  
     295A      3.652203   296A      3.656567   297A      3.656862  
     298A      3.751351   299A      3.772595   300A      3.802574  
     301A      3.814506   302A      3.833705   303A      3.833742  
     304A      3.838540   305A      3.838814   306A      3.845844  
     307A      3.845967   308A      3.870919   309A      3.871047  
     310A      3.961905   311A      3.962233   312A      3.985534  
     313A      3.985810   314A      3.990317   315A      4.035492  
     316A      4.036304   317A      4.049791   318A      4.050012  
     319A      4.057717   320A      4.108010   321A      4.108073  
     322A      4.124717   323A      4.132352   324A      4.133268  
     325A      4.172718   326A      4.187608   327A      4.205694  
     328A      4.246968   329A      4.247754   330A      4.283070  
     331A      4.290125   332A      4.333911   333A      4.334103  
     334A      4.356153   335A      4.363304   336A      4.363633  
     337A      4.429774   338A      4.433447   339A      4.433782  
     340A      4.442994   341A      4.443507   342A      4.466553  
     343A      4.470109   344A      4.470565   345A      4.508832  
     346A      4.508865   347A      4.605777   348A      4.703588  
     349A      4.721412   350A      4.721533   351A      4.726351  
     352A      4.726858   353A      4.736563   354A      4.796512  
     355A      4.796646   356A      4.881277   357A      4.881516  
     358A      4.925817   359A      4.929698   360A      4.943078  
     361A      5.032798   362A      5.033110   363A      5.074622  
     364A      5.075089   365A      5.080339   366A      5.081070  
     367A      5.113273   368A      5.118089   369A      5.152298  
     370A      5.152346   371A      5.179714   372A      5.180368  
     373A      5.182301   374A      5.183273   375A      5.236102  
     376A      5.236426   377A      5.339437   378A      5.340436  
     379A      5.347741   380A      5.355805   381A      5.431399  
     382A      5.431699   383A      5.440893   384A      5.440985  
     385A      5.502174   386A      5.538555   387A      5.742477  
     388A      5.742714   389A      5.792317   390A      5.792789  
     391A      5.857956   392A      5.881857   393A      5.930320  
     394A      5.983938   395A      6.166206   396A      6.166521  
     397A      6.272079   398A      6.273107   399A      6.368819  
     400A      6.369173   401A      6.399849   402A      6.651462  
     403A      6.652372   404A      6.860501   405A      6.860845  
     406A      7.032470   407A      7.222267   408A      7.446523  
     409A     16.058755   410A     16.060495   411A     17.161163  
     412A     19.333133   413A     19.337715   414A     19.579662  

    Final Occupation by Irrep:
              A 
    DOCC [    21 ]

  @DF-RHF Final Energy:  -230.78126515942006

   => Energetics <=

    Nuclear Repulsion Energy =            203.7117255476395599
    One-Electron Energy =                -713.8765886251935626
    Two-Electron Energy =                 279.3835979181339439
    Total Energy =                       -230.7812651594200588

Computation Completed


Properties will be evaluated at   0.000000,   0.000000,   0.000000 [a0]

Properties computed using the SCF density matrix

  Nuclear Dipole Moment: [e a0]
     X:    51.4840      Y:    -0.4830      Z:   147.2642

  Electronic Dipole Moment: [e a0]
     X:   -51.4838      Y:     0.4830      Z:  -147.2689

  Dipole Moment: [e a0]
     X:     0.0002      Y:    -0.0000      Z:    -0.0048     Total:     0.0048

  Dipole Moment: [D]
     X:     0.0006      Y:    -0.0001      Z:    -0.0121     Total:     0.0121


*** tstop() called on node37.bme.utexas.edu at Sat Apr 11 19:42:38 2020
Module time:
	user time   =      54.21 seconds =       0.90 minutes
	system time =       4.31 seconds =       0.07 minutes
	total time  =          9 seconds =       0.15 minutes
Total time:
	user time   =      54.21 seconds =       0.90 minutes
	system time =       4.31 seconds =       0.07 minutes
	total time  =          9 seconds =       0.15 minutes

*** tstart() called on node37.bme.utexas.edu
*** at Sat Apr 11 19:42:38 2020


  //>>>>>>>>>>>>>>>>>>>>>>>>>>>>>>>>>>>//
  //               DFMP2               //
  //<<<<<<<<<<<<<<<<<<<<<<<<<<<<<<<<<<<//

   => Loading Basis Set <=

    Name: (AUG-CC-PVTZ AUX)
    Role: RIFIT
    Keyword: DF_BASIS_MP2
    atoms 1, 3, 5, 7, 9, 11  entry C          line   148 file /home/liuchw/anaconda3/envs/psi4env/share/psi4/basis/aug-cc-pvtz-ri.gbs 
    atoms 2, 4, 6, 8, 10, 12 entry H          line    30 file /home/liuchw/anaconda3/envs/psi4env/share/psi4/basis/aug-cc-pvtz-ri.gbs 

	 --------------------------------------------------------
	                          DF-MP2                         
	      2nd-Order Density-Fitted Moller-Plesset Theory     
	              RMP2 Wavefunction,   8 Threads             
	                                                         
	        Rob Parrish, Justin Turney, Andy Simmonett,      
	           Ed Hohenstein, and C. David Sherrill          
	 --------------------------------------------------------

   => Auxiliary Basis Set <=

  Basis Set: (AUG-CC-PVTZ AUX)
    Blend: AUG-CC-PVTZ-RI
    Number of shells: 252
    Number of basis function: 912
    Number of Cartesian functions: 1146
    Spherical Harmonics?: true
    Max angular momentum: 4

	 --------------------------------------------------------
	                 NBF =   414, NAUX =   912
	 --------------------------------------------------------
	   CLASS    FOCC     OCC    AOCC    AVIR     VIR    FVIR
	   PAIRS       0      21      21     393     393       0
	 --------------------------------------------------------

	-----------------------------------------------------------
	 ==================> DF-MP2 Energies <==================== 
	-----------------------------------------------------------
	 Reference Energy          =    -230.7812651594200588 [Eh]
	 Singles Energy            =      -0.0000000000000000 [Eh]
	 Same-Spin Energy          =      -0.2553783111446610 [Eh]
	 Opposite-Spin Energy      =      -0.8183093212377304 [Eh]
	 Correlation Energy        =      -1.0736876323823914 [Eh]
	 Total Energy              =    -231.8549527918024467 [Eh]
	-----------------------------------------------------------
	 ================> DF-SCS-MP2 Energies <================== 
	-----------------------------------------------------------
	 SCS Same-Spin Scale       =       0.3333333333333333 [-]
	 SCS Opposite-Spin Scale   =       1.2000000000000000 [-]
	 SCS Same-Spin Energy      =      -0.0851261037148870 [Eh]
	 SCS Opposite-Spin Energy  =      -0.9819711854852764 [Eh]
	 SCS Correlation Energy    =      -1.0670972892001633 [Eh]
	 SCS Total Energy          =    -231.8483624486202359 [Eh]
	-----------------------------------------------------------


*** tstop() called on node37.bme.utexas.edu at Sat Apr 11 19:42:42 2020
Module time:
	user time   =      23.28 seconds =       0.39 minutes
	system time =       2.69 seconds =       0.04 minutes
	total time  =          4 seconds =       0.07 minutes
Total time:
	user time   =      77.50 seconds =       1.29 minutes
	system time =       7.00 seconds =       0.12 minutes
	total time  =         13 seconds =       0.22 minutes

  //>>>>>>>>>>>>>>>>>>>>>>>>>>>>>>>>>>>>//
  // CBS Computation: MP2 / AUG-CC-PVQZ //
  //<<<<<<<<<<<<<<<<<<<<<<<<<<<<<<<<<<<<//


Scratch directory: /scratch//

*** tstart() called on node37.bme.utexas.edu
*** at Sat Apr 11 19:42:42 2020

   => Loading Basis Set <=

    Name: AUG-CC-PVQZ
    Role: ORBITAL
    Keyword: BASIS
    atoms 1, 3, 5, 7, 9, 11  entry C          line   303 file /home/liuchw/anaconda3/envs/psi4env/share/psi4/basis/aug-cc-pvqz.gbs 
    atoms 2, 4, 6, 8, 10, 12 entry H          line    40 file /home/liuchw/anaconda3/envs/psi4env/share/psi4/basis/aug-cc-pvqz.gbs 


         ---------------------------------------------------------
                                   SCF
               by Justin Turney, Rob Parrish, Andy Simmonett
                          and Daniel G. A. Smith
                              RHF Reference
                        8 Threads,  38146 MiB Core
         ---------------------------------------------------------

  ==> Geometry <==

    Molecular point group: c1
    Full point group: C1

    Geometry (in Angstrom), charge = 0, multiplicity = 1:

       Center              X                  Y                   Z               Mass       
    ------------   -----------------  -----------------  -----------------  -----------------
         C            1.479629403593     1.109831269971     1.937022890560    12.000000000000
         H            2.124474403593     1.976015269971     2.000773890560     1.007825032230
         C            2.025582403593    -0.171319730029     1.998542890560    12.000000000000
         H            3.093789403593    -0.299466730029     2.111286890560     1.007825032230
         C            1.193933403593    -1.286919730029     1.919891890560    12.000000000000
         H            1.617014403593    -2.281272730029     1.969545890560     1.007825032230
         C           -0.182468596407    -1.121284730029     1.775174890560    12.000000000000
         H           -0.827571596407    -1.986695730029     1.707542890560     1.007825032230
         C           -0.728028596407     0.158947269971     1.711209890560    12.000000000000
         H           -1.794656596407     0.286777269971     1.588030890560     1.007825032230
         C            0.103248403593     1.274228269971     1.793280890560    12.000000000000
         H           -0.320276596407     2.268133269971     1.740911890560     1.007825032230

  Running in c1 symmetry.

  Rotational constants: A =      0.10796  B =      0.04322  C =      0.04104 [cm^-1]
  Rotational constants: A =   3236.61694  B =   1295.60036  C =   1230.46533 [MHz]
  Nuclear repulsion =  203.711725547639560

  Charge       = 0
  Multiplicity = 1
  Electrons    = 42
  Nalpha       = 21
  Nbeta        = 21

  ==> Algorithm <==

  SCF Algorithm Type is DF.
  DIIS enabled.
  MOM disabled.
  Fractional occupation disabled.
  Guess Type is SAD.
  Energy threshold   = 1.00e-07
  Density threshold  = 1.00e-08
  Integral threshold = 0.00e+00

  ==> Primary Basis <==

  Basis Set: AUG-CC-PVQZ
    Blend: AUG-CC-PVQZ
    Number of shells: 204
    Number of basis function: 756
    Number of Cartesian functions: 960
    Spherical Harmonics?: true
    Max angular momentum: 4

   => Loading Basis Set <=

    Name: (AUG-CC-PVQZ AUX)
    Role: JKFIT
    Keyword: DF_BASIS_SCF
    atoms 1, 3, 5, 7, 9, 11  entry C          line   178 file /home/liuchw/anaconda3/envs/psi4env/share/psi4/basis/aug-cc-pvqz-jkfit.gbs 
    atoms 2, 4, 6, 8, 10, 12 entry H          line    70 file /home/liuchw/anaconda3/envs/psi4env/share/psi4/basis/aug-cc-pvqz-jkfit.gbs 

  ==> Pre-Iterations <==

   -------------------------------------------------------
    Irrep   Nso     Nmo     Nalpha   Nbeta   Ndocc  Nsocc
   -------------------------------------------------------
     A        756     756       0       0       0       0
   -------------------------------------------------------
    Total     756     756      21      21      21       0
   -------------------------------------------------------

  ==> Integral Setup <==

  DFHelper Memory: AOs need 5.578 GiB; user supplied 27.940 GiB. Using in-core AOs.

  ==> MemDFJK: Density-Fitted J/K Matrices <==

    J tasked:                   Yes
    K tasked:                   Yes
    wK tasked:                   No
    OpenMP threads:               8
    Memory [MiB]:             28610
    Algorithm:                 Core
    Schwarz Cutoff:           1E-12
    Mask sparsity (%):       3.2085
    Fitting Condition:        1E-10

   => Auxiliary Basis Set <=

  Basis Set: (AUG-CC-PVQZ AUX)
    Blend: AUG-CC-PVQZ-JKFIT
    Number of shells: 312
    Number of basis function: 1308
    Number of Cartesian functions: 1794
    Spherical Harmonics?: true
    Max angular momentum: 5

  Minimum eigenvalue in the overlap matrix is 2.5786580023E-07.
  Using Symmetric Orthogonalization.

  SCF Guess: Superposition of Atomic Densities via on-the-fly atomic UHF.

  ==> Iterations <==

                           Total Energy        Delta E     RMS |[F,P]|

   @DF-RHF iter SAD:  -230.20283136692640   -2.30203e+02   0.00000e+00 
   @DF-RHF iter   1:  -230.61292443077286   -4.10093e-01   7.28412e-04 DIIS
   @DF-RHF iter   2:  -230.75547220449832   -1.42548e-01   3.62607e-04 DIIS
   @DF-RHF iter   3:  -230.79284091310183   -3.73687e-02   5.84714e-05 DIIS
   @DF-RHF iter   4:  -230.79440866971902   -1.56776e-03   7.37010e-06 DIIS
   @DF-RHF iter   5:  -230.79443980814494   -3.11384e-05   1.33791e-06 DIIS
   @DF-RHF iter   6:  -230.79444088517903   -1.07703e-06   1.71045e-07 DIIS
   @DF-RHF iter   7:  -230.79444090218550   -1.70065e-08   7.81348e-08 DIIS
   @DF-RHF iter   8:  -230.79444090425062   -2.06512e-09   1.37909e-08 DIIS
   @DF-RHF iter   9:  -230.79444090438173   -1.31109e-10   3.30425e-09 DIIS
  Energy and wave function converged.


  ==> Post-Iterations <==

    Orbital Energies [Eh]
    ---------------------

    Doubly Occupied:                                                      

       1A    -11.235177     2A    -11.234597     3A    -11.234572  
       4A    -11.233346     5A    -11.233341     6A    -11.232717  
       7A     -1.150186     8A     -1.014672     9A     -1.014471  
      10A     -0.824057    11A     -0.823999    12A     -0.709771  
      13A     -0.644065    14A     -0.619292    15A     -0.588277  
      16A     -0.588007    17A     -0.502614    18A     -0.495118  
      19A     -0.494853    20A     -0.337013    21A     -0.336893  

    Virtual:                                                              

      22A      0.026492    23A      0.030431    24A      0.030441  
      25A      0.042479    26A      0.042480    27A      0.058645  
      28A      0.082973    29A      0.090187    30A      0.090198  
      31A      0.097552    32A      0.097558    33A      0.100340  
      34A      0.101425    35A      0.101428    36A      0.105483  
      37A      0.113584    38A      0.113588    39A      0.117359  
      40A      0.125697    41A      0.125714    42A      0.134605  
      43A      0.134607    44A      0.138603    45A      0.140148  
      46A      0.140304    47A      0.140322    48A      0.201845  
      49A      0.212879    50A      0.213438    51A      0.213772  
      52A      0.219194    53A      0.219204    54A      0.231569  
      55A      0.247785    56A      0.247851    57A      0.256089  
      58A      0.256122    59A      0.260001    60A      0.264260  
      61A      0.268172    62A      0.286412    63A      0.286452  
      64A      0.291499    65A      0.291910    66A      0.296001  
      67A      0.296032    68A      0.298360    69A      0.298372  
      70A      0.319362    71A      0.319372    72A      0.321212  
      73A      0.321220    74A      0.324559    75A      0.332508  
      76A      0.348325    77A      0.348379    78A      0.361301  
      79A      0.366645    80A      0.366809    81A      0.370055  
      82A      0.402546    83A      0.402577    84A      0.407192  
      85A      0.418629    86A      0.418654    87A      0.430050  
      88A      0.430757    89A      0.431220    90A      0.431310  
      91A      0.438082    92A      0.438293    93A      0.444031  
      94A      0.454669    95A      0.454715    96A      0.456967  
      97A      0.473944    98A      0.474022    99A      0.475779  
     100A      0.503600   101A      0.504167   102A      0.504205  
     103A      0.513644   104A      0.513762   105A      0.518517  
     106A      0.518582   107A      0.519046   108A      0.519145  
     109A      0.529698   110A      0.536108   111A      0.537761  
     112A      0.553266   113A      0.576178   114A      0.577342  
     115A      0.577423   116A      0.579021   117A      0.586153  
     118A      0.599788   119A      0.599813   120A      0.642447  
     121A      0.650977   122A      0.658823   123A      0.658842  
     124A      0.678989   125A      0.679003   126A      0.693064  
     127A      0.693291   128A      0.695764   129A      0.699008  
     130A      0.704560   131A      0.705564   132A      0.712541  
     133A      0.730041   134A      0.730169   135A      0.735894  
     136A      0.746133   137A      0.746503   138A      0.757609  
     139A      0.769411   140A      0.769424   141A      0.777290  
     142A      0.777608   143A      0.792849   144A      0.792914  
     145A      0.803756   146A      0.803855   147A      0.829118  
     148A      0.833419   149A      0.835822   150A      0.835850  
     151A      0.838533   152A      0.838562   153A      0.864143  
     154A      0.875090   155A      0.890261   156A      0.890322  
     157A      0.893512   158A      0.915550   159A      0.915563  
     160A      0.921506   161A      0.921591   162A      0.927103  
     163A      0.940513   164A      0.952375   165A      0.952625  
     166A      0.957895   167A      0.957917   168A      0.978340  
     169A      0.987287   170A      0.987438   171A      0.990730  
     172A      0.990889   173A      1.011465   174A      1.027028  
     175A      1.027084   176A      1.037073   177A      1.044460  
     178A      1.054211   179A      1.054645   180A      1.072214  
     181A      1.092736   182A      1.097732   183A      1.097963  
     184A      1.114648   185A      1.128655   186A      1.150398  
     187A      1.155801   188A      1.157067   189A      1.169786  
     190A      1.169925   191A      1.178008   192A      1.178144  
     193A      1.199779   194A      1.199789   195A      1.219733  
     196A      1.237680   197A      1.246748   198A      1.248926  
     199A      1.249044   200A      1.278329   201A      1.294019  
     202A      1.299137   203A      1.299206   204A      1.323207  
     205A      1.324226   206A      1.340975   207A      1.343209  
     208A      1.343238   209A      1.353043   210A      1.353072  
     211A      1.363035   212A      1.374325   213A      1.374682  
     214A      1.383903   215A      1.384133   216A      1.402311  
     217A      1.402542   218A      1.404840   219A      1.404929  
     220A      1.434039   221A      1.449535   222A      1.504660  
     223A      1.505185   224A      1.525058   225A      1.525110  
     226A      1.528472   227A      1.528655   228A      1.529236  
     229A      1.529345   230A      1.556636   231A      1.568021  
     232A      1.568107   233A      1.582518   234A      1.582545  
     235A      1.590218   236A      1.591154   237A      1.591242  
     238A      1.598767   239A      1.598776   240A      1.636861  
     241A      1.658894   242A      1.669221   243A      1.678353  
     244A      1.724140   245A      1.724407   246A      1.736693  
     247A      1.758181   248A      1.758301   249A      1.771027  
     250A      1.786986   251A      1.787215   252A      1.787910  
     253A      1.815607   254A      1.815822   255A      1.817184  
     256A      1.847522   257A      1.857440   258A      1.875943  
     259A      1.884953   260A      1.893044   261A      1.893165  
     262A      1.909696   263A      1.910025   264A      1.916663  
     265A      1.916688   266A      1.935321   267A      1.935593  
     268A      1.943388   269A      1.976681   270A      1.976699  
     271A      2.023602   272A      2.024434   273A      2.029787  
     274A      2.030250   275A      2.033147   276A      2.036048  
     277A      2.043597   278A      2.048805   279A      2.060447  
     280A      2.060798   281A      2.072231   282A      2.085969  
     283A      2.085997   284A      2.095277   285A      2.100131  
     286A      2.116479   287A      2.116830   288A      2.132364  
     289A      2.138272   290A      2.148372   291A      2.148755  
     292A      2.179359   293A      2.195672   294A      2.195746  
     295A      2.240201   296A      2.241374   297A      2.242558  
     298A      2.253672   299A      2.253760   300A      2.259138  
     301A      2.272970   302A      2.278404   303A      2.278666  
     304A      2.292723   305A      2.293077   306A      2.295668  
     307A      2.295730   308A      2.297070   309A      2.297461  
     310A      2.302998   311A      2.375368   312A      2.375693  
     313A      2.392301   314A      2.394373   315A      2.399541  
     316A      2.400091   317A      2.400604   318A      2.404429  
     319A      2.404861   320A      2.405738   321A      2.420834  
     322A      2.421131   323A      2.426964   324A      2.440778  
     325A      2.441830   326A      2.443441   327A      2.446209  
     328A      2.446666   329A      2.508564   330A      2.508612  
     331A      2.510378   332A      2.523095   333A      2.523309  
     334A      2.530892   335A      2.536802   336A      2.544481  
     337A      2.544605   338A      2.567547   339A      2.567805  
     340A      2.600629   341A      2.600975   342A      2.611220  
     343A      2.616918   344A      2.616979   345A      2.618856  
     346A      2.639309   347A      2.663734   348A      2.663833  
     349A      2.707033   350A      2.707466   351A      2.719200  
     352A      2.719433   353A      2.734175   354A      2.734373  
     355A      2.781627   356A      2.790716   357A      2.790880  
     358A      2.813764   359A      2.817606   360A      2.817674  
     361A      2.821509   362A      2.821843   363A      2.831388  
     364A      2.831754   365A      2.843626   366A      2.870672  
     367A      2.887324   368A      2.887653   369A      2.893343  
     370A      2.971024   371A      2.971393   372A      2.998214  
     373A      2.998465   374A      3.003485   375A      3.015500  
     376A      3.030743   377A      3.031381   378A      3.067431  
     379A      3.101892   380A      3.102197   381A      3.102390  
     382A      3.102419   383A      3.164431   384A      3.171240  
     385A      3.171530   386A      3.172985   387A      3.173310  
     388A      3.178757   389A      3.201567   390A      3.201706  
     391A      3.275705   392A      3.284219   393A      3.302552  
     394A      3.302797   395A      3.318089   396A      3.318792  
     397A      3.343662   398A      3.344062   399A      3.353324  
     400A      3.353884   401A      3.390488   402A      3.435454  
     403A      3.435830   404A      3.468347   405A      3.470947  
     406A      3.506307   407A      3.523547   408A      3.525865  
     409A      3.533255   410A      3.586117   411A      3.586744  
     412A      3.596901   413A      3.597231   414A      3.609064  
     415A      3.637272   416A      3.637738   417A      3.637792  
     418A      3.684894   419A      3.742529   420A      3.754603  
     421A      3.754660   422A      3.785079   423A      3.785288  
     424A      3.805139   425A      3.834591   426A      3.835226  
     427A      3.879578   428A      3.879999   429A      3.885430  
     430A      3.885797   431A      3.948942   432A      3.949278  
     433A      3.954315   434A      3.968009   435A      3.968196  
     436A      4.016758   437A      4.033374   438A      4.034038  
     439A      4.050277   440A      4.050984   441A      4.067753  
     442A      4.079924   443A      4.080025   444A      4.127436  
     445A      4.130657   446A      4.131148   447A      4.225056  
     448A      4.225146   449A      4.270778   450A      4.273092  
     451A      4.273613   452A      4.278404   453A      4.302340  
     454A      4.325863   455A      4.360393   456A      4.370572  
     457A      4.370950   458A      4.379144   459A      4.379410  
     460A      4.383756   461A      4.403218   462A      4.404280  
     463A      4.408575   464A      4.411492   465A      4.441606  
     466A      4.442710   467A      4.500121   468A      4.500658  
     469A      4.501302   470A      4.504166   471A      4.531451  
     472A      4.531783   473A      4.578632   474A      4.579561  
     475A      4.585806   476A      4.630265   477A      4.643425  
     478A      4.643955   479A      4.652564   480A      4.813170  
     481A      4.840897   482A      4.851545   483A      4.852898  
     484A      4.927849   485A      4.929183   486A      4.936499  
     487A      4.942099   488A      4.942320   489A      4.956831  
     490A      4.957341   491A      5.005252   492A      5.026081  
     493A      5.052018   494A      5.084610   495A      5.085102  
     496A      5.100316   497A      5.100752   498A      5.140133  
     499A      5.389254   500A      5.389773   501A      5.399431  
     502A      5.427127   503A      5.427744   504A      5.608327  
     505A      5.609087   506A      5.666793   507A      5.667634  
     508A      5.678379   509A      5.725505   510A      5.743732  
     511A      5.784345   512A      5.815570   513A      5.850141  
     514A      5.850172   515A      5.897372   516A      5.959880  
     517A      5.998494   518A      6.009852   519A      6.013472  
     520A      6.066016   521A      6.066266   522A      6.089266  
     523A      6.089558   524A      6.123866   525A      6.124174  
     526A      6.264471   527A      6.264598   528A      6.271662  
     529A      6.291426   530A      6.292015   531A      6.297875  
     532A      6.297960   533A      6.326054   534A      6.364387  
     535A      6.364626   536A      6.389191   537A      6.389659  
     538A      6.396392   539A      6.397020   540A      6.447254  
     541A      6.447506   542A      6.469122   543A      6.499014  
     544A      6.537578   545A      6.553408   546A      6.606540  
     547A      6.606627   548A      6.654371   549A      6.665613  
     550A      6.665682   551A      6.670100   552A      6.692303  
     553A      6.692409   554A      6.704229   555A      6.743956  
     556A      6.744390   557A      6.776242   558A      6.794976  
     559A      6.795102   560A      6.825024   561A      6.846193  
     562A      6.846842   563A      6.907501   564A      6.911187  
     565A      6.929087   566A      6.929301   567A      6.949565  
     568A      6.950121   569A      6.955684   570A      6.972548  
     571A      6.972974   572A      6.973896   573A      7.017261  
     574A      7.017910   575A      7.094972   576A      7.107084  
     577A      7.108020   578A      7.109542   579A      7.109998  
     580A      7.113476   581A      7.144837   582A      7.144890  
     583A      7.191139   584A      7.194298   585A      7.210026  
     586A      7.210183   587A      7.231692   588A      7.254383  
     589A      7.254987   590A      7.268569   591A      7.269779  
     592A      7.306383   593A      7.306734   594A      7.385135  
     595A      7.386806   596A      7.407692   597A      7.408117  
     598A      7.410595   599A      7.416090   600A      7.416564  
     601A      7.454192   602A      7.524630   603A      7.524732  
     604A      7.566545   605A      7.566839   606A      7.587050  
     607A      7.587484   608A      7.590123   609A      7.627278  
     610A      7.666237   611A      7.666249   612A      7.708544  
     613A      7.708591   614A      7.741639   615A      7.742553  
     616A      7.785353   617A      7.837571   618A      7.838218  
     619A      7.838755   620A      7.872757   621A      7.875526  
     622A      7.943777   623A      7.944632   624A      7.945145  
     625A      7.972242   626A      7.972647   627A      8.016583  
     628A      8.016606   629A      8.031408   630A      8.056136  
     631A      8.056292   632A      8.095397   633A      8.182187  
     634A      8.245957   635A      8.269417   636A      8.270516  
     637A      8.297144   638A      8.304806   639A      8.305421  
     640A      8.319007   641A      8.356216   642A      8.367562  
     643A      8.367825   644A      8.453005   645A      8.453530  
     646A      8.454980   647A      8.455255   648A      8.532256  
     649A      8.640185   650A      8.661545   651A      8.662064  
     652A      8.669053   653A      8.719588   654A      8.720673  
     655A      8.720872   656A      8.721518   657A      8.773334  
     658A      8.773947   659A      8.782360   660A      8.789218  
     661A      8.865188   662A      8.866246   663A      8.930882  
     664A      8.931388   665A      8.944163   666A      8.944262  
     667A      8.994187   668A      8.994779   669A      9.044912  
     670A      9.056755   671A      9.065244   672A      9.078502  
     673A      9.079068   674A      9.130466   675A      9.131009  
     676A      9.302413   677A      9.321301   678A      9.326540  
     679A      9.425056   680A      9.433286   681A      9.433399  
     682A      9.457895   683A      9.459349   684A      9.509553  
     685A      9.509648   686A      9.533568   687A      9.534025  
     688A      9.582464   689A      9.589527   690A      9.589666  
     691A      9.600455   692A      9.600620   693A      9.634867  
     694A      9.718815   695A      9.719708   696A      9.828595  
     697A      9.852826   698A      9.881641   699A      9.882504  
     700A      9.888085   701A     10.022151   702A     10.022280  
     703A     10.036141   704A     10.036589   705A     10.109351  
     706A     10.129642   707A     10.130564   708A     10.236086  
     709A     10.261268   710A     10.262220   711A     10.324403  
     712A     10.325454   713A     10.327727   714A     10.328634  
     715A     10.383773   716A     10.384179   717A     10.484619  
     718A     10.485305   719A     10.573589   720A     10.574597  
     721A     10.603174   722A     10.729553   723A     10.729570  
     724A     10.778297   725A     10.778545   726A     10.822949  
     727A     10.824599   728A     10.835893   729A     10.856564  
     730A     10.916365   731A     11.065359   732A     11.094037  
     733A     11.120956   734A     11.122580   735A     11.360762  
     736A     11.490998   737A     11.491949   738A     11.524235  
     739A     11.665905   740A     11.666075   741A     11.753869  
     742A     11.755695   743A     11.794520   744A     12.511710  
     745A     13.114412   746A     13.336458   747A     13.336973  
     748A     13.443628   749A     13.444707   750A     13.725489  
     751A     26.196810   752A     26.197332   753A     26.647232  
     754A     26.784164   755A     27.205443   756A     27.206805  

    Final Occupation by Irrep:
              A 
    DOCC [    21 ]

  @DF-RHF Final Energy:  -230.79444090438173

   => Energetics <=

    Nuclear Repulsion Energy =            203.7117255476395599
    One-Electron Energy =                -713.9182659543012051
    Two-Electron Energy =                 279.4120995022798866
    Total Energy =                       -230.7944409043817586

Computation Completed


Properties will be evaluated at   0.000000,   0.000000,   0.000000 [a0]

Properties computed using the SCF density matrix

  Nuclear Dipole Moment: [e a0]
     X:    51.4840      Y:    -0.4830      Z:   147.2642

  Electronic Dipole Moment: [e a0]
     X:   -51.4838      Y:     0.4830      Z:  -147.2689

  Dipole Moment: [e a0]
     X:     0.0002      Y:    -0.0000      Z:    -0.0047     Total:     0.0047

  Dipole Moment: [D]
     X:     0.0006      Y:    -0.0001      Z:    -0.0121     Total:     0.0121


*** tstop() called on node37.bme.utexas.edu at Sat Apr 11 19:43:17 2020
Module time:
	user time   =     224.62 seconds =       3.74 minutes
	system time =      13.28 seconds =       0.22 minutes
	total time  =         35 seconds =       0.58 minutes
Total time:
	user time   =     302.19 seconds =       5.04 minutes
	system time =      20.29 seconds =       0.34 minutes
	total time  =         48 seconds =       0.80 minutes

*** tstart() called on node37.bme.utexas.edu
*** at Sat Apr 11 19:43:17 2020


  //>>>>>>>>>>>>>>>>>>>>>>>>>>>>>>>>>>>//
  //               DFMP2               //
  //<<<<<<<<<<<<<<<<<<<<<<<<<<<<<<<<<<<//

   => Loading Basis Set <=

    Name: (AUG-CC-PVQZ AUX)
    Role: RIFIT
    Keyword: DF_BASIS_MP2
    atoms 1, 3, 5, 7, 9, 11  entry C          line   184 file /home/liuchw/anaconda3/envs/psi4env/share/psi4/basis/aug-cc-pvqz-ri.gbs 
    atoms 2, 4, 6, 8, 10, 12 entry H          line    30 file /home/liuchw/anaconda3/envs/psi4env/share/psi4/basis/aug-cc-pvqz-ri.gbs 

	 --------------------------------------------------------
	                          DF-MP2                         
	      2nd-Order Density-Fitted Moller-Plesset Theory     
	              RMP2 Wavefunction,   8 Threads             
	                                                         
	        Rob Parrish, Justin Turney, Andy Simmonett,      
	           Ed Hohenstein, and C. David Sherrill          
	 --------------------------------------------------------

   => Auxiliary Basis Set <=

  Basis Set: (AUG-CC-PVQZ AUX)
    Blend: AUG-CC-PVQZ-RI
    Number of shells: 336
    Number of basis function: 1488
    Number of Cartesian functions: 2052
    Spherical Harmonics?: true
    Max angular momentum: 5

	 --------------------------------------------------------
	                 NBF =   756, NAUX =  1488
	 --------------------------------------------------------
	   CLASS    FOCC     OCC    AOCC    AVIR     VIR    FVIR
	   PAIRS       0      21      21     735     735       0
	 --------------------------------------------------------

	-----------------------------------------------------------
	 ==================> DF-MP2 Energies <==================== 
	-----------------------------------------------------------
	 Reference Energy          =    -230.7944409043817302 [Eh]
	 Singles Energy            =      -0.0000000000000000 [Eh]
	 Same-Spin Energy          =      -0.2699422972390668 [Eh]
	 Opposite-Spin Energy      =      -0.9181465009106136 [Eh]
	 Correlation Energy        =      -1.1880887981496804 [Eh]
	 Total Energy              =    -231.9825297025314228 [Eh]
	-----------------------------------------------------------
	 ================> DF-SCS-MP2 Energies <================== 
	-----------------------------------------------------------
	 SCS Same-Spin Scale       =       0.3333333333333333 [-]
	 SCS Opposite-Spin Scale   =       1.2000000000000000 [-]
	 SCS Same-Spin Energy      =      -0.0899807657463556 [Eh]
	 SCS Opposite-Spin Energy  =      -1.1017758010927363 [Eh]
	 SCS Correlation Energy    =      -1.1917565668390919 [Eh]
	 SCS Total Energy          =    -231.9861974712208337 [Eh]
	-----------------------------------------------------------


*** tstop() called on node37.bme.utexas.edu at Sat Apr 11 19:43:39 2020
Module time:
	user time   =     104.27 seconds =       1.74 minutes
	system time =       8.86 seconds =       0.15 minutes
	total time  =         22 seconds =       0.37 minutes
Total time:
	user time   =     406.47 seconds =       6.77 minutes
	system time =      29.15 seconds =       0.49 minutes
	total time  =         70 seconds =       1.17 minutes

  //>>>>>>>>>>>>>>>>>>>>>>>>>>>>>>>>>>>//
  //  CBS Results: mp2/aug-cc-pv[tq]z  //
  //<<<<<<<<<<<<<<<<<<<<<<<<<<<<<<<<<<<//


   ==> HF <==

   HI-zeta (4) Energy:               -230.794440904382


   ==> Helgaker 2-point correlated extrapolation for method: MP2 <==

   LO-zeta (3) Energy:               -231.854952791802
   HI-zeta (4) Energy:               -231.982529702531
   Alpha (exponent) Value:             3.000000000000
   Extrapolated Energy:              -232.075626367117

   @Extrapolated MP2/(T,Q):          -232.075626367117



   ==> Helgaker 2-point correlated extrapolation for method: HF <==

   LO-zeta (3) Energy:               -230.781265159420
   HI-zeta (4) Energy:               -230.794440904382
   Alpha (exponent) Value:             3.000000000000
   Extrapolated Energy:              -230.804055637192

   @Extrapolated HF/(T,Q):           -230.804055637192


   ==> Components <==

  ---------------------------------------------------------------------------------------------------------
                          Method / Basis                      Rqd      Energy [Eh]   Variable
  ---------------------------------------------------------------------------------------------------------
                              hf / aug-cc-pvtz                  *    -230.78126516   HF TOTAL ENERGY
                             mp2 / aug-cc-pvtz                  *    -231.85495279   MP2 TOTAL ENERGY
                              hf / aug-cc-pvqz                  *    -230.79444090   HF TOTAL ENERGY
                             mp2 / aug-cc-pvqz                  *    -231.98252970   MP2 TOTAL ENERGY
  ---------------------------------------------------------------------------------------------------------

   ==> Stages <==

  ---------------------------------------------------------------------------------------------------------
      Stage               Method / Basis                       Wt      Energy [Eh]   Scheme
  ---------------------------------------------------------------------------------------------------------
        scf                   hf / aug-cc-pvqz                  1    -230.79444090   xtpl_highest_1
       corl                  mp2 / aug-cc-pv[tq]z               1    -232.07562637   corl_xtpl_helgaker_2
       corl                   hf / aug-cc-pv[tq]z              -1    -230.80405564   corl_xtpl_helgaker_2
  ---------------------------------------------------------------------------------------------------------

   ==> CBS <==

  ---------------------------------------------------------------------------------------------------------
      Stage               Method / Basis                               Energy [Eh]   Scheme
  ---------------------------------------------------------------------------------------------------------
        scf                   hf / aug-cc-pvqz                       -230.79444090   xtpl_highest_1
       corl                  mp2 / aug-cc-pv[tq]z                      -1.27157073   corl_xtpl_helgaker_2
      total                  CBS                                     -232.06601163   
  ---------------------------------------------------------------------------------------------------------
   => Loading Basis Set <=

    Name: DEF2-SVP
    Role: ORBITAL
    Keyword: BASIS
    atoms 1, 3, 5, 7, 9, 11  entry C          line    90 file /home/liuchw/anaconda3/envs/psi4env/share/psi4/basis/def2-svp.gbs 
    atoms 2, 4, 6, 8, 10, 12 entry H          line    15 file /home/liuchw/anaconda3/envs/psi4env/share/psi4/basis/def2-svp.gbs 


       N-Body: Complex Energy (fragments = (2,), basis = (2,):  -232.06601163430761)

       N-Body: Computing complex (2/4) with fragments (2,) in the basis of fragments (1, 2).


Scratch directory: /scratch//

  //>>>>>>>>>>>>>>>>>>>>>>>>>>>>>>>>>>>//
  //   CBS Setup: mp2/aug-cc-pv[tq]z   //
  //<<<<<<<<<<<<<<<<<<<<<<<<<<<<<<<<<<<//

    Naive listing of computations required.
             hf / aug-cc-pvqz              for  HF TOTAL ENERGY
            mp2 / aug-cc-pvtz              for  MP2 TOTAL ENERGY
            mp2 / aug-cc-pvqz              for  MP2 TOTAL ENERGY
             hf / aug-cc-pvtz              for  HF TOTAL ENERGY
             hf / aug-cc-pvqz              for  HF TOTAL ENERGY

    Enlightened listing of computations required.
            mp2 / aug-cc-pvtz              for  MP2 TOTAL ENERGY
            mp2 / aug-cc-pvqz              for  MP2 TOTAL ENERGY

    Full listing of computations to be obtained (required and bonus).
             hf / aug-cc-pvtz              for  HF TOTAL ENERGY
            mp2 / aug-cc-pvtz              for  MP2 TOTAL ENERGY
             hf / aug-cc-pvqz              for  HF TOTAL ENERGY
            mp2 / aug-cc-pvqz              for  MP2 TOTAL ENERGY

  //>>>>>>>>>>>>>>>>>>>>>>>>>>>>>>>>>>>>//
  // CBS Computation: MP2 / AUG-CC-PVTZ //
  //<<<<<<<<<<<<<<<<<<<<<<<<<<<<<<<<<<<<//


Scratch directory: /scratch//

*** tstart() called on node37.bme.utexas.edu
*** at Sat Apr 11 19:43:42 2020

   => Loading Basis Set <=

    Name: AUG-CC-PVTZ
    Role: ORBITAL
    Keyword: BASIS
    atoms 1, 3, 5, 7, 9, 11, 13, 15, 17, 19, 21, 23  entry C          line   239 file /home/liuchw/anaconda3/envs/psi4env/share/psi4/basis/aug-cc-pvtz.gbs 
    atoms 2, 4, 6, 8, 10, 12, 14, 16, 18, 20, 22, 24 entry H          line    40 file /home/liuchw/anaconda3/envs/psi4env/share/psi4/basis/aug-cc-pvtz.gbs 


         ---------------------------------------------------------
                                   SCF
               by Justin Turney, Rob Parrish, Andy Simmonett
                          and Daniel G. A. Smith
                              RHF Reference
                        8 Threads,  38146 MiB Core
         ---------------------------------------------------------

  ==> Geometry <==

    Molecular point group: c1
    Full point group: C1

    Geometry (in Angstrom), charge = 0, multiplicity = 1:

       Center              X                  Y                   Z               Mass       
    ------------   -----------------  -----------------  -----------------  -----------------
      Gh(C)           0.182521403593     1.121276269971    -1.775670109440    12.000000000000
      Gh(H)           0.827718403593     1.986679269971    -1.708474109440     1.007825032230
      Gh(C)           0.728112403593    -0.158971730029    -1.711977109440    12.000000000000
      Gh(H)           1.794830403593    -0.286819730029    -1.589468109440     1.007825032230
      Gh(C)          -0.103238596407    -1.274246730029    -1.793561109440    12.000000000000
      Gh(H)           0.320321403593    -2.268152730029    -1.741461109440     1.007825032230
      Gh(C)          -1.479701596407    -1.109793730029    -1.936525109440    12.000000000000
      Gh(H)          -2.124579596407    -1.975993730029    -1.999924109440     1.007825032230
      Gh(C)          -2.025649596407     0.171331269971    -1.997757109440    12.000000000000
      Gh(H)          -3.093906596407     0.299501269971    -2.109914109440     1.007825032230
      Gh(C)          -1.193951596407     1.286923269971    -1.919612109440    12.000000000000
      Gh(H)          -1.617024596407     2.281280269971    -1.969097109440     1.007825032230
         C            1.479629403593     1.109831269971     1.937022890560    12.000000000000
         H            2.124474403593     1.976015269971     2.000773890560     1.007825032230
         C            2.025582403593    -0.171319730029     1.998542890560    12.000000000000
         H            3.093789403593    -0.299466730029     2.111286890560     1.007825032230
         C            1.193933403593    -1.286919730029     1.919891890560    12.000000000000
         H            1.617014403593    -2.281272730029     1.969545890560     1.007825032230
         C           -0.182468596407    -1.121284730029     1.775174890560    12.000000000000
         H           -0.827571596407    -1.986695730029     1.707542890560     1.007825032230
         C           -0.728028596407     0.158947269971     1.711209890560    12.000000000000
         H           -1.794656596407     0.286777269971     1.588030890560     1.007825032230
         C            0.103248403593     1.274228269971     1.793280890560    12.000000000000
         H           -0.320276596407     2.268133269971     1.740911890560     1.007825032230

  Running in c1 symmetry.

  Rotational constants: A =      0.05397  B =      0.02161  C =      0.02052 [cm^-1]
  Rotational constants: A =   1618.07339  B =    647.80036  C =    615.26739 [MHz]
  Nuclear repulsion =  203.711725547639560

  Charge       = 0
  Multiplicity = 1
  Electrons    = 42
  Nalpha       = 21
  Nbeta        = 21

  ==> Algorithm <==

  SCF Algorithm Type is DF.
  DIIS enabled.
  MOM disabled.
  Fractional occupation disabled.
  Guess Type is SAD.
  Energy threshold   = 1.00e-07
  Density threshold  = 1.00e-08
  Integral threshold = 0.00e+00

  ==> Primary Basis <==

  Basis Set: AUG-CC-PVTZ
    Blend: AUG-CC-PVTZ
    Number of shells: 276
    Number of basis function: 828
    Number of Cartesian functions: 960
    Spherical Harmonics?: true
    Max angular momentum: 3

   => Loading Basis Set <=

    Name: (AUG-CC-PVTZ AUX)
    Role: JKFIT
    Keyword: DF_BASIS_SCF
    atoms 1, 3, 5, 7, 9, 11, 13, 15, 17, 19, 21, 23  entry C          line   162 file /home/liuchw/anaconda3/envs/psi4env/share/psi4/basis/aug-cc-pvtz-jkfit.gbs 
    atoms 2, 4, 6, 8, 10, 12, 14, 16, 18, 20, 22, 24 entry H          line    70 file /home/liuchw/anaconda3/envs/psi4env/share/psi4/basis/aug-cc-pvtz-jkfit.gbs 

  ==> Pre-Iterations <==

   -------------------------------------------------------
    Irrep   Nso     Nmo     Nalpha   Nbeta   Ndocc  Nsocc
   -------------------------------------------------------
     A        828     828       0       0       0       0
   -------------------------------------------------------
    Total     828     828      21      21      21       0
   -------------------------------------------------------

  ==> Integral Setup <==

  DFHelper Memory: AOs need 8.880 GiB; user supplied 27.940 GiB. Using in-core AOs.

  ==> MemDFJK: Density-Fitted J/K Matrices <==

    J tasked:                   Yes
    K tasked:                   Yes
    wK tasked:                   No
    OpenMP threads:               8
    Memory [MiB]:             28610
    Algorithm:                 Core
    Schwarz Cutoff:           1E-12
    Mask sparsity (%):       5.6235
    Fitting Condition:        1E-10

   => Auxiliary Basis Set <=

  Basis Set: (AUG-CC-PVTZ AUX)
    Blend: AUG-CC-PVTZ-JKFIT
    Number of shells: 528
    Number of basis function: 1800
    Number of Cartesian functions: 2232
    Spherical Harmonics?: true
    Max angular momentum: 4

  Minimum eigenvalue in the overlap matrix is 2.2993660863E-07.
  Using Symmetric Orthogonalization.

  SCF Guess: Superposition of Atomic Densities via on-the-fly atomic UHF.

  ==> Iterations <==

                           Total Energy        Delta E     RMS |[F,P]|

   @DF-RHF iter SAD:  -230.19476322000199   -2.30195e+02   0.00000e+00 
   @DF-RHF iter   1:  -230.60066657805413   -4.05903e-01   6.61282e-04 DIIS
   @DF-RHF iter   2:  -230.74284207607604   -1.42175e-01   3.28108e-04 DIIS
   @DF-RHF iter   3:  -230.77985672992804   -3.70147e-02   5.23784e-05 DIIS
   @DF-RHF iter   4:  -230.78140597484196   -1.54924e-03   6.47718e-06 DIIS
   @DF-RHF iter   5:  -230.78143496115410   -2.89863e-05   1.18313e-06 DIIS
   @DF-RHF iter   6:  -230.78143598768503   -1.02653e-06   1.51923e-07 DIIS
   @DF-RHF iter   7:  -230.78143600367048   -1.59854e-08   7.04958e-08 DIIS
   @DF-RHF iter   8:  -230.78143600568461   -2.01413e-09   1.17618e-08 DIIS
   @DF-RHF iter   9:  -230.78143600580478   -1.20167e-10   2.93718e-09 DIIS
  Energy and wave function converged.


  ==> Post-Iterations <==

    Orbital Energies [Eh]
    ---------------------

    Doubly Occupied:                                                      

       1A    -11.236232     2A    -11.235652     3A    -11.235627  
       4A    -11.234401     5A    -11.234397     6A    -11.233776  
       7A     -1.150493     8A     -1.014955     9A     -1.014754  
      10A     -0.824174    11A     -0.824117    12A     -0.709693  
      13A     -0.644022    14A     -0.619236    15A     -0.588212  
      16A     -0.587942    17A     -0.502490    18A     -0.495002  
      19A     -0.494736    20A     -0.336899    21A     -0.336783  

    Virtual:                                                              

      22A      0.021836    23A      0.030637    24A      0.030760  
      25A      0.037690    26A      0.042934    27A      0.043053  
      28A      0.048159    29A      0.048340    30A      0.058140  
      31A      0.061065    32A      0.064802    33A      0.077920  
      34A      0.079412    35A      0.085819    36A      0.095435  
      37A      0.096845    38A      0.103298    39A      0.105053  
      40A      0.106986    41A      0.109687    42A      0.112542  
      43A      0.119008    44A      0.119107    45A      0.120386  
      46A      0.122344    47A      0.122847    48A      0.135744  
      49A      0.136816    50A      0.138192    51A      0.139308  
      52A      0.142637    53A      0.144994    54A      0.147588  
      55A      0.151251    56A      0.154649    57A      0.155281  
      58A      0.156809    59A      0.157911    60A      0.168009  
      61A      0.170721    62A      0.171475    63A      0.174130  
      64A      0.182178    65A      0.183444    66A      0.185251  
      67A      0.185755    68A      0.189043    69A      0.200687  
      70A      0.201188    71A      0.209055    72A      0.210771  
      73A      0.213642    74A      0.228920    75A      0.239765  
      76A      0.240928    77A      0.243747    78A      0.248170  
      79A      0.257143    80A      0.260263    81A      0.260451  
      82A      0.266716    83A      0.267679    84A      0.279286  
      85A      0.283783    86A      0.288862    87A      0.289353  
      88A      0.301893    89A      0.307032    90A      0.309052  
      91A      0.310109    92A      0.314736    93A      0.316156  
      94A      0.320194    95A      0.321326    96A      0.327665  
      97A      0.332144    98A      0.337576    99A      0.341074  
     100A      0.343264   101A      0.347913   102A      0.352032  
     103A      0.352800   104A      0.358692   105A      0.364059  
     106A      0.365638   107A      0.365993   108A      0.370138  
     109A      0.377766   110A      0.379927   111A      0.385287  
     112A      0.391078   113A      0.396376   114A      0.400608  
     115A      0.402043   116A      0.404918   117A      0.412092  
     118A      0.415391   119A      0.420266   120A      0.423654  
     121A      0.427064   122A      0.427625   123A      0.432309  
     124A      0.436617   125A      0.442306   126A      0.450544  
     127A      0.457246   128A      0.462589   129A      0.465926  
     130A      0.469884   131A      0.479354   132A      0.486081  
     133A      0.488197   134A      0.492029   135A      0.493651  
     136A      0.494154   137A      0.497630   138A      0.498450  
     139A      0.500810   140A      0.507084   141A      0.509906  
     142A      0.510590   143A      0.515437   144A      0.523177  
     145A      0.524130   146A      0.536516   147A      0.538319  
     148A      0.541031   149A      0.544558   150A      0.552273  
     151A      0.553530   152A      0.556534   153A      0.559351  
     154A      0.561171   155A      0.564581   156A      0.567667  
     157A      0.575629   158A      0.578899   159A      0.582872  
     160A      0.586778   161A      0.591903   162A      0.597113  
     163A      0.607553   164A      0.609046   165A      0.618287  
     166A      0.621600   167A      0.633021   168A      0.643434  
     169A      0.645531   170A      0.646656   171A      0.648748  
     172A      0.654305   173A      0.661851   174A      0.662537  
     175A      0.664658   176A      0.667037   177A      0.669727  
     178A      0.676997   179A      0.680340   180A      0.685430  
     181A      0.692386   182A      0.695985   183A      0.697803  
     184A      0.702114   185A      0.703310   186A      0.705119  
     187A      0.706997   188A      0.711183   189A      0.715206  
     190A      0.721806   191A      0.728730   192A      0.732137  
     193A      0.742559   194A      0.745367   195A      0.750082  
     196A      0.756864   197A      0.759197   198A      0.764465  
     199A      0.767642   200A      0.773130   201A      0.777971  
     202A      0.779941   203A      0.786119   204A      0.786948  
     205A      0.798433   206A      0.803350   207A      0.808984  
     208A      0.814613   209A      0.819354   210A      0.820905  
     211A      0.826850   212A      0.829474   213A      0.834272  
     214A      0.842387   215A      0.851114   216A      0.858256  
     217A      0.864957   218A      0.866015   219A      0.871470  
     220A      0.880284   221A      0.887149   222A      0.890492  
     223A      0.901108   224A      0.902182   225A      0.906527  
     226A      0.912236   227A      0.915224   228A      0.919508  
     229A      0.925524   230A      0.928715   231A      0.940302  
     232A      0.945262   233A      0.947559   234A      0.951758  
     235A      0.960677   236A      0.963470   237A      0.970294  
     238A      0.987517   239A      0.991254   240A      0.996176  
     241A      0.997306   242A      1.004693   243A      1.015410  
     244A      1.020631   245A      1.022543   246A      1.025307  
     247A      1.032250   248A      1.047823   249A      1.050568  
     250A      1.059198   251A      1.059483   252A      1.066142  
     253A      1.067000   254A      1.080273   255A      1.087900  
     256A      1.100193   257A      1.104303   258A      1.107186  
     259A      1.110637   260A      1.121928   261A      1.126862  
     262A      1.128077   263A      1.131180   264A      1.133935  
     265A      1.138459   266A      1.140240   267A      1.144818  
     268A      1.147019   269A      1.152029   270A      1.156612  
     271A      1.167130   272A      1.168957   273A      1.170972  
     274A      1.176147   275A      1.179227   276A      1.181427  
     277A      1.191232   278A      1.196828   279A      1.203165  
     280A      1.205263   281A      1.212134   282A      1.215973  
     283A      1.219047   284A      1.221369   285A      1.233774  
     286A      1.236575   287A      1.237639   288A      1.243598  
     289A      1.256579   290A      1.257125   291A      1.258816  
     292A      1.268525   293A      1.269916   294A      1.273483  
     295A      1.279348   296A      1.288337   297A      1.292705  
     298A      1.295283   299A      1.296904   300A      1.301634  
     301A      1.307123   302A      1.316512   303A      1.323288  
     304A      1.325250   305A      1.332331   306A      1.333519  
     307A      1.337695   308A      1.340180   309A      1.343923  
     310A      1.344586   311A      1.352635   312A      1.363844  
     313A      1.368110   314A      1.372654   315A      1.373189  
     316A      1.390736   317A      1.395117   318A      1.396637  
     319A      1.412843   320A      1.417904   321A      1.424539  
     322A      1.425331   323A      1.432296   324A      1.433091  
     325A      1.439149   326A      1.441787   327A      1.453739  
     328A      1.456484   329A      1.464984   330A      1.469264  
     331A      1.483147   332A      1.488920   333A      1.490558  
     334A      1.496820   335A      1.500398   336A      1.508610  
     337A      1.519216   338A      1.522271   339A      1.526725  
     340A      1.530081   341A      1.541602   342A      1.544362  
     343A      1.547834   344A      1.552384   345A      1.558133  
     346A      1.562815   347A      1.572723   348A      1.576216  
     349A      1.581908   350A      1.582712   351A      1.595059  
     352A      1.602507   353A      1.608168   354A      1.609540  
     355A      1.623963   356A      1.630891   357A      1.638722  
     358A      1.644953   359A      1.645908   360A      1.650386  
     361A      1.659674   362A      1.664552   363A      1.679640  
     364A      1.686696   365A      1.690531   366A      1.696009  
     367A      1.706498   368A      1.713094   369A      1.716712  
     370A      1.724044   371A      1.737154   372A      1.745559  
     373A      1.749033   374A      1.756177   375A      1.760833  
     376A      1.762629   377A      1.768770   378A      1.774558  
     379A      1.776545   380A      1.781432   381A      1.788895  
     382A      1.798205   383A      1.798677   384A      1.818754  
     385A      1.826103   386A      1.831252   387A      1.844750  
     388A      1.853757   389A      1.861791   390A      1.869123  
     391A      1.873372   392A      1.878441   393A      1.887066  
     394A      1.892956   395A      1.898337   396A      1.909920  
     397A      1.917240   398A      1.925365   399A      1.934588  
     400A      1.936646   401A      1.943285   402A      1.946777  
     403A      1.953884   404A      1.968358   405A      2.002881  
     406A      2.014363   407A      2.023681   408A      2.030669  
     409A      2.037672   410A      2.040547   411A      2.047766  
     412A      2.050581   413A      2.063128   414A      2.068260  
     415A      2.070927   416A      2.078097   417A      2.084534  
     418A      2.094137   419A      2.096554   420A      2.110722  
     421A      2.113652   422A      2.122917   423A      2.127199  
     424A      2.141458   425A      2.147712   426A      2.150351  
     427A      2.174623   428A      2.180527   429A      2.189671  
     430A      2.192865   431A      2.202156   432A      2.203592  
     433A      2.214837   434A      2.226569   435A      2.238431  
     436A      2.244677   437A      2.249624   438A      2.268805  
     439A      2.272782   440A      2.290778   441A      2.298353  
     442A      2.307048   443A      2.318658   444A      2.341233  
     445A      2.345527   446A      2.351131   447A      2.355423  
     448A      2.364534   449A      2.369858   450A      2.375317  
     451A      2.382734   452A      2.389015   453A      2.393031  
     454A      2.399751   455A      2.401346   456A      2.405586  
     457A      2.411883   458A      2.415478   459A      2.434223  
     460A      2.441311   461A      2.450917   462A      2.459372  
     463A      2.460891   464A      2.490129   465A      2.495704  
     466A      2.499524   467A      2.509028   468A      2.524911  
     469A      2.536442   470A      2.546535   471A      2.548787  
     472A      2.556127   473A      2.558399   474A      2.563420  
     475A      2.564831   476A      2.569483   477A      2.573792  
     478A      2.585887   479A      2.591890   480A      2.592802  
     481A      2.609707   482A      2.610161   483A      2.622963  
     484A      2.636110   485A      2.638313   486A      2.653090  
     487A      2.655287   488A      2.680642   489A      2.700720  
     490A      2.759355   491A      2.778510   492A      2.790357  
     493A      2.794005   494A      2.802254   495A      2.826304  
     496A      2.834668   497A      2.848831   498A      2.852516  
     499A      2.860369   500A      2.869823   501A      2.906526  
     502A      2.911373   503A      2.915911   504A      2.928761  
     505A      2.947440   506A      2.980835   507A      3.005671  
     508A      3.057360   509A      3.096320   510A      3.141430  
     511A      3.152385   512A      3.160819   513A      3.162664  
     514A      3.175475   515A      3.230414   516A      3.240917  
     517A      3.268518   518A      3.292555   519A      3.306587  
     520A      3.322396   521A      3.335305   522A      3.348546  
     523A      3.378514   524A      3.386194   525A      3.400113  
     526A      3.425592   527A      3.431163   528A      3.438592  
     529A      3.452527   530A      3.466412   531A      3.469708  
     532A      3.474470   533A      3.492737   534A      3.518554  
     535A      3.532999   536A      3.545785   537A      3.546364  
     538A      3.549516   539A      3.572150   540A      3.580215  
     541A      3.607688   542A      3.628793   543A      3.639582  
     544A      3.644730   545A      3.658359   546A      3.669007  
     547A      3.681274   548A      3.689516   549A      3.692177  
     550A      3.723507   551A      3.778709   552A      3.783873  
     553A      3.804080   554A      3.828005   555A      3.829952  
     556A      3.850507   557A      3.853587   558A      3.857922  
     559A      3.864967   560A      3.872927   561A      3.901984  
     562A      3.913235   563A      3.919092   564A      3.927257  
     565A      3.929801   566A      3.956403   567A      3.967053  
     568A      3.983983   569A      3.989412   570A      3.992333  
     571A      4.002356   572A      4.009595   573A      4.022407  
     574A      4.024767   575A      4.038795   576A      4.053063  
     577A      4.061032   578A      4.071416   579A      4.078201  
     580A      4.093454   581A      4.096853   582A      4.112748  
     583A      4.120198   584A      4.126882   585A      4.132741  
     586A      4.141823   587A      4.147979   588A      4.151552  
     589A      4.155059   590A      4.168541   591A      4.172145  
     592A      4.177879   593A      4.195045   594A      4.198995  
     595A      4.201561   596A      4.208347   597A      4.211436  
     598A      4.217894   599A      4.231162   600A      4.233797  
     601A      4.255642   602A      4.264554   603A      4.273811  
     604A      4.282605   605A      4.297328   606A      4.305808  
     607A      4.316220   608A      4.320701   609A      4.325908  
     610A      4.329741   611A      4.347775   612A      4.365335  
     613A      4.372107   614A      4.382702   615A      4.384388  
     616A      4.403162   617A      4.410288   618A      4.413457  
     619A      4.432682   620A      4.434837   621A      4.436948  
     622A      4.442112   623A      4.449203   624A      4.464161  
     625A      4.465456   626A      4.478057   627A      4.480843  
     628A      4.491509   629A      4.496159   630A      4.510697  
     631A      4.518522   632A      4.520108   633A      4.523662  
     634A      4.541870   635A      4.556741   636A      4.569351  
     637A      4.584255   638A      4.592949   639A      4.599632  
     640A      4.603800   641A      4.607911   642A      4.618619  
     643A      4.630295   644A      4.633789   645A      4.637876  
     646A      4.645058   647A      4.654607   648A      4.670567  
     649A      4.678857   650A      4.714927   651A      4.732681  
     652A      4.736501   653A      4.746669   654A      4.749974  
     655A      4.759282   656A      4.761707   657A      4.784589  
     658A      4.786591   659A      4.809868   660A      4.815027  
     661A      4.864968   662A      4.887999   663A      4.894466  
     664A      4.910709   665A      4.918154   666A      4.928240  
     667A      4.944750   668A      4.963417   669A      4.967357  
     670A      4.998882   671A      5.005785   672A      5.014773  
     673A      5.028446   674A      5.041675   675A      5.051308  
     676A      5.052427   677A      5.080798   678A      5.094116  
     679A      5.105192   680A      5.108571   681A      5.128315  
     682A      5.131561   683A      5.133091   684A      5.137735  
     685A      5.152884   686A      5.157089   687A      5.175348  
     688A      5.176137   689A      5.181616   690A      5.189920  
     691A      5.196491   692A      5.202022   693A      5.204599  
     694A      5.206945   695A      5.211401   696A      5.214529  
     697A      5.221971   698A      5.235056   699A      5.236778  
[...]
    1036A      6.073806  1037A      6.103400  1038A      6.108678  
    1039A      6.125544  1040A      6.127059  1041A      6.146385  
    1042A      6.152311  1043A      6.171000  1044A      6.183747  
    1045A      6.193316  1046A      6.204058  1047A      6.252547  
    1048A      6.254736  1049A      6.264251  1050A      6.279900  
    1051A      6.293829  1052A      6.307308  1053A      6.308968  
    1054A      6.319848  1055A      6.339629  1056A      6.354964  
    1057A      6.359126  1058A      6.365333  1059A      6.375927  
    1060A      6.392380  1061A      6.393156  1062A      6.411007  
    1063A      6.413827  1064A      6.416654  1065A      6.417690  
    1066A      6.432239  1067A      6.433075  1068A      6.436883  
    1069A      6.452353  1070A      6.453973  1071A      6.457718  
    1072A      6.480022  1073A      6.491129  1074A      6.491319  
    1075A      6.493479  1076A      6.498486  1077A      6.511761  
    1078A      6.516742  1079A      6.533276  1080A      6.548955  
    1081A      6.552770  1082A      6.553686  1083A      6.572436  
    1084A      6.598646  1085A      6.601599  1086A      6.606411  
    1087A      6.613554  1088A      6.630947  1089A      6.640568  
    1090A      6.671483  1091A      6.673943  1092A      6.679852  
    1093A      6.683637  1094A      6.700839  1095A      6.712990  
    1096A      6.714065  1097A      6.722231  1098A      6.736281  
    1099A      6.754840  1100A      6.768457  1101A      6.771493  
    1102A      6.778220  1103A      6.795589  1104A      6.802400  
    1105A      6.809453  1106A      6.817655  1107A      6.818103  
    1108A      6.822286  1109A      6.832823  1110A      6.840654  
    1111A      6.849447  1112A      6.852308  1113A      6.864461  
    1114A      6.865097  1115A      6.874850  1116A      6.891567  
    1117A      6.895528  1118A      6.898056  1119A      6.920758  
    1120A      6.926660  1121A      6.929943  1122A      6.939455  
    1123A      6.940968  1124A      6.952923  1125A      6.965985  
    1126A      6.966288  1127A      6.967464  1128A      6.975693  
    1129A      6.978156  1130A      6.985514  1131A      6.993548  
    1132A      6.995083  1133A      6.995736  1134A      7.001658  
    1135A      7.007300  1136A      7.017020  1137A      7.017617  
    1138A      7.027514  1139A      7.032148  1140A      7.036121  
    1141A      7.039692  1142A      7.048165  1143A      7.056225  
    1144A      7.057412  1145A      7.063603  1146A      7.069271  
    1147A      7.108727  1148A      7.122486  1149A      7.124300  
    1150A      7.124496  1151A      7.125138  1152A      7.151724  
    1153A      7.154991  1154A      7.160594  1155A      7.163310  
    1156A      7.171418  1157A      7.172697  1158A      7.179992  
    1159A      7.183282  1160A      7.191887  1161A      7.193541  
    1162A      7.205732  1163A      7.205822  1164A      7.213779  
    1165A      7.220347  1166A      7.224854  1167A      7.233700  
    1168A      7.243474  1169A      7.248070  1170A      7.254695  
    1171A      7.260975  1172A      7.263608  1173A      7.279855  
    1174A      7.286229  1175A      7.287986  1176A      7.298888  
    1177A      7.301530  1178A      7.302792  1179A      7.308217  
    1180A      7.324230  1181A      7.325837  1182A      7.333375  
    1183A      7.340821  1184A      7.340847  1185A      7.345229  
    1186A      7.349145  1187A      7.417663  1188A      7.422018  
    1189A      7.425992  1190A      7.426714  1191A      7.431046  
    1192A      7.435833  1193A      7.436944  1194A      7.445059  
    1195A      7.460928  1196A      7.461091  1197A      7.474167  
    1198A      7.477722  1199A      7.487371  1200A      7.489594  
    1201A      7.503521  1202A      7.509145  1203A      7.548532  
    1204A      7.550251  1205A      7.552491  1206A      7.555690  
    1207A      7.601513  1208A      7.608581  1209A      7.613809  
    1210A      7.614790  1211A      7.624065  1212A      7.624471  
    1213A      7.627604  1214A      7.631186  1215A      7.646411  
    1216A      7.649821  1217A      7.668734  1218A      7.669814  
    1219A      7.698624  1220A      7.710798  1221A      7.728398  
    1222A      7.737149  1223A      7.750555  1224A      7.751319  
    1225A      7.757396  1226A      7.772004  1227A      7.790614  
    1228A      7.793700  1229A      7.797361  1230A      7.798266  
    1231A      7.812303  1232A      7.812341  1233A      7.860464  
    1234A      7.871346  1235A      7.878382  1236A      7.881244  
    1237A      7.891090  1238A      7.898125  1239A      7.903406  
    1240A      7.907783  1241A      7.919380  1242A      7.959779  
    1243A      7.971961  1244A      7.976523  1245A      7.978879  
    1246A      7.980413  1247A      7.983107  1248A      7.984876  
    1249A      8.028137  1250A      8.037332  1251A      8.038585  
    1252A      8.041190  1253A      8.044703  1254A      8.055186  
    1255A      8.069340  1256A      8.074089  1257A      8.076393  
    1258A      8.083203  1259A      8.085125  1260A      8.088205  
    1261A      8.093857  1262A      8.109453  1263A      8.126956  
    1264A      8.147173  1265A      8.228878  1266A      8.237299  
    1267A      8.246340  1268A      8.270294  1269A      8.280290  
    1270A      8.281760  1271A      8.283853  1272A      8.287728  
    1273A      8.323578  1274A      8.325512  1275A      8.328214  
    1276A      8.330351  1277A      8.366471  1278A      8.369303  
    1279A      8.374693  1280A      8.374738  1281A      8.383017  
    1282A      8.388800  1283A      8.393710  1284A      8.407746  
    1285A      8.411184  1286A      8.413074  1287A      8.478351  
    1288A      8.480949  1289A      8.484223  1290A      8.485506  
    1291A      8.489658  1292A      8.495371  1293A      8.496187  
    1294A      8.497922  1295A      8.583178  1296A      8.614229  
    1297A      8.682622  1298A      8.691186  1299A      8.717346  
    1300A      8.718004  1301A      8.721909  1302A      8.728191  
    1303A      8.731699  1304A      8.733179  1305A      8.741641  
    1306A      8.748360  1307A      8.754207  1308A      8.764884  
    1309A      8.783775  1310A      8.788577  1311A      8.791430  
    1312A      8.801898  1313A      8.810409  1314A      8.811294  
    1315A      8.813732  1316A      8.816681  1317A      8.839880  
    1318A      8.853743  1319A      8.889693  1320A      8.898246  
    1321A      8.908586  1322A      8.910978  1323A      8.931622  
    1324A      8.939501  1325A      8.958246  1326A      8.965134  
    1327A      8.965323  1328A      8.966568  1329A      8.991996  
    1330A      8.997742  1331A      9.015187  1332A      9.034077  
    1333A      9.052841  1334A      9.065164  1335A      9.065747  
    1336A      9.083185  1337A      9.084556  1338A      9.087698  
    1339A      9.110457  1340A      9.115284  1341A      9.116414  
    1342A      9.129325  1343A      9.131909  1344A      9.136373  
    1345A      9.146547  1346A      9.151335  1347A      9.170878  
    1348A      9.172203  1349A      9.178218  1350A      9.180052  
    1351A      9.310906  1352A      9.311030  1353A      9.349829  
    1354A      9.355568  1355A      9.370732  1356A      9.376512  
    1357A      9.439157  1358A      9.440563  1359A      9.456293  
    1360A      9.460100  1361A      9.477218  1362A      9.492736  
    1363A      9.496689  1364A      9.499670  1365A      9.502268  
    1366A      9.518997  1367A      9.543275  1368A      9.556532  
    1369A      9.558602  1370A      9.560895  1371A      9.578451  
    1372A      9.585801  1373A      9.593062  1374A      9.594264  
    1375A      9.632326  1376A      9.632575  1377A      9.643607  
    1378A      9.646924  1379A      9.647986  1380A      9.649638  
    1381A      9.651184  1382A      9.663000  1383A      9.665223  
    1384A      9.668797  1385A      9.696817  1386A      9.702332  
    1387A      9.749667  1388A      9.762441  1389A      9.770748  
    1390A      9.776236  1391A      9.871972  1392A      9.880958  
    1393A      9.884183  1394A      9.885108  1395A      9.914206  
    1396A      9.916656  1397A      9.919092  1398A      9.938895  
    1399A      9.941916  1400A      9.945273  1401A     10.081813  
    1402A     10.087338  1403A     10.091269  1404A     10.095957  
    1405A     10.103983  1406A     10.104943  1407A     10.119415  
    1408A     10.130208  1409A     10.136563  1410A     10.151294  
    1411A     10.155037  1412A     10.155614  1413A     10.167466  
    1414A     10.188270  1415A     10.274116  1416A     10.274835  
    1417A     10.281826  1418A     10.300579  1419A     10.305114  
    1420A     10.311699  1421A     10.337655  1422A     10.341271  
    1423A     10.357810  1424A     10.372213  1425A     10.377112  
    1426A     10.377155  1427A     10.391181  1428A     10.393678  
    1429A     10.434961  1430A     10.444797  1431A     10.453114  
    1432A     10.459951  1433A     10.492702  1434A     10.493882  
    1435A     10.497371  1436A     10.498930  1437A     10.589420  
    1438A     10.589581  1439A     10.594981  1440A     10.597400  
    1441A     10.630503  1442A     10.632459  1443A     10.742789  
    1444A     10.762910  1445A     10.767689  1446A     10.778651  
    1447A     10.840521  1448A     10.841550  1449A     10.847952  
    1450A     10.857150  1451A     10.857615  1452A     10.861026  
    1453A     10.876029  1454A     10.878812  1455A     10.914756  
    1456A     10.919665  1457A     10.937320  1458A     10.940079  
    1459A     10.942040  1460A     10.946691  1461A     11.082904  
    1462A     11.087749  1463A     11.105094  1464A     11.105163  
    1465A     11.142217  1466A     11.147902  1467A     11.153663  
    1468A     11.154514  1469A     11.405420  1470A     11.426900  
    1471A     11.507414  1472A     11.510767  1473A     11.517961  
    1474A     11.519033  1475A     11.537094  1476A     11.537756  
    1477A     11.769466  1478A     11.770714  1479A     11.773876  
    1480A     11.792790  1481A     11.814489  1482A     11.819626  
    1483A     11.855941  1484A     11.862456  1485A     11.869842  
    1486A     11.885290  1487A     12.521400  1488A     12.521939  
    1489A     13.224240  1490A     13.228280  1491A     13.381008  
    1492A     13.387915  1493A     13.393118  1494A     13.399371  
    1495A     13.526249  1496A     13.540609  1497A     13.543607  
    1498A     13.564321  1499A     13.787891  1500A     13.788153  
    1501A     26.262084  1502A     26.298088  1503A     26.301930  
    1504A     26.314451  1505A     26.774882  1506A     26.810541  
    1507A     26.872485  1508A     26.900168  1509A     27.276765  
    1510A     27.284534  1511A     27.296994  1512A     27.299350  

    Final Occupation by Irrep:
              A 
    DOCC [    42 ]

  @DF-RHF Final Energy:  -461.58357865182217

   => Energetics <=

    Nuclear Repulsion Energy =            620.7415209838218288
    One-Electron Energy =               -1854.8951785541912614
    Two-Electron Energy =                 772.5700789185473241
    Total Energy =                       -461.5835786518221084

Computation Completed


Properties will be evaluated at   0.000000,   0.000000,   0.000000 [a0]

Properties computed using the SCF density matrix

  Nuclear Dipole Moment: [e a0]
     X:     0.0001      Y:    -0.0000      Z:    -0.0002

  Electronic Dipole Moment: [e a0]
     X:    -0.0001      Y:     0.0000      Z:     0.0000

  Dipole Moment: [e a0]
     X:     0.0000      Y:     0.0000      Z:    -0.0002     Total:     0.0002

  Dipole Moment: [D]
     X:     0.0001      Y:     0.0000      Z:    -0.0005     Total:     0.0005


*** tstop() called on node37.bme.utexas.edu at Sat Apr 11 20:27:44 2020
Module time:
	user time   =    5494.53 seconds =      91.58 minutes
	system time =     222.30 seconds =       3.70 minutes
	total time  =        757 seconds =      12.62 minutes
Total time:
	user time   =   18397.19 seconds =     306.62 minutes
	system time =     845.17 seconds =      14.09 minutes
	total time  =       2715 seconds =      45.25 minutes

*** tstart() called on node37.bme.utexas.edu
*** at Sat Apr 11 20:27:44 2020


  //>>>>>>>>>>>>>>>>>>>>>>>>>>>>>>>>>>>//
  //               DFMP2               //
  //<<<<<<<<<<<<<<<<<<<<<<<<<<<<<<<<<<<//

   => Loading Basis Set <=

    Name: (AUG-CC-PVQZ AUX)
    Role: RIFIT
    Keyword: DF_BASIS_MP2
    atoms 1, 3, 5, 7, 9, 11, 13, 15, 17, 19, 21, 23  entry C          line   184 file /home/liuchw/anaconda3/envs/psi4env/share/psi4/basis/aug-cc-pvqz-ri.gbs 
    atoms 2, 4, 6, 8, 10, 12, 14, 16, 18, 20, 22, 24 entry H          line    30 file /home/liuchw/anaconda3/envs/psi4env/share/psi4/basis/aug-cc-pvqz-ri.gbs 

	 --------------------------------------------------------
	                          DF-MP2                         
	      2nd-Order Density-Fitted Moller-Plesset Theory     
	              RMP2 Wavefunction,   8 Threads             
	                                                         
	        Rob Parrish, Justin Turney, Andy Simmonett,      
	           Ed Hohenstein, and C. David Sherrill          
	 --------------------------------------------------------

   => Auxiliary Basis Set <=

  Basis Set: (AUG-CC-PVQZ AUX)
    Blend: AUG-CC-PVQZ-RI
    Number of shells: 672
    Number of basis function: 2976
    Number of Cartesian functions: 4104
    Spherical Harmonics?: true
    Max angular momentum: 5

	 --------------------------------------------------------
	                 NBF =  1512, NAUX =  2976
	 --------------------------------------------------------
	   CLASS    FOCC     OCC    AOCC    AVIR     VIR    FVIR
	   PAIRS       0      42      42    1470    1470       0
	 --------------------------------------------------------

	-----------------------------------------------------------
	 ==================> DF-MP2 Energies <==================== 
	-----------------------------------------------------------
	 Reference Energy          =    -461.5835786518221653 [Eh]
	 Singles Energy            =      -0.0000000000000000 [Eh]
	 Same-Spin Energy          =      -0.5459482062357378 [Eh]
	 Opposite-Spin Energy      =      -1.8441168540052670 [Eh]
	 Correlation Energy        =      -2.3900650602410050 [Eh]
	 Total Energy              =    -463.9736437120631649 [Eh]
	-----------------------------------------------------------
	 ================> DF-SCS-MP2 Energies <================== 
	-----------------------------------------------------------
	 SCS Same-Spin Scale       =       0.3333333333333333 [-]
	 SCS Opposite-Spin Scale   =       1.2000000000000000 [-]
	 SCS Same-Spin Energy      =      -0.1819827354119126 [Eh]
	 SCS Opposite-Spin Energy  =      -2.2129402248063204 [Eh]
	 SCS Correlation Energy    =      -2.3949229602182331 [Eh]
	 SCS Total Energy          =    -463.9785016120404180 [Eh]
	-----------------------------------------------------------


*** tstop() called on node37.bme.utexas.edu at Sat Apr 11 20:31:10 2020
Module time:
	user time   =    1172.11 seconds =      19.54 minutes
	system time =      62.71 seconds =       1.05 minutes
	total time  =        206 seconds =       3.43 minutes
Total time:
	user time   =   19569.30 seconds =     326.15 minutes
	system time =     907.88 seconds =      15.13 minutes
	total time  =       2921 seconds =      48.68 minutes

  //>>>>>>>>>>>>>>>>>>>>>>>>>>>>>>>>>>>//
  //  CBS Results: mp2/aug-cc-pv[tq]z  //
  //<<<<<<<<<<<<<<<<<<<<<<<<<<<<<<<<<<<//


   ==> HF <==

   HI-zeta (4) Energy:               -461.583578651822


   ==> Helgaker 2-point correlated extrapolation for method: MP2 <==

   LO-zeta (3) Energy:               -463.721165214517
   HI-zeta (4) Energy:               -463.973643712063
   Alpha (exponent) Value:             3.000000000000
   Extrapolated Energy:              -464.157884777840

   @Extrapolated MP2/(T,Q):          -464.157884777840



   ==> Helgaker 2-point correlated extrapolation for method: HF <==

   LO-zeta (3) Energy:               -461.557474334561
   HI-zeta (4) Energy:               -461.583578651822
   Alpha (exponent) Value:             3.000000000000
   Extrapolated Energy:              -461.602627748202

   @Extrapolated HF/(T,Q):           -461.602627748202


   ==> Components <==

  ---------------------------------------------------------------------------------------------------------
                          Method / Basis                      Rqd      Energy [Eh]   Variable
  ---------------------------------------------------------------------------------------------------------
                              hf / aug-cc-pvtz                  *    -461.55747433   HF TOTAL ENERGY
                             mp2 / aug-cc-pvtz                  *    -463.72116521   MP2 TOTAL ENERGY
                              hf / aug-cc-pvqz                  *    -461.58357865   HF TOTAL ENERGY
                             mp2 / aug-cc-pvqz                  *    -463.97364371   MP2 TOTAL ENERGY
  ---------------------------------------------------------------------------------------------------------

   ==> Stages <==

  ---------------------------------------------------------------------------------------------------------
      Stage               Method / Basis                       Wt      Energy [Eh]   Scheme
  ---------------------------------------------------------------------------------------------------------
        scf                   hf / aug-cc-pvqz                  1    -461.58357865   xtpl_highest_1
       corl                  mp2 / aug-cc-pv[tq]z               1    -464.15788478   corl_xtpl_helgaker_2
       corl                   hf / aug-cc-pv[tq]z              -1    -461.60262775   corl_xtpl_helgaker_2
  ---------------------------------------------------------------------------------------------------------

   ==> CBS <==

  ---------------------------------------------------------------------------------------------------------
      Stage               Method / Basis                               Energy [Eh]   Scheme
  ---------------------------------------------------------------------------------------------------------
        scf                   hf / aug-cc-pvqz                       -461.58357865   xtpl_highest_1
       corl                  mp2 / aug-cc-pv[tq]z                      -2.55525703   corl_xtpl_helgaker_2
      total                  CBS                                     -464.13883568   
  ---------------------------------------------------------------------------------------------------------
   => Loading Basis Set <=

    Name: DEF2-SVP
    Role: ORBITAL
    Keyword: BASIS
    atoms 1, 3, 5, 7, 9, 11, 13, 15, 17, 19, 21, 23  entry C          line    90 file /home/liuchw/anaconda3/envs/psi4env/share/psi4/basis/def2-svp.gbs 
    atoms 2, 4, 6, 8, 10, 12, 14, 16, 18, 20, 22, 24 entry H          line    15 file /home/liuchw/anaconda3/envs/psi4env/share/psi4/basis/def2-svp.gbs 


       N-Body: Complex Energy (fragments = (1, 2), basis = (1, 2):  -464.13883568145991)

   ==> N-Body: Counterpoise Corrected (CP) energies <==

   n-Body     Total Energy [Eh]       I.E. [kcal/mol]      Delta [kcal/mol]
        1     -464.132023517339        0.000000000000        0.000000000000
        2     -464.139275698247       -4.550812225201       -4.550812225201

   => Loading Basis Set <=

    Name: DEF2-SVP
    Role: ORBITAL
    Keyword: BASIS
    atoms 1, 3, 5, 7, 9, 11, 13, 15, 17, 19, 21, 23  entry C          line    90 file /home/liuchw/anaconda3/envs/psi4env/share/psi4/basis/def2-svp.gbs 
    atoms 2, 4, 6, 8, 10, 12, 14, 16, 18, 20, 22, 24 entry H          line    15 file /home/liuchw/anaconda3/envs/psi4env/share/psi4/basis/def2-svp.gbs 


    Psi4 stopped on: Saturday, 11 April 2020 08:31PM
    Psi4 wall time for execution: 0:48:42.94

*** Psi4 exiting successfully. Buy a developer a beer!
