
    -----------------------------------------------------------------------
          Psi4: An Open-Source Ab Initio Electronic Structure Package
                               Psi4 1.4a2.dev224 

                         Git: Rev {master} e453b16 


    R. M. Parrish, L. A. Burns, D. G. A. Smith, A. C. Simmonett,
    A. E. DePrince III, E. G. Hohenstein, U. Bozkaya, A. Yu. Sokolov,
    R. Di Remigio, R. M. Richard, J. F. Gonthier, A. M. James,
    H. R. McAlexander, A. Kumar, M. Saitow, X. Wang, B. P. Pritchard,
    P. Verma, H. F. Schaefer III, K. Patkowski, R. A. King, E. F. Valeev,
    F. A. Evangelista, J. M. Turney, T. D. Crawford, and C. D. Sherrill,
    J. Chem. Theory Comput. 13(7) pp 3185--3197 (2017).
    (doi: 10.1021/acs.jctc.7b00174)


                         Additional Contributions by
    P. Kraus, H. Kruse, M. H. Lechner, M. C. Schieber, R. A. Shaw,
    A. Alenaizan, R. Galvelis, Z. L. Glick, S. Lehtola, and J. P. Misiewicz

    -----------------------------------------------------------------------


    Psi4 started on: Saturday, 11 April 2020 07:48PM

    Process ID: 90438
    Host:       node59.bme.utexas.edu
    PSIDATADIR: /home/liuchw/anaconda3/envs/psi4env/share/psi4
    Memory:     500.0 MiB
    Threads:    8
    
  ==> Input File <==

--------------------------------------------------------------------------
#Generated by lconvert.py for cbs job

memory 40 GB

molecule  {
0 1
  C        0.7126450     1.1209960     0.0605410
  H        1.3578420     1.9863990     0.1277370
  C        1.2582360    -0.1592520     0.1242340
  H        2.3249540    -0.2871000     0.2467430
  C        0.4268850    -1.2745270     0.0426500
  H        0.8504450    -2.2684330     0.0947500
  C       -0.9495780    -1.1100740    -0.1003140
  H       -1.5944560    -1.9762740    -0.1637130
  C       -1.4955260     0.1710510    -0.1615460
  H       -2.5637830     0.2992210    -0.2737030
  C       -0.6638280     1.2866430    -0.0834010
  H       -1.0869010     2.2810000    -0.1328860
--
0 1
  C        1.9494880     1.1101160     3.6008340
  H        2.5943330     1.9763000     3.6645840
  C        2.4954410    -0.1710350     3.6623530
  H        3.5636480    -0.2991820     3.7750980
  C        1.6637920    -1.2866350     3.5837030
  H        2.0868740    -2.2809870     3.6333570
  C        0.2873900    -1.1210000     3.4389860
  H       -0.3577120    -1.9864100     3.3713530
  C       -0.2581700     0.1592330     3.3750200
  H       -1.3247980     0.2870620     3.2518420
  C        0.5731070     1.2745140     3.4570910
  H        0.1495820     2.2684190     3.4047220
units angstrom
no_reorient
symmetry c1
}

set {
scf_type DF
mp2_type DF
e_convergence 7
reference rhf
}

energy('mp2/aug-cc-pv[tq]z', bsse_type='cp')
--------------------------------------------------------------------------

  Memory set to  37.253 GiB by Python driver.

Scratch directory: /scratch//


   ===> N-Body Interaction Abacus <===
        BSSE Treatment:                     cp
        Number of 1-body computations:     4
        Number of 2-body computations:     1

   ==> N-Body: Now computing 1-body complexes <==


       N-Body: Computing complex (1/4) with fragments (2,) in the basis of fragments (2,).


Scratch directory: /scratch//

  //>>>>>>>>>>>>>>>>>>>>>>>>>>>>>>>>>>>//
  //   CBS Setup: mp2/aug-cc-pv[tq]z   //
  //<<<<<<<<<<<<<<<<<<<<<<<<<<<<<<<<<<<//

    Naive listing of computations required.
             hf / aug-cc-pvqz              for  HF TOTAL ENERGY
            mp2 / aug-cc-pvtz              for  MP2 TOTAL ENERGY
            mp2 / aug-cc-pvqz              for  MP2 TOTAL ENERGY
             hf / aug-cc-pvtz              for  HF TOTAL ENERGY
             hf / aug-cc-pvqz              for  HF TOTAL ENERGY

    Enlightened listing of computations required.
            mp2 / aug-cc-pvtz              for  MP2 TOTAL ENERGY
            mp2 / aug-cc-pvqz              for  MP2 TOTAL ENERGY

    Full listing of computations to be obtained (required and bonus).
             hf / aug-cc-pvtz              for  HF TOTAL ENERGY
            mp2 / aug-cc-pvtz              for  MP2 TOTAL ENERGY
             hf / aug-cc-pvqz              for  HF TOTAL ENERGY
            mp2 / aug-cc-pvqz              for  MP2 TOTAL ENERGY

  //>>>>>>>>>>>>>>>>>>>>>>>>>>>>>>>>>>>>//
  // CBS Computation: MP2 / AUG-CC-PVTZ //
  //<<<<<<<<<<<<<<<<<<<<<<<<<<<<<<<<<<<<//


Scratch directory: /scratch//

*** tstart() called on node59.bme.utexas.edu
*** at Sat Apr 11 19:48:28 2020

   => Loading Basis Set <=

    Name: AUG-CC-PVTZ
    Role: ORBITAL
    Keyword: BASIS
    atoms 1, 3, 5, 7, 9, 11  entry C          line   239 file /home/liuchw/anaconda3/envs/psi4env/share/psi4/basis/aug-cc-pvtz.gbs 
    atoms 2, 4, 6, 8, 10, 12 entry H          line    40 file /home/liuchw/anaconda3/envs/psi4env/share/psi4/basis/aug-cc-pvtz.gbs 


         ---------------------------------------------------------
                                   SCF
               by Justin Turney, Rob Parrish, Andy Simmonett
                          and Daniel G. A. Smith
                              RHF Reference
                        8 Threads,  38146 MiB Core
         ---------------------------------------------------------

  ==> Geometry <==

    Molecular point group: c1
    Full point group: C1

    Geometry (in Angstrom), charge = 0, multiplicity = 1:

       Center              X                  Y                   Z               Mass       
    ------------   -----------------  -----------------  -----------------  -----------------
         C            1.449496890680     1.110113596848     1.850823140560    12.000000000000
         H            2.094341890680     1.976297596848     1.914573140560     1.007825032230
         C            1.995449890680    -0.171037403152     1.912342140560    12.000000000000
         H            3.063656890680    -0.299184403152     2.025087140560     1.007825032230
         C            1.163800890680    -1.286637403152     1.833692140560    12.000000000000
         H            1.586882890680    -2.280989403152     1.883346140560     1.007825032230
         C           -0.212601109320    -1.121002403152     1.688975140560    12.000000000000
         H           -0.857703109320    -1.986412403152     1.621342140560     1.007825032230
         C           -0.758161109320     0.159230596848     1.625009140560    12.000000000000
         H           -1.824789109320     0.287059596848     1.501831140560     1.007825032230
         C            0.073115890680     1.274511596848     1.707080140560    12.000000000000
         H           -0.350409109320     2.268416596848     1.654711140560     1.007825032230

  Running in c1 symmetry.

  Rotational constants: A =      0.10835  B =      0.04648  C =      0.04391 [cm^-1]
  Rotational constants: A =   3248.26124  B =   1393.36253  C =   1316.38927 [MHz]
  Nuclear repulsion =  203.711712802103278

  Charge       = 0
  Multiplicity = 1
  Electrons    = 42
  Nalpha       = 21
  Nbeta        = 21

  ==> Algorithm <==

  SCF Algorithm Type is DF.
  DIIS enabled.
  MOM disabled.
  Fractional occupation disabled.
  Guess Type is SAD.
  Energy threshold   = 1.00e-07
  Density threshold  = 1.00e-08
  Integral threshold = 0.00e+00

  ==> Primary Basis <==

  Basis Set: AUG-CC-PVTZ
    Blend: AUG-CC-PVTZ
    Number of shells: 138
    Number of basis function: 414
    Number of Cartesian functions: 480
    Spherical Harmonics?: true
    Max angular momentum: 3

   => Loading Basis Set <=

    Name: (AUG-CC-PVTZ AUX)
    Role: JKFIT
    Keyword: DF_BASIS_SCF
    atoms 1, 3, 5, 7, 9, 11  entry C          line   162 file /home/liuchw/anaconda3/envs/psi4env/share/psi4/basis/aug-cc-pvtz-jkfit.gbs 
    atoms 2, 4, 6, 8, 10, 12 entry H          line    70 file /home/liuchw/anaconda3/envs/psi4env/share/psi4/basis/aug-cc-pvtz-jkfit.gbs 

  ==> Pre-Iterations <==

   -------------------------------------------------------
    Irrep   Nso     Nmo     Nalpha   Nbeta   Ndocc  Nsocc
   -------------------------------------------------------
     A        414     414       0       0       0       0
   -------------------------------------------------------
    Total     414     414      21      21      21       0
   -------------------------------------------------------

  ==> Integral Setup <==

  DFHelper Memory: AOs need 1.188 GiB; user supplied 27.940 GiB. Using in-core AOs.

  ==> MemDFJK: Density-Fitted J/K Matrices <==

    J tasked:                   Yes
    K tasked:                   Yes
    wK tasked:                   No
    OpenMP threads:               8
    Memory [MiB]:             28610
    Algorithm:                 Core
    Schwarz Cutoff:           1E-12
    Mask sparsity (%):       1.0514
    Fitting Condition:        1E-10

   => Auxiliary Basis Set <=

  Basis Set: (AUG-CC-PVTZ AUX)
    Blend: AUG-CC-PVTZ-JKFIT
    Number of shells: 264
    Number of basis function: 900
    Number of Cartesian functions: 1116
    Spherical Harmonics?: true
    Max angular momentum: 4

  Minimum eigenvalue in the overlap matrix is 3.2936404391E-07.
  Using Symmetric Orthogonalization.

  SCF Guess: Superposition of Atomic Densities via on-the-fly atomic UHF.

  ==> Iterations <==

                           Total Energy        Delta E     RMS |[F,P]|

   @DF-RHF iter SAD:  -230.19476022935223   -2.30195e+02   0.00000e+00 
   @DF-RHF iter   1:  -230.60053175596590   -4.05772e-01   1.32243e-03 DIIS
   @DF-RHF iter   2:  -230.74268653130929   -1.42155e-01   6.56091e-04 DIIS
   @DF-RHF iter   3:  -230.77968675684002   -3.70002e-02   1.04711e-04 DIIS
   @DF-RHF iter   4:  -230.78123521519450   -1.54846e-03   1.29427e-05 DIIS
   @DF-RHF iter   5:  -230.78126412470564   -2.89095e-05   2.36017e-06 DIIS
   @DF-RHF iter   6:  -230.78126514430045   -1.01959e-06   3.04628e-07 DIIS
   @DF-RHF iter   7:  -230.78126516034186   -1.60414e-08   1.42597e-07 DIIS
   @DF-RHF iter   8:  -230.78126516240488   -2.06302e-09   2.35578e-08 DIIS
   @DF-RHF iter   9:  -230.78126516252624   -1.21361e-10   5.91951e-09 DIIS
  Energy and wave function converged.


  ==> Post-Iterations <==

    Orbital Energies [Eh]
    ---------------------

    Doubly Occupied:                                                      

       1A    -11.236290     2A    -11.235710     3A    -11.235685  
       4A    -11.234460     5A    -11.234454     6A    -11.233834  
       7A     -1.150544     8A     -1.015012     9A     -1.014811  
      10A     -0.824231    11A     -0.824173    12A     -0.709754  
      13A     -0.644077    14A     -0.619294    15A     -0.588271  
      16A     -0.588002    17A     -0.502491    18A     -0.495059  
      19A     -0.494793    20A     -0.336938    21A     -0.336818  

    Virtual:                                                              

      22A      0.029992    23A      0.034988    24A      0.034999  
      25A      0.048339    26A      0.048341    27A      0.064636  
      28A      0.099766    29A      0.103615    30A      0.103620  
      31A      0.110649    32A      0.110673    33A      0.117513  
      34A      0.118203    35A      0.118212    36A      0.124034  
      37A      0.128877    38A      0.128881    39A      0.137155  
      40A      0.143143    41A      0.143168    42A      0.154756  
      43A      0.158116    44A      0.158120    45A      0.162505  
      46A      0.162517    47A      0.162739    48A      0.231209  
      49A      0.248704    50A      0.248705    51A      0.254909  
      52A      0.256476    53A      0.256506    54A      0.271059  
      55A      0.296072    56A      0.296150    57A      0.301733  
      58A      0.307062    59A      0.308329    60A      0.308373  
      61A      0.318200    62A      0.324940    63A      0.324981  
      64A      0.332423    65A      0.346036    66A      0.346057  
      67A      0.349496    68A      0.349532    69A      0.365606  
      70A      0.379868    71A      0.379906    72A      0.397778  
      73A      0.421666    74A      0.434748    75A      0.434833  
      76A      0.446314    77A      0.446351    78A      0.458723  
      79A      0.459934    80A      0.463199    81A      0.463248  
      82A      0.477040    83A      0.477055    84A      0.480951  
      85A      0.491047    86A      0.491173    87A      0.501526  
      88A      0.505116    89A      0.523081    90A      0.523196  
      91A      0.527788    92A      0.527821    93A      0.534597  
      94A      0.542291    95A      0.542361    96A      0.549010  
      97A      0.580842    98A      0.616229    99A      0.630267  
     100A      0.630662   101A      0.636016   102A      0.636155  
     103A      0.653079   104A      0.653197   105A      0.663559  
     106A      0.663652   107A      0.700956   108A      0.701029  
     109A      0.702147   110A      0.709894   111A      0.730022  
     112A      0.730263   113A      0.730540   114A      0.744137  
     115A      0.763149   116A      0.763526   117A      0.790569  
     118A      0.802126   119A      0.818056   120A      0.818161  
     121A      0.837335   122A      0.850576   123A      0.850928  
     124A      0.851025   125A      0.867781   126A      0.867961  
     127A      0.880919   128A      0.881025   129A      0.889615  
     130A      0.900808   131A      0.904432   132A      0.906459  
     133A      0.906759   134A      0.924093   135A      0.949634  
     136A      0.949718   137A      0.954924   138A      0.961371  
     139A      0.986949   140A      0.986970   141A      0.993694  
     142A      1.031185   143A      1.031221   144A      1.032985  
     145A      1.033170   146A      1.066342   147A      1.066426  
     148A      1.081680   149A      1.081697   150A      1.085495  
     151A      1.096564   152A      1.100329   153A      1.104567  
     154A      1.105244   155A      1.105757   156A      1.109995  
     157A      1.141604   158A      1.141619   159A      1.151214  
     160A      1.178406   161A      1.178783   162A      1.180924  
     163A      1.181137   164A      1.204708   165A      1.204713  
     166A      1.219408   167A      1.222680   168A      1.222926  
     169A      1.237931   170A      1.237946   171A      1.264492  
     172A      1.267679   173A      1.276062   174A      1.276077  
     175A      1.328563   176A      1.360839   177A      1.360907  
     178A      1.364054   179A      1.387242   180A      1.396772  
     181A      1.396926   182A      1.402884   183A      1.403007  
     184A      1.426194   185A      1.476259   186A      1.476495  
     187A      1.488189   188A      1.511189   189A      1.511211  
     190A      1.518829   191A      1.519609   192A      1.519778  
     193A      1.541573   194A      1.634275   195A      1.678244  
     196A      1.678386   197A      1.694236   198A      1.694782  
     199A      1.702331   200A      1.714295   201A      1.714440  
     202A      1.755006   203A      1.755036   204A      1.778883  
     205A      1.791376   206A      1.817895   207A      1.828205  
     208A      1.828575   209A      1.839802   210A      1.840158  
     211A      1.848590   212A      1.884353   213A      1.888478  
     214A      1.888527   215A      1.909717   216A      1.909909  
     217A      1.928088   218A      1.972026   219A      1.994677  
     220A      1.995060   221A      2.007803   222A      2.007849  
     223A      2.016134   224A      2.016171   225A      2.041180  
     226A      2.053164   227A      2.053409   228A      2.060852  
     229A      2.084871   230A      2.085719   231A      2.101197  
     232A      2.101274   233A      2.101626   234A      2.116520  
     235A      2.227732   236A      2.227956   237A      2.269347  
     238A      2.269451   239A      2.338994   240A      2.339788  
     241A      2.352532   242A      2.369454   243A      2.369609  
     244A      2.375866   245A      2.376100   246A      2.402215  
     247A      2.441100   248A      2.509566   249A      2.510344  
     250A      2.562148   251A      2.562293   252A      2.568270  
     253A      2.591096   254A      2.592493   255A      2.695506  
     256A      2.716657   257A      2.754468   258A      2.764525  
     259A      2.793656   260A      2.836187   261A      2.842060  
     262A      2.842488   263A      2.929101   264A      3.080758  
     265A      3.080870   266A      3.129516   267A      3.165148  
     268A      3.165557   269A      3.224012   270A      3.224134  
     271A      3.312424   272A      3.318866   273A      3.319212  
     274A      3.330270   275A      3.364886   276A      3.365499  
     277A      3.383355   278A      3.383925   279A      3.389341  
     280A      3.405212   281A      3.411712   282A      3.429140  
     283A      3.429512   284A      3.524716   285A      3.525311  
     286A      3.536101   287A      3.536537   288A      3.553741  
     289A      3.553759   290A      3.572989   291A      3.573017  
     292A      3.585564   293A      3.613053   294A      3.631532  
     295A      3.652200   296A      3.656566   297A      3.656863  
     298A      3.751351   299A      3.772595   300A      3.802575  
     301A      3.814507   302A      3.833704   303A      3.833742  
     304A      3.838540   305A      3.838814   306A      3.845844  
     307A      3.845967   308A      3.870919   309A      3.871047  
     310A      3.961905   311A      3.962233   312A      3.985534  
     313A      3.985810   314A      3.990317   315A      4.035492  
     316A      4.036304   317A      4.049791   318A      4.050012  
     319A      4.057717   320A      4.108010   321A      4.108073  
     322A      4.124717   323A      4.132352   324A      4.133268  
     325A      4.172718   326A      4.187608   327A      4.205694  
     328A      4.246968   329A      4.247754   330A      4.283071  
     331A      4.290125   332A      4.333912   333A      4.334103  
     334A      4.356153   335A      4.363304   336A      4.363633  
     337A      4.429775   338A      4.433447   339A      4.433782  
     340A      4.442994   341A      4.443507   342A      4.466553  
     343A      4.470109   344A      4.470565   345A      4.508833  
     346A      4.508865   347A      4.605777   348A      4.703589  
     349A      4.721412   350A      4.721532   351A      4.726352  
     352A      4.726858   353A      4.736564   354A      4.796512  
     355A      4.796646   356A      4.881277   357A      4.881516  
     358A      4.925817   359A      4.929698   360A      4.943078  
     361A      5.032798   362A      5.033110   363A      5.074622  
     364A      5.075089   365A      5.080340   366A      5.081070  
     367A      5.113274   368A      5.118089   369A      5.152299  
     370A      5.152346   371A      5.179715   372A      5.180369  
     373A      5.182301   374A      5.183273   375A      5.236102  
     376A      5.236427   377A      5.339437   378A      5.340437  
     379A      5.347741   380A      5.355805   381A      5.431400  
     382A      5.431700   383A      5.440893   384A      5.440986  
     385A      5.502175   386A      5.538555   387A      5.742478  
     388A      5.742715   389A      5.792318   390A      5.792790  
     391A      5.857957   392A      5.881858   393A      5.930320  
     394A      5.983938   395A      6.166206   396A      6.166521  
     397A      6.272080   398A      6.273107   399A      6.368819  
     400A      6.369174   401A      6.399850   402A      6.651462  
     403A      6.652372   404A      6.860500   405A      6.860844  
     406A      7.032470   407A      7.222266   408A      7.446523  
     409A     16.058756   410A     16.060493   411A     17.161168  
     412A     19.333135   413A     19.337715   414A     19.579658  

    Final Occupation by Irrep:
              A 
    DOCC [    21 ]

  @DF-RHF Final Energy:  -230.78126516252624

   => Energetics <=

    Nuclear Repulsion Energy =            203.7117128021032784
    One-Electron Energy =                -713.8765628334957682
    Two-Electron Energy =                 279.3835848688661940
    Total Energy =                       -230.7812651625262674

Computation Completed


Properties will be evaluated at   0.000000,   0.000000,   0.000000 [a0]

Properties computed using the SCF density matrix

  Nuclear Dipole Moment: [e a0]
     X:    49.0924      Y:    -0.4606      Z:   140.4226

  Electronic Dipole Moment: [e a0]
     X:   -49.0922      Y:     0.4606      Z:  -140.4273

  Dipole Moment: [e a0]
     X:     0.0002      Y:    -0.0000      Z:    -0.0048     Total:     0.0048

  Dipole Moment: [D]
     X:     0.0006      Y:    -0.0001      Z:    -0.0121     Total:     0.0121


*** tstop() called on node59.bme.utexas.edu at Sat Apr 11 19:48:34 2020
Module time:
	user time   =      41.70 seconds =       0.70 minutes
	system time =       1.58 seconds =       0.03 minutes
	total time  =          6 seconds =       0.10 minutes
Total time:
	user time   =      41.70 seconds =       0.70 minutes
	system time =       1.58 seconds =       0.03 minutes
	total time  =          6 seconds =       0.10 minutes

*** tstart() called on node59.bme.utexas.edu
*** at Sat Apr 11 19:48:34 2020


  //>>>>>>>>>>>>>>>>>>>>>>>>>>>>>>>>>>>//
  //               DFMP2               //
  //<<<<<<<<<<<<<<<<<<<<<<<<<<<<<<<<<<<//

   => Loading Basis Set <=

    Name: (AUG-CC-PVTZ AUX)
    Role: RIFIT
    Keyword: DF_BASIS_MP2
    atoms 1, 3, 5, 7, 9, 11  entry C          line   148 file /home/liuchw/anaconda3/envs/psi4env/share/psi4/basis/aug-cc-pvtz-ri.gbs 
    atoms 2, 4, 6, 8, 10, 12 entry H          line    30 file /home/liuchw/anaconda3/envs/psi4env/share/psi4/basis/aug-cc-pvtz-ri.gbs 

	 --------------------------------------------------------
	                          DF-MP2                         
	      2nd-Order Density-Fitted Moller-Plesset Theory     
	              RMP2 Wavefunction,   8 Threads             
	                                                         
	        Rob Parrish, Justin Turney, Andy Simmonett,      
	           Ed Hohenstein, and C. David Sherrill          
	 --------------------------------------------------------

   => Auxiliary Basis Set <=

  Basis Set: (AUG-CC-PVTZ AUX)
    Blend: AUG-CC-PVTZ-RI
    Number of shells: 252
    Number of basis function: 912
    Number of Cartesian functions: 1146
    Spherical Harmonics?: true
    Max angular momentum: 4

	 --------------------------------------------------------
	                 NBF =   414, NAUX =   912
	 --------------------------------------------------------
	   CLASS    FOCC     OCC    AOCC    AVIR     VIR    FVIR
	   PAIRS       0      21      21     393     393       0
	 --------------------------------------------------------

	-----------------------------------------------------------
	 ==================> DF-MP2 Energies <==================== 
	-----------------------------------------------------------
	 Reference Energy          =    -230.7812651625262390 [Eh]
	 Singles Energy            =      -0.0000000000000000 [Eh]
	 Same-Spin Energy          =      -0.2553783080986175 [Eh]
	 Opposite-Spin Energy      =      -0.8183093209666716 [Eh]
	 Correlation Energy        =      -1.0736876290652893 [Eh]
	 Total Energy              =    -231.8549527915915291 [Eh]
	-----------------------------------------------------------
	 ================> DF-SCS-MP2 Energies <================== 
	-----------------------------------------------------------
	 SCS Same-Spin Scale       =       0.3333333333333333 [-]
	 SCS Opposite-Spin Scale   =       1.2000000000000000 [-]
	 SCS Same-Spin Energy      =      -0.0851261026995392 [Eh]
	 SCS Opposite-Spin Energy  =      -0.9819711851600059 [Eh]
	 SCS Correlation Energy    =      -1.0670972878595451 [Eh]
	 SCS Total Energy          =    -231.8483624503857925 [Eh]
	-----------------------------------------------------------


*** tstop() called on node59.bme.utexas.edu at Sat Apr 11 19:48:38 2020
Module time:
	user time   =      21.78 seconds =       0.36 minutes
	system time =       0.81 seconds =       0.01 minutes
	total time  =          4 seconds =       0.07 minutes
Total time:
	user time   =      63.49 seconds =       1.06 minutes
	system time =       2.39 seconds =       0.04 minutes
	total time  =         10 seconds =       0.17 minutes

  //>>>>>>>>>>>>>>>>>>>>>>>>>>>>>>>>>>>>//
  // CBS Computation: MP2 / AUG-CC-PVQZ //
  //<<<<<<<<<<<<<<<<<<<<<<<<<<<<<<<<<<<<//


Scratch directory: /scratch//

*** tstart() called on node59.bme.utexas.edu
*** at Sat Apr 11 19:48:38 2020

   => Loading Basis Set <=

    Name: AUG-CC-PVQZ
    Role: ORBITAL
    Keyword: BASIS
    atoms 1, 3, 5, 7, 9, 11  entry C          line   303 file /home/liuchw/anaconda3/envs/psi4env/share/psi4/basis/aug-cc-pvqz.gbs 
    atoms 2, 4, 6, 8, 10, 12 entry H          line    40 file /home/liuchw/anaconda3/envs/psi4env/share/psi4/basis/aug-cc-pvqz.gbs 


         ---------------------------------------------------------
                                   SCF
               by Justin Turney, Rob Parrish, Andy Simmonett
                          and Daniel G. A. Smith
                              RHF Reference
                        8 Threads,  38146 MiB Core
         ---------------------------------------------------------

  ==> Geometry <==

    Molecular point group: c1
    Full point group: C1

    Geometry (in Angstrom), charge = 0, multiplicity = 1:

       Center              X                  Y                   Z               Mass       
    ------------   -----------------  -----------------  -----------------  -----------------
         C            1.449496890680     1.110113596848     1.850823140560    12.000000000000
         H            2.094341890680     1.976297596848     1.914573140560     1.007825032230
         C            1.995449890680    -0.171037403152     1.912342140560    12.000000000000
         H            3.063656890680    -0.299184403152     2.025087140560     1.007825032230
         C            1.163800890680    -1.286637403152     1.833692140560    12.000000000000
         H            1.586882890680    -2.280989403152     1.883346140560     1.007825032230
         C           -0.212601109320    -1.121002403152     1.688975140560    12.000000000000
         H           -0.857703109320    -1.986412403152     1.621342140560     1.007825032230
         C           -0.758161109320     0.159230596848     1.625009140560    12.000000000000
         H           -1.824789109320     0.287059596848     1.501831140560     1.007825032230
         C            0.073115890680     1.274511596848     1.707080140560    12.000000000000
         H           -0.350409109320     2.268416596848     1.654711140560     1.007825032230

  Running in c1 symmetry.

  Rotational constants: A =      0.10835  B =      0.04648  C =      0.04391 [cm^-1]
  Rotational constants: A =   3248.26124  B =   1393.36253  C =   1316.38927 [MHz]
  Nuclear repulsion =  203.711712802103278

  Charge       = 0
  Multiplicity = 1
  Electrons    = 42
  Nalpha       = 21
  Nbeta        = 21

  ==> Algorithm <==

  SCF Algorithm Type is DF.
  DIIS enabled.
  MOM disabled.
  Fractional occupation disabled.
  Guess Type is SAD.
  Energy threshold   = 1.00e-07
  Density threshold  = 1.00e-08
  Integral threshold = 0.00e+00

  ==> Primary Basis <==

  Basis Set: AUG-CC-PVQZ
    Blend: AUG-CC-PVQZ
    Number of shells: 204
    Number of basis function: 756
    Number of Cartesian functions: 960
    Spherical Harmonics?: true
    Max angular momentum: 4

   => Loading Basis Set <=

    Name: (AUG-CC-PVQZ AUX)
    Role: JKFIT
    Keyword: DF_BASIS_SCF
    atoms 1, 3, 5, 7, 9, 11  entry C          line   178 file /home/liuchw/anaconda3/envs/psi4env/share/psi4/basis/aug-cc-pvqz-jkfit.gbs 
    atoms 2, 4, 6, 8, 10, 12 entry H          line    70 file /home/liuchw/anaconda3/envs/psi4env/share/psi4/basis/aug-cc-pvqz-jkfit.gbs 

  ==> Pre-Iterations <==

   -------------------------------------------------------
    Irrep   Nso     Nmo     Nalpha   Nbeta   Ndocc  Nsocc
   -------------------------------------------------------
     A        756     756       0       0       0       0
   -------------------------------------------------------
    Total     756     756      21      21      21       0
   -------------------------------------------------------

  ==> Integral Setup <==

  DFHelper Memory: AOs need 5.578 GiB; user supplied 27.940 GiB. Using in-core AOs.

  ==> MemDFJK: Density-Fitted J/K Matrices <==

    J tasked:                   Yes
    K tasked:                   Yes
    wK tasked:                   No
    OpenMP threads:               8
    Memory [MiB]:             28610
    Algorithm:                 Core
    Schwarz Cutoff:           1E-12
    Mask sparsity (%):       3.2085
    Fitting Condition:        1E-10

   => Auxiliary Basis Set <=

  Basis Set: (AUG-CC-PVQZ AUX)
    Blend: AUG-CC-PVQZ-JKFIT
    Number of shells: 312
    Number of basis function: 1308
    Number of Cartesian functions: 1794
    Spherical Harmonics?: true
    Max angular momentum: 5

  Minimum eigenvalue in the overlap matrix is 2.5786624915E-07.
  Using Symmetric Orthogonalization.

  SCF Guess: Superposition of Atomic Densities via on-the-fly atomic UHF.

  ==> Iterations <==

                           Total Energy        Delta E     RMS |[F,P]|

   @DF-RHF iter SAD:  -230.20283036993388   -2.30203e+02   0.00000e+00 
   @DF-RHF iter   1:  -230.61292459090117   -4.10094e-01   7.28412e-04 DIIS
   @DF-RHF iter   2:  -230.75547228322992   -1.42548e-01   3.62607e-04 DIIS
   @DF-RHF iter   3:  -230.79284091251571   -3.73686e-02   5.84714e-05 DIIS
   @DF-RHF iter   4:  -230.79440866837948   -1.56776e-03   7.37009e-06 DIIS
   @DF-RHF iter   5:  -230.79443980679497   -3.11384e-05   1.33791e-06 DIIS
   @DF-RHF iter   6:  -230.79444088382962   -1.07703e-06   1.71014e-07 DIIS
   @DF-RHF iter   7:  -230.79444090083072   -1.70011e-08   7.80846e-08 DIIS
   @DF-RHF iter   8:  -230.79444090289326   -2.06254e-09   1.37924e-08 DIIS
   @DF-RHF iter   9:  -230.79444090302701   -1.33753e-10   3.30324e-09 DIIS
  Energy and wave function converged.


  ==> Post-Iterations <==

    Orbital Energies [Eh]
    ---------------------

    Doubly Occupied:                                                      

       1A    -11.235177     2A    -11.234597     3A    -11.234572  
       4A    -11.233346     5A    -11.233341     6A    -11.232717  
       7A     -1.150186     8A     -1.014672     9A     -1.014471  
      10A     -0.824057    11A     -0.823999    12A     -0.709772  
      13A     -0.644065    14A     -0.619292    15A     -0.588277  
      16A     -0.588008    17A     -0.502613    18A     -0.495118  
      19A     -0.494853    20A     -0.337013    21A     -0.336893  

    Virtual:                                                              

      22A      0.026492    23A      0.030431    24A      0.030441  
      25A      0.042479    26A      0.042480    27A      0.058646  
      28A      0.082973    29A      0.090187    30A      0.090198  
      31A      0.097552    32A      0.097558    33A      0.100340  
      34A      0.101425    35A      0.101428    36A      0.105483  
      37A      0.113585    38A      0.113587    39A      0.117359  
      40A      0.125697    41A      0.125714    42A      0.134605  
      43A      0.134607    44A      0.138607    45A      0.140148  
      46A      0.140304    47A      0.140322    48A      0.201856  
      49A      0.212879    50A      0.213438    51A      0.213772  
      52A      0.219194    53A      0.219201    54A      0.231569  
      55A      0.247785    56A      0.247851    57A      0.256089  
      58A      0.256122    59A      0.260001    60A      0.264263  
      61A      0.268184    62A      0.286412    63A      0.286452  
      64A      0.291499    65A      0.291910    66A      0.296002  
      67A      0.296032    68A      0.298360    69A      0.298372  
      70A      0.319362    71A      0.319372    72A      0.321212  
      73A      0.321220    74A      0.324559    75A      0.332508  
      76A      0.348325    77A      0.348379    78A      0.361301  
      79A      0.366645    80A      0.366809    81A      0.370055  
      82A      0.402547    83A      0.402577    84A      0.407192  
      85A      0.418627    86A      0.418654    87A      0.430052  
      88A      0.430757    89A      0.431221    90A      0.431310  
      91A      0.438082    92A      0.438293    93A      0.444031  
      94A      0.454668    95A      0.454715    96A      0.456977  
      97A      0.473945    98A      0.474022    99A      0.475779  
     100A      0.503601   101A      0.504168   102A      0.504206  
     103A      0.513646   104A      0.513761   105A      0.518517  
     106A      0.518583   107A      0.519046   108A      0.519146  
     109A      0.529709   110A      0.536108   111A      0.537761  
     112A      0.553265   113A      0.576179   114A      0.577343  
     115A      0.577423   116A      0.579021   117A      0.586153  
     118A      0.599791   119A      0.599813   120A      0.642447  
     121A      0.650977   122A      0.658823   123A      0.658842  
     124A      0.678989   125A      0.679003   126A      0.693064  
     127A      0.693291   128A      0.695764   129A      0.699020  
     130A      0.704559   131A      0.705564   132A      0.712541  
     133A      0.730041   134A      0.730169   135A      0.735894  
     136A      0.746133   137A      0.746503   138A      0.757609  
     139A      0.769413   140A      0.769425   141A      0.777290  
     142A      0.777608   143A      0.792849   144A      0.792914  
     145A      0.803756   146A      0.803855   147A      0.829118  
     148A      0.833419   149A      0.835822   150A      0.835850  
     151A      0.838535   152A      0.838563   153A      0.864143  
     154A      0.875091   155A      0.890261   156A      0.890323  
     157A      0.893518   158A      0.915551   159A      0.915564  
     160A      0.921506   161A      0.921591   162A      0.927102  
     163A      0.940513   164A      0.952375   165A      0.952625  
     166A      0.957896   167A      0.957917   168A      0.978340  
     169A      0.987287   170A      0.987438   171A      0.990729  
     172A      0.990891   173A      1.011474   174A      1.027030  
     175A      1.027084   176A      1.037074   177A      1.044460  
     178A      1.054217   179A      1.054645   180A      1.072214  
     181A      1.092734   182A      1.097732   183A      1.097963  
     184A      1.114648   185A      1.128653   186A      1.150398  
     187A      1.155801   188A      1.157067   189A      1.169788  
     190A      1.169928   191A      1.178008   192A      1.178144  
     193A      1.199779   194A      1.199789   195A      1.219733  
     196A      1.237694   197A      1.246750   198A      1.248927  
     199A      1.249044   200A      1.278329   201A      1.294019  
     202A      1.299137   203A      1.299205   204A      1.323207  
     205A      1.324226   206A      1.340975   207A      1.343209  
     208A      1.343238   209A      1.353043   210A      1.353072  
     211A      1.363035   212A      1.374325   213A      1.374682  
     214A      1.383904   215A      1.384133   216A      1.402312  
     217A      1.402543   218A      1.404840   219A      1.404929  
     220A      1.434039   221A      1.449535   222A      1.504660  
     223A      1.505185   224A      1.525057   225A      1.525110  
     226A      1.528473   227A      1.528655   228A      1.529237  
     229A      1.529345   230A      1.556632   231A      1.568021  
     232A      1.568107   233A      1.582517   234A      1.582545  
     235A      1.590219   236A      1.591154   237A      1.591244  
     238A      1.598768   239A      1.598775   240A      1.636862  
     241A      1.658894   242A      1.669216   243A      1.678353  
     244A      1.724140   245A      1.724407   246A      1.736693  
     247A      1.758181   248A      1.758301   249A      1.771027  
     250A      1.786987   251A      1.787217   252A      1.787913  
     253A      1.815607   254A      1.815823   255A      1.817185  
     256A      1.847522   257A      1.857440   258A      1.875938  
     259A      1.884952   260A      1.893046   261A      1.893166  
     262A      1.909696   263A      1.910025   264A      1.916663  
     265A      1.916688   266A      1.935321   267A      1.935593  
     268A      1.943388   269A      1.976681   270A      1.976699  
     271A      2.023603   272A      2.024434   273A      2.029787  
     274A      2.030251   275A      2.033147   276A      2.036050  
     277A      2.043609   278A      2.048805   279A      2.060447  
     280A      2.060798   281A      2.072231   282A      2.085969  
     283A      2.085997   284A      2.095277   285A      2.100131  
     286A      2.116479   287A      2.116830   288A      2.132363  
     289A      2.138274   290A      2.148372   291A      2.148755  
     292A      2.179358   293A      2.195672   294A      2.195746  
     295A      2.240201   296A      2.241374   297A      2.242559  
     298A      2.253671   299A      2.253761   300A      2.259138  
     301A      2.272970   302A      2.278405   303A      2.278666  
     304A      2.292723   305A      2.293077   306A      2.295668  
     307A      2.295730   308A      2.297070   309A      2.297461  
     310A      2.302998   311A      2.375368   312A      2.375694  
     313A      2.392301   314A      2.394373   315A      2.399541  
     316A      2.400091   317A      2.400604   318A      2.404429  
     319A      2.404861   320A      2.405737   321A      2.420835  
     322A      2.421131   323A      2.426964   324A      2.440778  
     325A      2.441830   326A      2.443441   327A      2.446209  
     328A      2.446667   329A      2.508565   330A      2.508612  
     331A      2.510378   332A      2.523096   333A      2.523309  
     334A      2.530892   335A      2.536801   336A      2.544481  
     337A      2.544605   338A      2.567547   339A      2.567805  
     340A      2.600629   341A      2.600975   342A      2.611217  
     343A      2.616917   344A      2.616979   345A      2.618856  
     346A      2.639309   347A      2.663734   348A      2.663833  
     349A      2.707033   350A      2.707466   351A      2.719200  
     352A      2.719433   353A      2.734175   354A      2.734374  
     355A      2.781627   356A      2.790716   357A      2.790880  
     358A      2.813764   359A      2.817606   360A      2.817674  
     361A      2.821509   362A      2.821843   363A      2.831388  
     364A      2.831754   365A      2.843628   366A      2.870672  
     367A      2.887324   368A      2.887654   369A      2.893343  
     370A      2.971024   371A      2.971393   372A      2.998214  
     373A      2.998464   374A      3.003486   375A      3.015500  
     376A      3.030743   377A      3.031381   378A      3.067426  
     379A      3.101892   380A      3.102196   381A      3.102390  
     382A      3.102419   383A      3.164431   384A      3.171240  
     385A      3.171531   386A      3.172985   387A      3.173310  
     388A      3.178757   389A      3.201567   390A      3.201706  
     391A      3.275705   392A      3.284222   393A      3.302552  
     394A      3.302796   395A      3.318089   396A      3.318793  
     397A      3.343663   398A      3.344062   399A      3.353324  
     400A      3.353884   401A      3.390486   402A      3.435454  
     403A      3.435830   404A      3.468347   405A      3.470947  
     406A      3.506307   407A      3.523547   408A      3.525866  
     409A      3.533255   410A      3.586117   411A      3.586744  
     412A      3.596901   413A      3.597232   414A      3.609064  
     415A      3.637272   416A      3.637738   417A      3.637792  
     418A      3.684894   419A      3.742533   420A      3.754604  
     421A      3.754659   422A      3.785079   423A      3.785288  
     424A      3.805139   425A      3.834591   426A      3.835226  
     427A      3.879578   428A      3.879999   429A      3.885430  
     430A      3.885797   431A      3.948942   432A      3.949278  
     433A      3.954315   434A      3.968009   435A      3.968196  
     436A      4.016758   437A      4.033375   438A      4.034038  
     439A      4.050277   440A      4.050984   441A      4.067752  
     442A      4.079924   443A      4.080025   444A      4.127436  
     445A      4.130657   446A      4.131149   447A      4.225056  
     448A      4.225146   449A      4.270777   450A      4.273092  
     451A      4.273612   452A      4.278406   453A      4.302340  
     454A      4.325863   455A      4.360393   456A      4.370572  
     457A      4.370950   458A      4.379144   459A      4.379411  
     460A      4.383759   461A      4.403218   462A      4.404280  
     463A      4.408574   464A      4.411491   465A      4.441605  
     466A      4.442711   467A      4.500121   468A      4.500658  
     469A      4.501302   470A      4.504166   471A      4.531452  
     472A      4.531783   473A      4.578632   474A      4.579561  
     475A      4.585806   476A      4.630265   477A      4.643425  
     478A      4.643955   479A      4.652565   480A      4.813170  
     481A      4.840900   482A      4.851545   483A      4.852898  
     484A      4.927850   485A      4.929183   486A      4.936500  
     487A      4.942100   488A      4.942321   489A      4.956831  
     490A      4.957342   491A      5.005251   492A      5.026079  
     493A      5.052019   494A      5.084610   495A      5.085102  
     496A      5.100316   497A      5.100752   498A      5.140133  
     499A      5.389254   500A      5.389773   501A      5.399430  
     502A      5.427127   503A      5.427744   504A      5.608327  
     505A      5.609087   506A      5.666793   507A      5.667633  
     508A      5.678379   509A      5.725507   510A      5.743730  
     511A      5.784345   512A      5.815570   513A      5.850141  
     514A      5.850172   515A      5.897372   516A      5.959880  
     517A      5.998494   518A      6.009852   519A      6.013472  
     520A      6.066017   521A      6.066266   522A      6.089266  
     523A      6.089558   524A      6.123866   525A      6.124174  
     526A      6.264471   527A      6.264598   528A      6.271662  
     529A      6.291426   530A      6.292014   531A      6.297875  
     532A      6.297960   533A      6.326054   534A      6.364387  
     535A      6.364625   536A      6.389190   537A      6.389660  
     538A      6.396392   539A      6.397020   540A      6.447254  
     541A      6.447505   542A      6.469122   543A      6.499014  
     544A      6.537578   545A      6.553408   546A      6.606539  
     547A      6.606627   548A      6.654371   549A      6.665614  
     550A      6.665682   551A      6.670100   552A      6.692303  
     553A      6.692409   554A      6.704228   555A      6.743956  
     556A      6.744390   557A      6.776242   558A      6.794976  
     559A      6.795102   560A      6.825024   561A      6.846192  
     562A      6.846842   563A      6.907501   564A      6.911187  
     565A      6.929088   566A      6.929301   567A      6.949565  
     568A      6.950121   569A      6.955684   570A      6.972548  
     571A      6.972974   572A      6.973896   573A      7.017261  
     574A      7.017910   575A      7.094973   576A      7.107084  
     577A      7.108020   578A      7.109543   579A      7.109998  
     580A      7.113476   581A      7.144837   582A      7.144891  
     583A      7.191139   584A      7.194298   585A      7.210026  
     586A      7.210183   587A      7.231692   588A      7.254383  
     589A      7.254987   590A      7.268569   591A      7.269779  
     592A      7.306384   593A      7.306735   594A      7.385135  
     595A      7.386806   596A      7.407692   597A      7.408117  
     598A      7.410595   599A      7.416091   600A      7.416565  
     601A      7.454192   602A      7.524630   603A      7.524732  
     604A      7.566545   605A      7.566839   606A      7.587050  
     607A      7.587484   608A      7.590123   609A      7.627278  
     610A      7.666237   611A      7.666249   612A      7.708544  
     613A      7.708591   614A      7.741639   615A      7.742552  
     616A      7.785354   617A      7.837570   618A      7.838218  
     619A      7.838756   620A      7.872757   621A      7.875527  
     622A      7.943778   623A      7.944632   624A      7.945145  
     625A      7.972241   626A      7.972647   627A      8.016582  
     628A      8.016606   629A      8.031408   630A      8.056136  
     631A      8.056292   632A      8.095397   633A      8.182188  
     634A      8.245957   635A      8.269418   636A      8.270516  
     637A      8.297144   638A      8.304806   639A      8.305422  
     640A      8.319006   641A      8.356218   642A      8.367562  
     643A      8.367825   644A      8.453004   645A      8.453530  
     646A      8.454980   647A      8.455255   648A      8.532256  
     649A      8.640185   650A      8.661545   651A      8.662064  
     652A      8.669052   653A      8.719589   654A      8.720675  
     655A      8.720872   656A      8.721518   657A      8.773333  
     658A      8.773947   659A      8.782360   660A      8.789218  
     661A      8.865187   662A      8.866246   663A      8.930881  
     664A      8.931387   665A      8.944163   666A      8.944262  
     667A      8.994188   668A      8.994779   669A      9.044912  
     670A      9.056756   671A      9.065244   672A      9.078502  
     673A      9.079068   674A      9.130466   675A      9.131009  
     676A      9.302412   677A      9.321301   678A      9.326541  
     679A      9.425056   680A      9.433285   681A      9.433400  
     682A      9.457896   683A      9.459349   684A      9.509554  
     685A      9.509648   686A      9.533569   687A      9.534025  
     688A      9.582465   689A      9.589527   690A      9.589667  
     691A      9.600456   692A      9.600621   693A      9.634867  
     694A      9.718815   695A      9.719708   696A      9.828596  
     697A      9.852827   698A      9.881641   699A      9.882505  
     700A      9.888085   701A     10.022151   702A     10.022281  
     703A     10.036141   704A     10.036589   705A     10.109352  
     706A     10.129642   707A     10.130565   708A     10.236089  
     709A     10.261271   710A     10.262222   711A     10.324404  
     712A     10.325456   713A     10.327728   714A     10.328634  
     715A     10.383773   716A     10.384178   717A     10.484623  
     718A     10.485306   719A     10.573590   720A     10.574597  
     721A     10.603175   722A     10.729552   723A     10.729569  
     724A     10.778297   725A     10.778546   726A     10.822950  
     727A     10.824600   728A     10.835895   729A     10.856564  
     730A     10.916364   731A     11.065360   732A     11.094036  
     733A     11.120956   734A     11.122581   735A     11.360761  
     736A     11.490999   737A     11.491952   738A     11.524236  
     739A     11.665904   740A     11.666075   741A     11.753869  
     742A     11.755696   743A     11.794519   744A     12.511711  
     745A     13.114414   746A     13.336461   747A     13.336974  
     748A     13.443631   749A     13.444709   750A     13.725490  
     751A     26.196812   752A     26.197333   753A     26.647233  
     754A     26.784166   755A     27.205445   756A     27.206804  

    Final Occupation by Irrep:
              A 
    DOCC [    21 ]

  @DF-RHF Final Energy:  -230.79444090302701

   => Energetics <=

    Nuclear Repulsion Energy =            203.7117128021032784
    One-Electron Energy =                -713.9182401613873026
    Two-Electron Energy =                 279.4120864562569864
    Total Energy =                       -230.7944409030270094

Computation Completed


Properties will be evaluated at   0.000000,   0.000000,   0.000000 [a0]

Properties computed using the SCF density matrix

  Nuclear Dipole Moment: [e a0]
     X:    49.0924      Y:    -0.4606      Z:   140.4226

  Electronic Dipole Moment: [e a0]
     X:   -49.0922      Y:     0.4606      Z:  -140.4273

  Dipole Moment: [e a0]
     X:     0.0002      Y:    -0.0000      Z:    -0.0047     Total:     0.0047

  Dipole Moment: [D]
     X:     0.0006      Y:    -0.0001      Z:    -0.0121     Total:     0.0121


*** tstop() called on node59.bme.utexas.edu at Sat Apr 11 19:49:02 2020
Module time:
	user time   =     170.16 seconds =       2.84 minutes
	system time =       4.02 seconds =       0.07 minutes
	total time  =         24 seconds =       0.40 minutes
Total time:
	user time   =     233.71 seconds =       3.90 minutes
	system time =       6.41 seconds =       0.11 minutes
	total time  =         34 seconds =       0.57 minutes

*** tstart() called on node59.bme.utexas.edu
*** at Sat Apr 11 19:49:02 2020


  //>>>>>>>>>>>>>>>>>>>>>>>>>>>>>>>>>>>//
  //               DFMP2               //
  //<<<<<<<<<<<<<<<<<<<<<<<<<<<<<<<<<<<//

   => Loading Basis Set <=

    Name: (AUG-CC-PVQZ AUX)
    Role: RIFIT
    Keyword: DF_BASIS_MP2
    atoms 1, 3, 5, 7, 9, 11  entry C          line   184 file /home/liuchw/anaconda3/envs/psi4env/share/psi4/basis/aug-cc-pvqz-ri.gbs 
    atoms 2, 4, 6, 8, 10, 12 entry H          line    30 file /home/liuchw/anaconda3/envs/psi4env/share/psi4/basis/aug-cc-pvqz-ri.gbs 

	 --------------------------------------------------------
	                          DF-MP2                         
	      2nd-Order Density-Fitted Moller-Plesset Theory     
	              RMP2 Wavefunction,   8 Threads             
	                                                         
	        Rob Parrish, Justin Turney, Andy Simmonett,      
	           Ed Hohenstein, and C. David Sherrill          
	 --------------------------------------------------------

   => Auxiliary Basis Set <=

  Basis Set: (AUG-CC-PVQZ AUX)
    Blend: AUG-CC-PVQZ-RI
    Number of shells: 336
    Number of basis function: 1488
    Number of Cartesian functions: 2052
    Spherical Harmonics?: true
    Max angular momentum: 5

	 --------------------------------------------------------
	                 NBF =   756, NAUX =  1488
	 --------------------------------------------------------
	   CLASS    FOCC     OCC    AOCC    AVIR     VIR    FVIR
	   PAIRS       0      21      21     735     735       0
	 --------------------------------------------------------

	-----------------------------------------------------------
	 ==================> DF-MP2 Energies <==================== 
	-----------------------------------------------------------
	 Reference Energy          =    -230.7944409030270094 [Eh]
	 Singles Energy            =      -0.0000000000000000 [Eh]
	 Same-Spin Energy          =      -0.2699422933522949 [Eh]
	 Opposite-Spin Energy      =      -0.9181464988849941 [Eh]
	 Correlation Energy        =      -1.1880887922372891 [Eh]
	 Total Energy              =    -231.9825296952643043 [Eh]
	-----------------------------------------------------------
	 ================> DF-SCS-MP2 Energies <================== 
	-----------------------------------------------------------
	 SCS Same-Spin Scale       =       0.3333333333333333 [-]
	 SCS Opposite-Spin Scale   =       1.2000000000000000 [-]
	 SCS Same-Spin Energy      =      -0.0899807644507650 [Eh]
	 SCS Opposite-Spin Energy  =      -1.1017757986619929 [Eh]
	 SCS Correlation Energy    =      -1.1917565631127580 [Eh]
	 SCS Total Energy          =    -231.9861974661397710 [Eh]
	-----------------------------------------------------------


*** tstop() called on node59.bme.utexas.edu at Sat Apr 11 19:49:17 2020
Module time:
	user time   =      82.48 seconds =       1.37 minutes
	system time =       2.34 seconds =       0.04 minutes
	total time  =         15 seconds =       0.25 minutes
Total time:
	user time   =     316.19 seconds =       5.27 minutes
	system time =       8.75 seconds =       0.15 minutes
	total time  =         49 seconds =       0.82 minutes

  //>>>>>>>>>>>>>>>>>>>>>>>>>>>>>>>>>>>//
  //  CBS Results: mp2/aug-cc-pv[tq]z  //
  //<<<<<<<<<<<<<<<<<<<<<<<<<<<<<<<<<<<//


   ==> HF <==

   HI-zeta (4) Energy:               -230.794440903027


   ==> Helgaker 2-point correlated extrapolation for method: MP2 <==

   LO-zeta (3) Energy:               -231.854952791592
   HI-zeta (4) Energy:               -231.982529695264
   Alpha (exponent) Value:             3.000000000000
   Extrapolated Energy:              -232.075626354701

   @Extrapolated MP2/(T,Q):          -232.075626354701



   ==> Helgaker 2-point correlated extrapolation for method: HF <==

   LO-zeta (3) Energy:               -230.781265162526
   HI-zeta (4) Energy:               -230.794440903027
   Alpha (exponent) Value:             3.000000000000
   Extrapolated Energy:              -230.804055632582

   @Extrapolated HF/(T,Q):           -230.804055632582


   ==> Components <==

  ---------------------------------------------------------------------------------------------------------
                          Method / Basis                      Rqd      Energy [Eh]   Variable
  ---------------------------------------------------------------------------------------------------------
                              hf / aug-cc-pvtz                  *    -230.78126516   HF TOTAL ENERGY
                             mp2 / aug-cc-pvtz                  *    -231.85495279   MP2 TOTAL ENERGY
                              hf / aug-cc-pvqz                  *    -230.79444090   HF TOTAL ENERGY
                             mp2 / aug-cc-pvqz                  *    -231.98252970   MP2 TOTAL ENERGY
  ---------------------------------------------------------------------------------------------------------

   ==> Stages <==

  ---------------------------------------------------------------------------------------------------------
      Stage               Method / Basis                       Wt      Energy [Eh]   Scheme
  ---------------------------------------------------------------------------------------------------------
        scf                   hf / aug-cc-pvqz                  1    -230.79444090   xtpl_highest_1
       corl                  mp2 / aug-cc-pv[tq]z               1    -232.07562635   corl_xtpl_helgaker_2
       corl                   hf / aug-cc-pv[tq]z              -1    -230.80405563   corl_xtpl_helgaker_2
  ---------------------------------------------------------------------------------------------------------

   ==> CBS <==

  ---------------------------------------------------------------------------------------------------------
      Stage               Method / Basis                               Energy [Eh]   Scheme
  ---------------------------------------------------------------------------------------------------------
        scf                   hf / aug-cc-pvqz                       -230.79444090   xtpl_highest_1
       corl                  mp2 / aug-cc-pv[tq]z                      -1.27157072   corl_xtpl_helgaker_2
      total                  CBS                                     -232.06601163   
  ---------------------------------------------------------------------------------------------------------
   => Loading Basis Set <=

    Name: DEF2-SVP
    Role: ORBITAL
    Keyword: BASIS
    atoms 1, 3, 5, 7, 9, 11  entry C          line    90 file /home/liuchw/anaconda3/envs/psi4env/share/psi4/basis/def2-svp.gbs 
    atoms 2, 4, 6, 8, 10, 12 entry H          line    15 file /home/liuchw/anaconda3/envs/psi4env/share/psi4/basis/def2-svp.gbs 


       N-Body: Complex Energy (fragments = (2,), basis = (2,):  -232.06601162514661)

       N-Body: Computing complex (2/4) with fragments (2,) in the basis of fragments (1, 2).


Scratch directory: /scratch//

  //>>>>>>>>>>>>>>>>>>>>>>>>>>>>>>>>>>>//
  //   CBS Setup: mp2/aug-cc-pv[tq]z   //
  //<<<<<<<<<<<<<<<<<<<<<<<<<<<<<<<<<<<//

    Naive listing of computations required.
             hf / aug-cc-pvqz              for  HF TOTAL ENERGY
            mp2 / aug-cc-pvtz              for  MP2 TOTAL ENERGY
            mp2 / aug-cc-pvqz              for  MP2 TOTAL ENERGY
             hf / aug-cc-pvtz              for  HF TOTAL ENERGY
             hf / aug-cc-pvqz              for  HF TOTAL ENERGY

    Enlightened listing of computations required.
            mp2 / aug-cc-pvtz              for  MP2 TOTAL ENERGY
            mp2 / aug-cc-pvqz              for  MP2 TOTAL ENERGY

    Full listing of computations to be obtained (required and bonus).
             hf / aug-cc-pvtz              for  HF TOTAL ENERGY
            mp2 / aug-cc-pvtz              for  MP2 TOTAL ENERGY
             hf / aug-cc-pvqz              for  HF TOTAL ENERGY
            mp2 / aug-cc-pvqz              for  MP2 TOTAL ENERGY

  //>>>>>>>>>>>>>>>>>>>>>>>>>>>>>>>>>>>>//
  // CBS Computation: MP2 / AUG-CC-PVTZ //
  //<<<<<<<<<<<<<<<<<<<<<<<<<<<<<<<<<<<<//


Scratch directory: /scratch//

*** tstart() called on node59.bme.utexas.edu
*** at Sat Apr 11 19:49:19 2020

   => Loading Basis Set <=

    Name: AUG-CC-PVTZ
    Role: ORBITAL
    Keyword: BASIS
    atoms 1, 3, 5, 7, 9, 11, 13, 15, 17, 19, 21, 23  entry C          line   239 file /home/liuchw/anaconda3/envs/psi4env/share/psi4/basis/aug-cc-pvtz.gbs 
    atoms 2, 4, 6, 8, 10, 12, 14, 16, 18, 20, 22, 24 entry H          line    40 file /home/liuchw/anaconda3/envs/psi4env/share/psi4/basis/aug-cc-pvtz.gbs 


         ---------------------------------------------------------
                                   SCF
               by Justin Turney, Rob Parrish, Andy Simmonett
                          and Daniel G. A. Smith
                              RHF Reference
                        8 Threads,  38146 MiB Core
         ---------------------------------------------------------

  ==> Geometry <==

    Molecular point group: c1
    Full point group: C1

    Geometry (in Angstrom), charge = 0, multiplicity = 1:

       Center              X                  Y                   Z               Mass       
    ------------   -----------------  -----------------  -----------------  -----------------
      Gh(C)           0.212653890680     1.120993596848    -1.689469859440    12.000000000000
      Gh(H)           0.857850890680     1.986396596848    -1.622273859440     1.007825032230
      Gh(C)           0.758244890680    -0.159254403152    -1.625776859440    12.000000000000
      Gh(H)           1.824962890680    -0.287102403152    -1.503267859440     1.007825032230
      Gh(C)          -0.073106109320    -1.274529403152    -1.707360859440    12.000000000000
      Gh(H)           0.350453890680    -2.268435403152    -1.655260859440     1.007825032230
      Gh(C)          -1.449569109320    -1.110076403152    -1.850324859440    12.000000000000
      Gh(H)          -2.094447109320    -1.976276403152    -1.913723859440     1.007825032230
      Gh(C)          -1.995517109320     0.171048596848    -1.911556859440    12.000000000000
      Gh(H)          -3.063774109320     0.299218596848    -2.023713859440     1.007825032230
      Gh(C)          -1.163819109320     1.286640596848    -1.833411859440    12.000000000000
      Gh(H)          -1.586892109320     2.280997596848    -1.882896859440     1.007825032230
         C            1.449496890680     1.110113596848     1.850823140560    12.000000000000
         H            2.094341890680     1.976297596848     1.914573140560     1.007825032230
         C            1.995449890680    -0.171037403152     1.912342140560    12.000000000000
         H            3.063656890680    -0.299184403152     2.025087140560     1.007825032230
         C            1.163800890680    -1.286637403152     1.833692140560    12.000000000000
         H            1.586882890680    -2.280989403152     1.883346140560     1.007825032230
         C           -0.212601109320    -1.121002403152     1.688975140560    12.000000000000
         H           -0.857703109320    -1.986412403152     1.621342140560     1.007825032230
         C           -0.758161109320     0.159230596848     1.625009140560    12.000000000000
         H           -1.824789109320     0.287059596848     1.501831140560     1.007825032230
         C            0.073115890680     1.274511596848     1.707080140560    12.000000000000
         H           -0.350409109320     2.268416596848     1.654711140560     1.007825032230

  Running in c1 symmetry.

  Rotational constants: A =      0.05417  B =      0.02324  C =      0.02196 [cm^-1]
  Rotational constants: A =   1623.89065  B =    696.68148  C =    658.23495 [MHz]
  Nuclear repulsion =  203.711712802103278

  Charge       = 0
  Multiplicity = 1
  Electrons    = 42
  Nalpha       = 21
  Nbeta        = 21

  ==> Algorithm <==

  SCF Algorithm Type is DF.
  DIIS enabled.
  MOM disabled.
  Fractional occupation disabled.
  Guess Type is SAD.
  Energy threshold   = 1.00e-07
  Density threshold  = 1.00e-08
  Integral threshold = 0.00e+00

  ==> Primary Basis <==

  Basis Set: AUG-CC-PVTZ
    Blend: AUG-CC-PVTZ
    Number of shells: 276
    Number of basis function: 828
    Number of Cartesian functions: 960
    Spherical Harmonics?: true
    Max angular momentum: 3

   => Loading Basis Set <=

    Name: (AUG-CC-PVTZ AUX)
    Role: JKFIT
    Keyword: DF_BASIS_SCF
    atoms 1, 3, 5, 7, 9, 11, 13, 15, 17, 19, 21, 23  entry C          line   162 file /home/liuchw/anaconda3/envs/psi4env/share/psi4/basis/aug-cc-pvtz-jkfit.gbs 
    atoms 2, 4, 6, 8, 10, 12, 14, 16, 18, 20, 22, 24 entry H          line    70 file /home/liuchw/anaconda3/envs/psi4env/share/psi4/basis/aug-cc-pvtz-jkfit.gbs 

  ==> Pre-Iterations <==

   -------------------------------------------------------
    Irrep   Nso     Nmo     Nalpha   Nbeta   Ndocc  Nsocc
   -------------------------------------------------------
     A        828     828       0       0       0       0
   -------------------------------------------------------
    Total     828     828      21      21      21       0
   -------------------------------------------------------

  ==> Integral Setup <==

  DFHelper Memory: AOs need 8.947 GiB; user supplied 27.940 GiB. Using in-core AOs.

  ==> MemDFJK: Density-Fitted J/K Matrices <==

    J tasked:                   Yes
    K tasked:                   Yes
    wK tasked:                   No
    OpenMP threads:               8
    Memory [MiB]:             28610
    Algorithm:                 Core
    Schwarz Cutoff:           1E-12
    Mask sparsity (%):       4.8983
    Fitting Condition:        1E-10

   => Auxiliary Basis Set <=

  Basis Set: (AUG-CC-PVTZ AUX)
    Blend: AUG-CC-PVTZ-JKFIT
    Number of shells: 528
    Number of basis function: 1800
    Number of Cartesian functions: 2232
    Spherical Harmonics?: true
    Max angular momentum: 4

  Minimum eigenvalue in the overlap matrix is 2.2493202964E-07.
  Using Symmetric Orthogonalization.

  SCF Guess: Superposition of Atomic Densities via on-the-fly atomic UHF.

  ==> Iterations <==

                           Total Energy        Delta E     RMS |[F,P]|

   @DF-RHF iter SAD:  -230.19476247401136   -2.30195e+02   0.00000e+00 
   @DF-RHF iter   1:  -230.60067980123009   -4.05917e-01   6.61294e-04 DIIS
   @DF-RHF iter   2:  -230.74286035415713   -1.42181e-01   3.28129e-04 DIIS
   @DF-RHF iter   3:  -230.77987958321330   -3.70192e-02   5.23807e-05 DIIS
   @DF-RHF iter   4:  -230.78142893213274   -1.54935e-03   6.47807e-06 DIIS
   @DF-RHF iter   5:  -230.78145792744706   -2.89953e-05   1.18354e-06 DIIS
   @DF-RHF iter   6:  -230.78145895465656   -1.02721e-06   1.52347e-07 DIIS
   @DF-RHF iter   7:  -230.78145897065343   -1.59969e-08   7.11405e-08 DIIS
   @DF-RHF iter   8:  -230.78145897270406   -2.05063e-09   1.17428e-08 DIIS
   @DF-RHF iter   9:  -230.78145897282263   -1.18575e-10   2.94562e-09 DIIS
  Energy and wave function converged.


  ==> Post-Iterations <==

    Orbital Energies [Eh]
    ---------------------

    Doubly Occupied:                                                      

       1A    -11.236229     2A    -11.235649     3A    -11.235624  
       4A    -11.234398     5A    -11.234394     6A    -11.233773  
       7A     -1.150490     8A     -1.014952     9A     -1.014750  
      10A     -0.824170    11A     -0.824113    12A     -0.709689  
      13A     -0.644019    14A     -0.619231    15A     -0.588207  
      16A     -0.587938    17A     -0.502489    18A     -0.494998  
      19A     -0.494732    20A     -0.336898    21A     -0.336781  

    Virtual:                                                              

      22A      0.022100    23A      0.030774    24A      0.030877  
      25A      0.037881    26A      0.043116    27A      0.043236  
      28A      0.048297    29A      0.048462    30A      0.058415  
      31A      0.061451    32A      0.064918    33A      0.078374  
      34A      0.079539    35A      0.086763    36A      0.095619  
      37A      0.097154    38A      0.102997    39A      0.105243  
      40A      0.107523    41A      0.109910    42A      0.113004  
      43A      0.119084    44A      0.119227    45A      0.120335  
      46A      0.122460    47A      0.122769    48A      0.136139  
      49A      0.137206    50A      0.138638    51A      0.140046  
      52A      0.143691    53A      0.146058    54A      0.148095  
      55A      0.150968    56A      0.155354    57A      0.155520  
      58A      0.157654    59A      0.159069    60A      0.168868  
      61A      0.171757    62A      0.172261    63A      0.175225  
      64A      0.183640    65A      0.184461    66A      0.185574  
      67A      0.186354    68A      0.190027    69A      0.201209  
      70A      0.201820    71A      0.211178    72A      0.212753  
      73A      0.214354    74A      0.228895    75A      0.240062  
      76A      0.241063    77A      0.244999    78A      0.248146  
      79A      0.259173    80A      0.261067    81A      0.261358  
      82A      0.267387    83A      0.268882    84A      0.279027  
      85A      0.283186    86A      0.288160    87A      0.289173  
      88A      0.302129    89A      0.307279    90A      0.308322  
      91A      0.312373    92A      0.313644    93A      0.315486  
      94A      0.320212    95A      0.321732    96A      0.328627  
      97A      0.333393    98A      0.337089    99A      0.343286  
     100A      0.345525   101A      0.349101   102A      0.353275  
     103A      0.354983   104A      0.359312   105A      0.365383  
     106A      0.368517   107A      0.368836   108A      0.372783  
     109A      0.376389   110A      0.380217   111A      0.386955  
     112A      0.394206   113A      0.398599   114A      0.404134  
     115A      0.405645   116A      0.408321   117A      0.415396  
     118A      0.418865   119A      0.424499   120A      0.426721  
     121A      0.429309   122A      0.429784   123A      0.434823  
     124A      0.438594   125A      0.444789   126A      0.450919  
     127A      0.461041   128A      0.466979   129A      0.468523  
     130A      0.472265   131A      0.483102   132A      0.488402  
     133A      0.490742   134A      0.494384   135A      0.495551  
     136A      0.496304   137A      0.500143   138A      0.501612  
     139A      0.503555   140A      0.510710   141A      0.512482  
     142A      0.513932   143A      0.520065   144A      0.525979  
     145A      0.527738   146A      0.538427   147A      0.540829  
     148A      0.543951   149A      0.546135   150A      0.554243  
     151A      0.558953   152A      0.561239   153A      0.562234  
     154A      0.564947   155A      0.569015   156A      0.573469  
     157A      0.579181   158A      0.582616   159A      0.585437  
     160A      0.589218   161A      0.597157   162A      0.602524  
     163A      0.609985   164A      0.613317   165A      0.621141  
     166A      0.625341   167A      0.630366   168A      0.645823  
     169A      0.646894   170A      0.650479   171A      0.650935  
     172A      0.659669   173A      0.661501   174A      0.666412  
     175A      0.667873   176A      0.669028   177A      0.672034  
     178A      0.678992   179A      0.684287   180A      0.689081  
     181A      0.696067   182A      0.698376   183A      0.700868  
     184A      0.704644   185A      0.705990   186A      0.708975  
     187A      0.709974   188A      0.715397   189A      0.719193  
     190A      0.729151   191A      0.730432   192A      0.738046  
     193A      0.746397   194A      0.749957   195A      0.752727  
     196A      0.760420   197A      0.763156   198A      0.768624  
     199A      0.770613   200A      0.773203   201A      0.780808  
     202A      0.783958   203A      0.793202   204A      0.796638  
     205A      0.801770   206A      0.809100   207A      0.812270  
     208A      0.816283   209A      0.824739   210A      0.825718  
     211A      0.833256   212A      0.838072   213A      0.842870  
     214A      0.848328   215A      0.858481   216A      0.862036  
     217A      0.869730   218A      0.871384   219A      0.875213  
     220A      0.880490   221A      0.891956   222A      0.893838  
     223A      0.904566   224A      0.908489   225A      0.911165  
     226A      0.915314   227A      0.919054   228A      0.924905  
     229A      0.932456   230A      0.934729   231A      0.944757  
     232A      0.948496   233A      0.951594   234A      0.960653  
     235A      0.965440   236A      0.974043   237A      0.978303  
     238A      0.991074   239A      0.994386   240A      0.996930  
     241A      1.000880   242A      1.008650   243A      1.024458  
     244A      1.029810   245A      1.031731   246A      1.037100  
     247A      1.039807   248A      1.052801   249A      1.056878  
     250A      1.067276   251A      1.069021   252A      1.069380  
     253A      1.072318   254A      1.075238   255A      1.091293  
     256A      1.102022   257A      1.107630   258A      1.111938  
     259A      1.116213   260A      1.125930   261A      1.134168  
     262A      1.135168   263A      1.136047   264A      1.139531  
     265A      1.145321   266A      1.146853   267A      1.149527  
     268A      1.152150   269A      1.155975   270A      1.165204  
     271A      1.170383   272A      1.173018   273A      1.177662  
     274A      1.181503   275A      1.183011   276A      1.188118  
     277A      1.196065   278A      1.203364   279A      1.208530  
     280A      1.214481   281A      1.219468   282A      1.222283  
     283A      1.226000   284A      1.231544   285A      1.235333  
     286A      1.242461   287A      1.248921   288A      1.251116  
     289A      1.259887   290A      1.262235   291A      1.267591  
     292A      1.272842   293A      1.278398   294A      1.280765  
     295A      1.291581   296A      1.294197   297A      1.298724  
     298A      1.301697   299A      1.309428   300A      1.312261  
     301A      1.318437   302A      1.323012   303A      1.330806  
     304A      1.334904   305A      1.337212   306A      1.345238  
     307A      1.347179   308A      1.351058   309A      1.357255  
     310A      1.360047   311A      1.367363   312A      1.376708  
     313A      1.381087   314A      1.386121   315A      1.389309  
     316A      1.397694   317A      1.405465   318A      1.409246  
     319A      1.415316   320A      1.419912   321A      1.431778  
     322A      1.435247   323A      1.442841   324A      1.446555  
     325A      1.452863   326A      1.460433   327A      1.463939  
     328A      1.469458   329A      1.474823   330A      1.488813  
     331A      1.494966   332A      1.498131   333A      1.504314  
     334A      1.508710   335A      1.515567   336A      1.519664  
     337A      1.526757   338A      1.538908   339A      1.546583  
     340A      1.547150   341A      1.551451   342A      1.555508  
     343A      1.558233   344A      1.562211   345A      1.565966  
     346A      1.569609   347A      1.580727   348A      1.582217  
     349A      1.587472   350A      1.596593   351A      1.602649  
     352A      1.614908   353A      1.618751   354A      1.620715  
     355A      1.631822   356A      1.634370   357A      1.643170  
     358A      1.648741   359A      1.652102   360A      1.659348  
     361A      1.672134   362A      1.679733   363A      1.684859  
     364A      1.697662   365A      1.701119   366A      1.710545  
     367A      1.718312   368A      1.721065   369A      1.731496  
     370A      1.737882   371A      1.744644   372A      1.753424  
     373A      1.755473   374A      1.762454   375A      1.766697  
     376A      1.777671   377A      1.780065   378A      1.781895  
     379A      1.788326   380A      1.792798   381A      1.803794  
     382A      1.809224   383A      1.815853   384A      1.826502  
     385A      1.830052   386A      1.840962   387A      1.852967  
     388A      1.862093   389A      1.870597   390A      1.875551  
     391A      1.884449   392A      1.887118   393A      1.893211  
     394A      1.902886   395A      1.906650   396A      1.914972  
     397A      1.923444   398A      1.933414   399A      1.938867  
     400A      1.945959   401A      1.953564   402A      1.963889  
     403A      1.967311   404A      1.979807   405A      2.002224  
     406A      2.021184   407A      2.027697   408A      2.034280  
     409A      2.042792   410A      2.047696   411A      2.052230  
     412A      2.058141   413A      2.074248   414A      2.075963  
     415A      2.082385   416A      2.088934   417A      2.096077  
     418A      2.103495   419A      2.108232   420A      2.120481  
     421A      2.123675   422A      2.131497   423A      2.135301  
     424A      2.153776   425A      2.161015   426A      2.162442  
     427A      2.185030   428A      2.195004   429A      2.198722  
     430A      2.201456   431A      2.209988   432A      2.214616  
     433A      2.227136   434A      2.242017   435A      2.245242  
     436A      2.250912   437A      2.264301   438A      2.277749  
     439A      2.284189   440A      2.295061   441A      2.312349  
     442A      2.316150   443A      2.331748   444A      2.342568  
     445A      2.349815   446A      2.354606   447A      2.360270  
     448A      2.371035   449A      2.385268   450A      2.392159  
     451A      2.394365   452A      2.399792   453A      2.402996  
     454A      2.404724   455A      2.413433   456A      2.418918  
     457A      2.427695   458A      2.435735   459A      2.443489  
     460A      2.453817   461A      2.469678   462A      2.476145  
     463A      2.478615   464A      2.502858   465A      2.508960  
     466A      2.521660   467A      2.525093   468A      2.530854  
     469A      2.548888   470A      2.551241   471A      2.553320  
     472A      2.561367   473A      2.568236   474A      2.569983  
     475A      2.573808   476A      2.576011   477A      2.586597  
     478A      2.593282   479A      2.603281   480A      2.604954  
     481A      2.610040   482A      2.618772   483A      2.635488  
     484A      2.647126   485A      2.654704   486A      2.660695  
     487A      2.666899   488A      2.692648   489A      2.709586  
     490A      2.760283   491A      2.785474   492A      2.791891  
     493A      2.812030   494A      2.818680   495A      2.830514  
     496A      2.844580   497A      2.853458   498A      2.857175  
     499A      2.865312   500A      2.872414   501A      2.914391  
     502A      2.918339   503A      2.925756   504A      2.946824  
     505A      2.975599   506A      2.990535   507A      3.024564  
     508A      3.061673   509A      3.102295   510A      3.154200  
     511A      3.157150   512A      3.173606   513A      3.177748  
     514A      3.187794   515A      3.245757   516A      3.256424  
     517A      3.284857   518A      3.295934   519A      3.311788  
     520A      3.337770   521A      3.350638   522A      3.358165  
     523A      3.396967   524A      3.408924   525A      3.410750  
     526A      3.429307   527A      3.440591   528A      3.449127  
     529A      3.463025   530A      3.475368   531A      3.477197  
     532A      3.492075   533A      3.506244   534A      3.523154  
     535A      3.538062   536A      3.551397   537A      3.552627  
     538A      3.571797   539A      3.585499   540A      3.593569  
     541A      3.617423   542A      3.644402   543A      3.648664  
     544A      3.655026   545A      3.665587   546A      3.673881  
     547A      3.687388   548A      3.696748   549A      3.700610  
     550A      3.738679   551A      3.781110   552A      3.806329  
     553A      3.810981   554A      3.836768   555A      3.840918  
     556A      3.855774   557A      3.867061   558A      3.869096  
     559A      3.874859   560A      3.882360   561A      3.916409  
     562A      3.921945   563A      3.930435   564A      3.934729  
     565A      3.952008   566A      3.967487   567A      3.975930  
     568A      3.988485   569A      4.000227   570A      4.002390  
     571A      4.007879   572A      4.015162   573A      4.029057  
     574A      4.031176   575A      4.046084   576A      4.056606  
     577A      4.071715   578A      4.077902   579A      4.091223  
     580A      4.100987   581A      4.106280   582A      4.125970  
     583A      4.127810   584A      4.136635   585A      4.150180  
     586A      4.153576   587A      4.160529   588A      4.161691  
     589A      4.169699   590A      4.173583   591A      4.179906  
     592A      4.192958   593A      4.201300   594A      4.210285  
     595A      4.212458   596A      4.217659   597A      4.227055  
     598A      4.237289   599A      4.243193   600A      4.244799  
     601A      4.274447   602A      4.281612   603A      4.288071  
     604A      4.295347   605A      4.308684   606A      4.318104  
     607A      4.322307   608A      4.325805   609A      4.340613  
     610A      4.344395   611A      4.359258   612A      4.373930  
     613A      4.383123   614A      4.390457   615A      4.400983  
     616A      4.413974   617A      4.423775   618A      4.427587  
     619A      4.437006   620A      4.444237   621A      4.452302  
     622A      4.458246   623A      4.461167   624A      4.469872  
     625A      4.474381   626A      4.479514   627A      4.492530  
     628A      4.501710   629A      4.508489   630A      4.519295  
     631A      4.521088   632A      4.528099   633A      4.543367  
     634A      4.561275   635A      4.573925   636A      4.594710  
     637A      4.599242   638A      4.602505   639A      4.612316  
     640A      4.616897   641A      4.622703   642A      4.628501  
     643A      4.637736   644A      4.643327   645A      4.648752  
     646A      4.661154   647A      4.668699   648A      4.681089  
     649A      4.703728   650A      4.718006   651A      4.733828  
     652A      4.739052   653A      4.755844   654A      4.761940  
     655A      4.774160   656A      4.779773   657A      4.797308  
     658A      4.805528   659A      4.816061   660A      4.824163  
     661A      4.892815   662A      4.901249   663A      4.905482  
     664A      4.924503   665A      4.928720   666A      4.944833  
     667A      4.950754   668A      4.969198   669A      4.977658  
     670A      5.004898   671A      5.012472   672A      5.022503  
     673A      5.040598   674A      5.052711   675A      5.053676  
     676A      5.060313   677A      5.083124   678A      5.099069  
     679A      5.112527   680A      5.115477   681A      5.132832  
     682A      5.135189   683A      5.141413   684A      5.143282  
     685A      5.156840   686A      5.165554   687A      5.179832  
     688A      5.182919   689A      5.188496   690A      5.201924  
     691A      5.202741   692A      5.208865   693A      5.211382  
     694A      5.216132   695A      5.218973   696A      5.221248  
     697A      5.238196   698A      5.241978   699A      5.243586  
[...]
    1036A      6.095459  1037A      6.114216  1038A      6.125370  
    1039A      6.133838  1040A      6.144422  1041A      6.161785  
    1042A      6.175390  1043A      6.181980  1044A      6.201952  
    1045A      6.218292  1046A      6.229568  1047A      6.251859  
    1048A      6.260746  1049A      6.280820  1050A      6.284459  
    1051A      6.304433  1052A      6.313503  1053A      6.322543  
    1054A      6.333279  1055A      6.354284  1056A      6.363610  
    1057A      6.377514  1058A      6.390493  1059A      6.397217  
    1060A      6.400395  1061A      6.412300  1062A      6.414568  
    1063A      6.423816  1064A      6.424369  1065A      6.434920  
    1066A      6.439895  1067A      6.444634  1068A      6.457583  
    1069A      6.478338  1070A      6.487678  1071A      6.491087  
    1072A      6.495245  1073A      6.509061  1074A      6.521861  
    1075A      6.523529  1076A      6.534079  1077A      6.550516  
    1078A      6.555437  1079A      6.557274  1080A      6.560764  
    1081A      6.569232  1082A      6.576826  1083A      6.579878  
    1084A      6.604115  1085A      6.607527  1086A      6.632330  
    1087A      6.640173  1088A      6.642789  1089A      6.685266  
    1090A      6.689086  1091A      6.696359  1092A      6.703889  
    1093A      6.716152  1094A      6.718115  1095A      6.737556  
    1096A      6.739287  1097A      6.744161  1098A      6.747858  
    1099A      6.784425  1100A      6.787429  1101A      6.790745  
    1102A      6.798677  1103A      6.812326  1104A      6.818506  
    1105A      6.824553  1106A      6.835089  1107A      6.838815  
    1108A      6.840049  1109A      6.850473  1110A      6.859422  
    1111A      6.873681  1112A      6.875749  1113A      6.881008  
    1114A      6.894166  1115A      6.894276  1116A      6.906113  
    1117A      6.911911  1118A      6.921873  1119A      6.928264  
    1120A      6.935059  1121A      6.945526  1122A      6.961423  
    1123A      6.963766  1124A      6.970355  1125A      6.973620  
    1126A      6.975946  1127A      6.979883  1128A      6.989034  
    1129A      6.989174  1130A      6.999445  1131A      7.010601  
    1132A      7.011947  1133A      7.015391  1134A      7.023093  
    1135A      7.029856  1136A      7.034105  1137A      7.035819  
    1138A      7.036030  1139A      7.049183  1140A      7.055658  
    1141A      7.060253  1142A      7.065178  1143A      7.068499  
    1144A      7.073846  1145A      7.080252  1146A      7.095392  
    1147A      7.126058  1148A      7.128373  1149A      7.136558  
    1150A      7.139453  1151A      7.148600  1152A      7.169263  
    1153A      7.173770  1154A      7.179073  1155A      7.179927  
    1156A      7.187460  1157A      7.189288  1158A      7.195802  
    1159A      7.202085  1160A      7.203863  1161A      7.208430  
    1162A      7.213995  1163A      7.218703  1164A      7.225327  
    1165A      7.241746  1166A      7.242416  1167A      7.251896  
    1168A      7.261080  1169A      7.262898  1170A      7.264141  
    1171A      7.277780  1172A      7.281739  1173A      7.285887  
    1174A      7.299131  1175A      7.301061  1176A      7.304522  
    1177A      7.307136  1178A      7.313114  1179A      7.319223  
    1180A      7.335753  1181A      7.340722  1182A      7.348276  
    1183A      7.356880  1184A      7.359175  1185A      7.360276  
    1186A      7.367325  1187A      7.425274  1188A      7.426101  
    1189A      7.435644  1190A      7.435780  1191A      7.442063  
    1192A      7.444941  1193A      7.447148  1194A      7.451009  
    1195A      7.468736  1196A      7.476166  1197A      7.489065  
    1198A      7.493612  1199A      7.495466  1200A      7.505986  
    1201A      7.518193  1202A      7.520900  1203A      7.551127  
    1204A      7.554379  1205A      7.555358  1206A      7.559432  
    1207A      7.611488  1208A      7.620397  1209A      7.622754  
    1210A      7.624915  1211A      7.626969  1212A      7.628137  
    1213A      7.644405  1214A      7.646435  1215A      7.651286  
    1216A      7.652150  1217A      7.681109  1218A      7.690496  
    1219A      7.708494  1220A      7.733135  1221A      7.743679  
    1222A      7.745815  1223A      7.753978  1224A      7.758776  
    1225A      7.771696  1226A      7.781300  1227A      7.796074  
    1228A      7.797839  1229A      7.803826  1230A      7.804760  
    1231A      7.820642  1232A      7.822178  1233A      7.863920  
    1234A      7.878969  1235A      7.888558  1236A      7.891295  
    1237A      7.897545  1238A      7.904380  1239A      7.907902  
    1240A      7.909981  1241A      7.924885  1242A      7.974864  
    1243A      7.981157  1244A      7.982267  1245A      7.984511  
    1246A      7.984808  1247A      7.992440  1248A      8.005788  
    1249A      8.039230  1250A      8.039780  1251A      8.043450  
    1252A      8.055858  1253A      8.063273  1254A      8.068642  
    1255A      8.077335  1256A      8.077865  1257A      8.087317  
    1258A      8.088454  1259A      8.089276  1260A      8.106404  
    1261A      8.114041  1262A      8.127692  1263A      8.136906  
    1264A      8.165668  1265A      8.243743  1266A      8.246398  
    1267A      8.252565  1268A      8.274325  1269A      8.282399  
    1270A      8.283800  1271A      8.285792  1272A      8.289825  
    1273A      8.326988  1274A      8.330385  1275A      8.332078  
    1276A      8.334102  1277A      8.368794  1278A      8.372821  
    1279A      8.383254  1280A      8.383336  1281A      8.395074  
    1282A      8.399589  1283A      8.404040  1284A      8.418382  
    1285A      8.424305  1286A      8.426571  1287A      8.482203  
    1288A      8.482649  1289A      8.485812  1290A      8.488926  
    1291A      8.492899  1292A      8.500988  1293A      8.503353  
    1294A      8.503777  1295A      8.586123  1296A      8.639148  
    1297A      8.683410  1298A      8.695152  1299A      8.726195  
    1300A      8.728654  1301A      8.730916  1302A      8.736426  
    1303A      8.738811  1304A      8.747185  1305A      8.751835  
    1306A      8.759745  1307A      8.767140  1308A      8.773887  
    1309A      8.790236  1310A      8.798525  1311A      8.805626  
    1312A      8.810673  1313A      8.820400  1314A      8.822530  
    1315A      8.824453  1316A      8.827377  1317A      8.854840  
    1318A      8.867615  1319A      8.904034  1320A      8.913077  
    1321A      8.919300  1322A      8.925868  1323A      8.953979  
    1324A      8.960730  1325A      8.962046  1326A      8.970096  
    1327A      8.970306  1328A      8.974980  1329A      9.008111  
    1330A      9.017192  1331A      9.039708  1332A      9.049715  
    1333A      9.066583  1334A      9.071146  1335A      9.076758  
    1336A      9.093185  1337A      9.093556  1338A      9.100786  
    1339A      9.119345  1340A      9.128625  1341A      9.130228  
    1342A      9.131431  1343A      9.142684  1344A      9.153555  
    1345A      9.159135  1346A      9.160515  1347A      9.175704  
    1348A      9.180254  1349A      9.183945  1350A      9.189202  
    1351A      9.311200  1352A      9.313931  1353A      9.355151  
    1354A      9.356199  1355A      9.382633  1356A      9.386323  
    1357A      9.440475  1358A      9.442517  1359A      9.460439  
    1360A      9.465140  1361A      9.487524  1362A      9.500933  
    1363A      9.504626  1364A      9.509299  1365A      9.514584  
    1366A      9.526751  1367A      9.550053  1368A      9.557362  
    1369A      9.566546  1370A      9.575748  1371A      9.586753  
    1372A      9.590810  1373A      9.599684  1374A      9.602333  
    1375A      9.637898  1376A      9.639242  1377A      9.652047  
    1378A      9.653641  1379A      9.653977  1380A      9.664078  
    1381A      9.664908  1382A      9.669310  1383A      9.671981  
    1384A      9.673969  1385A      9.706730  1386A      9.710180  
    1387A      9.761491  1388A      9.774264  1389A      9.776983  
    1390A      9.780069  1391A      9.884453  1392A      9.884779  
    1393A      9.887761  1394A      9.890613  1395A      9.920333  
    1396A      9.928383  1397A      9.931838  1398A      9.942056  
    1399A      9.950150  1400A      9.953929  1401A     10.090794  
    1402A     10.094118  1403A     10.100408  1404A     10.105012  
    1405A     10.113426  1406A     10.121945  1407A     10.128852  
    1408A     10.139281  1409A     10.146467  1410A     10.157716  
    1411A     10.160831  1412A     10.161186  1413A     10.170938  
    1414A     10.213607  1415A     10.279964  1416A     10.280411  
    1417A     10.290837  1418A     10.308802  1419A     10.315755  
    1420A     10.328755  1421A     10.340049  1422A     10.343352  
    1423A     10.363142  1424A     10.379059  1425A     10.382783  
    1426A     10.387075  1427A     10.402188  1428A     10.403536  
    1429A     10.440497  1430A     10.449842  1431A     10.460455  
    1432A     10.467072  1433A     10.494206  1434A     10.495119  
    1435A     10.500329  1436A     10.500395  1437A     10.591750  
    1438A     10.592305  1439A     10.598871  1440A     10.600417  
    1441A     10.636068  1442A     10.636298  1443A     10.749847  
    1444A     10.767112  1445A     10.778343  1446A     10.785944  
    1447A     10.841916  1448A     10.842422  1449A     10.853761  
    1450A     10.860541  1451A     10.862345  1452A     10.866769  
    1453A     10.879965  1454A     10.885671  1455A     10.929391  
    1456A     10.931870  1457A     10.942657  1458A     10.948009  
    1459A     10.951149  1460A     10.953341  1461A     11.089349  
    1462A     11.091652  1463A     11.105485  1464A     11.106986  
    1465A     11.146634  1466A     11.152246  1467A     11.159884  
    1468A     11.161491  1469A     11.418256  1470A     11.435291  
    1471A     11.511604  1472A     11.512142  1473A     11.520779  
    1474A     11.524337  1475A     11.538867  1476A     11.541829  
    1477A     11.775390  1478A     11.779777  1479A     11.786669  
    1480A     11.799220  1481A     11.815384  1482A     11.823810  
    1483A     11.865938  1484A     11.868582  1485A     11.877309  
    1486A     11.900524  1487A     12.522446  1488A     12.522801  
    1489A     13.234485  1490A     13.254037  1491A     13.384614  
    1492A     13.400670  1493A     13.404108  1494A     13.410761  
    1495A     13.544168  1496A     13.559821  1497A     13.561538  
    1498A     13.572360  1499A     13.804453  1500A     13.805534  
    1501A     26.253254  1502A     26.319546  1503A     26.327072  
    1504A     26.359565  1505A     26.801771  1506A     26.817076  
    1507A     26.911199  1508A     26.930703  1509A     27.281666  
    1510A     27.310084  1511A     27.323053  1512A     27.324289  

    Final Occupation by Irrep:
              A 
    DOCC [    42 ]

  @DF-RHF Final Energy:  -461.58063385635779

   => Energetics <=

    Nuclear Repulsion Energy =            629.0617018994681757
    One-Electron Energy =               -1871.5624039151816760
    Two-Electron Energy =                 780.9200681593558784
    Total Energy =                       -461.5806338563577356

Computation Completed


Properties will be evaluated at   0.000000,   0.000000,   0.000000 [a0]

Properties computed using the SCF density matrix

  Nuclear Dipole Moment: [e a0]
     X:     0.0001      Y:    -0.0000      Z:    -0.0002

  Electronic Dipole Moment: [e a0]
     X:    -0.0001      Y:     0.0000      Z:     0.0000

  Dipole Moment: [e a0]
     X:     0.0000      Y:     0.0000      Z:    -0.0002     Total:     0.0002

  Dipole Moment: [D]
     X:     0.0001      Y:     0.0000      Z:    -0.0005     Total:     0.0005


*** tstop() called on node59.bme.utexas.edu at Sat Apr 11 20:15:32 2020
Module time:
	user time   =    3052.05 seconds =      50.87 minutes
	system time =      18.79 seconds =       0.31 minutes
	total time  =        402 seconds =       6.70 minutes
Total time:
	user time   =   11612.59 seconds =     193.54 minutes
	system time =     125.35 seconds =       2.09 minutes
	total time  =       1624 seconds =      27.07 minutes

*** tstart() called on node59.bme.utexas.edu
*** at Sat Apr 11 20:15:32 2020


  //>>>>>>>>>>>>>>>>>>>>>>>>>>>>>>>>>>>//
  //               DFMP2               //
  //<<<<<<<<<<<<<<<<<<<<<<<<<<<<<<<<<<<//

   => Loading Basis Set <=

    Name: (AUG-CC-PVQZ AUX)
    Role: RIFIT
    Keyword: DF_BASIS_MP2
    atoms 1, 3, 5, 7, 9, 11, 13, 15, 17, 19, 21, 23  entry C          line   184 file /home/liuchw/anaconda3/envs/psi4env/share/psi4/basis/aug-cc-pvqz-ri.gbs 
    atoms 2, 4, 6, 8, 10, 12, 14, 16, 18, 20, 22, 24 entry H          line    30 file /home/liuchw/anaconda3/envs/psi4env/share/psi4/basis/aug-cc-pvqz-ri.gbs 

	 --------------------------------------------------------
	                          DF-MP2                         
	      2nd-Order Density-Fitted Moller-Plesset Theory     
	              RMP2 Wavefunction,   8 Threads             
	                                                         
	        Rob Parrish, Justin Turney, Andy Simmonett,      
	           Ed Hohenstein, and C. David Sherrill          
	 --------------------------------------------------------

   => Auxiliary Basis Set <=

  Basis Set: (AUG-CC-PVQZ AUX)
    Blend: AUG-CC-PVQZ-RI
    Number of shells: 672
    Number of basis function: 2976
    Number of Cartesian functions: 4104
    Spherical Harmonics?: true
    Max angular momentum: 5

	 --------------------------------------------------------
	                 NBF =  1512, NAUX =  2976
	 --------------------------------------------------------
	   CLASS    FOCC     OCC    AOCC    AVIR     VIR    FVIR
	   PAIRS       0      42      42    1470    1470       0
	 --------------------------------------------------------

	-----------------------------------------------------------
	 ==================> DF-MP2 Energies <==================== 
	-----------------------------------------------------------
	 Reference Energy          =    -461.5806338563577924 [Eh]
	 Singles Energy            =      -0.0000000000000000 [Eh]
	 Same-Spin Energy          =      -0.5476304628420756 [Eh]
	 Opposite-Spin Energy      =      -1.8463025421322365 [Eh]
	 Correlation Energy        =      -2.3939330049743122 [Eh]
	 Total Energy              =    -463.9745668613321072 [Eh]
	-----------------------------------------------------------
	 ================> DF-SCS-MP2 Energies <================== 
	-----------------------------------------------------------
	 SCS Same-Spin Scale       =       0.3333333333333333 [-]
	 SCS Opposite-Spin Scale   =       1.2000000000000000 [-]
	 SCS Same-Spin Energy      =      -0.1825434876140252 [Eh]
	 SCS Opposite-Spin Energy  =      -2.2155630505586839 [Eh]
	 SCS Correlation Energy    =      -2.3981065381727089 [Eh]
	 SCS Total Energy          =    -463.9787403945305186 [Eh]
	-----------------------------------------------------------


*** tstop() called on node59.bme.utexas.edu at Sat Apr 11 20:18:12 2020
Module time:
	user time   =    1070.11 seconds =      17.84 minutes
	system time =      11.29 seconds =       0.19 minutes
	total time  =        160 seconds =       2.67 minutes
Total time:
	user time   =   12682.70 seconds =     211.38 minutes
	system time =     136.64 seconds =       2.28 minutes
	total time  =       1784 seconds =      29.73 minutes

  //>>>>>>>>>>>>>>>>>>>>>>>>>>>>>>>>>>>//
  //  CBS Results: mp2/aug-cc-pv[tq]z  //
  //<<<<<<<<<<<<<<<<<<<<<<<<<<<<<<<<<<<//


   ==> HF <==

   HI-zeta (4) Energy:               -461.580633856358


   ==> Helgaker 2-point correlated extrapolation for method: MP2 <==

   LO-zeta (3) Energy:               -463.722521746892
   HI-zeta (4) Energy:               -463.974566861332
   Alpha (exponent) Value:             3.000000000000
   Extrapolated Energy:              -464.158491674573

   @Extrapolated MP2/(T,Q):          -464.158491674573



   ==> Helgaker 2-point correlated extrapolation for method: HF <==

   LO-zeta (3) Energy:               -461.554560949053
   HI-zeta (4) Energy:               -461.580633856358
   Alpha (exponent) Value:             3.000000000000
   Extrapolated Energy:              -461.599660031959

   @Extrapolated HF/(T,Q):           -461.599660031959


   ==> Components <==

  ---------------------------------------------------------------------------------------------------------
                          Method / Basis                      Rqd      Energy [Eh]   Variable
  ---------------------------------------------------------------------------------------------------------
                              hf / aug-cc-pvtz                  *    -461.55456095   HF TOTAL ENERGY
                             mp2 / aug-cc-pvtz                  *    -463.72252175   MP2 TOTAL ENERGY
                              hf / aug-cc-pvqz                  *    -461.58063386   HF TOTAL ENERGY
                             mp2 / aug-cc-pvqz                  *    -463.97456686   MP2 TOTAL ENERGY
  ---------------------------------------------------------------------------------------------------------

   ==> Stages <==

  ---------------------------------------------------------------------------------------------------------
      Stage               Method / Basis                       Wt      Energy [Eh]   Scheme
  ---------------------------------------------------------------------------------------------------------
        scf                   hf / aug-cc-pvqz                  1    -461.58063386   xtpl_highest_1
       corl                  mp2 / aug-cc-pv[tq]z               1    -464.15849167   corl_xtpl_helgaker_2
       corl                   hf / aug-cc-pv[tq]z              -1    -461.59966003   corl_xtpl_helgaker_2
  ---------------------------------------------------------------------------------------------------------

   ==> CBS <==

  ---------------------------------------------------------------------------------------------------------
      Stage               Method / Basis                               Energy [Eh]   Scheme
  ---------------------------------------------------------------------------------------------------------
        scf                   hf / aug-cc-pvqz                       -461.58063386   xtpl_highest_1
       corl                  mp2 / aug-cc-pv[tq]z                      -2.55883164   corl_xtpl_helgaker_2
      total                  CBS                                     -464.13946550   
  ---------------------------------------------------------------------------------------------------------
   => Loading Basis Set <=

    Name: DEF2-SVP
    Role: ORBITAL
    Keyword: BASIS
    atoms 1, 3, 5, 7, 9, 11, 13, 15, 17, 19, 21, 23  entry C          line    90 file /home/liuchw/anaconda3/envs/psi4env/share/psi4/basis/def2-svp.gbs 
    atoms 2, 4, 6, 8, 10, 12, 14, 16, 18, 20, 22, 24 entry H          line    15 file /home/liuchw/anaconda3/envs/psi4env/share/psi4/basis/def2-svp.gbs 


       N-Body: Complex Energy (fragments = (1, 2), basis = (1, 2):  -464.13946549897150)

   ==> N-Body: Counterpoise Corrected (CP) energies <==

   n-Body     Total Energy [Eh]       I.E. [kcal/mol]      Delta [kcal/mol]
        1     -464.132023509396        0.000000000000        0.000000000000
        2     -464.139968929895       -4.985826636714       -4.985826636714

   => Loading Basis Set <=

    Name: DEF2-SVP
    Role: ORBITAL
    Keyword: BASIS
    atoms 1, 3, 5, 7, 9, 11, 13, 15, 17, 19, 21, 23  entry C          line    90 file /home/liuchw/anaconda3/envs/psi4env/share/psi4/basis/def2-svp.gbs 
    atoms 2, 4, 6, 8, 10, 12, 14, 16, 18, 20, 22, 24 entry H          line    15 file /home/liuchw/anaconda3/envs/psi4env/share/psi4/basis/def2-svp.gbs 


    Psi4 stopped on: Saturday, 11 April 2020 08:18PM
    Psi4 wall time for execution: 0:29:45.44

*** Psi4 exiting successfully. Buy a developer a beer!
