
    -----------------------------------------------------------------------
          Psi4: An Open-Source Ab Initio Electronic Structure Package
                               Psi4 1.4a2.dev224 

                         Git: Rev {master} e453b16 


    R. M. Parrish, L. A. Burns, D. G. A. Smith, A. C. Simmonett,
    A. E. DePrince III, E. G. Hohenstein, U. Bozkaya, A. Yu. Sokolov,
    R. Di Remigio, R. M. Richard, J. F. Gonthier, A. M. James,
    H. R. McAlexander, A. Kumar, M. Saitow, X. Wang, B. P. Pritchard,
    P. Verma, H. F. Schaefer III, K. Patkowski, R. A. King, E. F. Valeev,
    F. A. Evangelista, J. M. Turney, T. D. Crawford, and C. D. Sherrill,
    J. Chem. Theory Comput. 13(7) pp 3185--3197 (2017).
    (doi: 10.1021/acs.jctc.7b00174)


                         Additional Contributions by
    P. Kraus, H. Kruse, M. H. Lechner, M. C. Schieber, R. A. Shaw,
    A. Alenaizan, R. Galvelis, Z. L. Glick, S. Lehtola, and J. P. Misiewicz

    -----------------------------------------------------------------------


    Psi4 started on: Saturday, 11 April 2020 06:36PM

    Process ID: 92615
    Host:       node52.bme.utexas.edu
    PSIDATADIR: /home/liuchw/anaconda3/envs/psi4env/share/psi4
    Memory:     500.0 MiB
    Threads:    6
    
  ==> Input File <==

--------------------------------------------------------------------------
#Generated by lconvert.py for cbs job

memory 40 GB

molecule  {
0 1
  N        1.5724810     0.2545490    -0.2564810
  C        0.9693600    -0.9031600     0.0445260
  H        1.6136390    -1.7721810     0.1023450
  C       -0.3981580    -1.0288190     0.2809600
  H       -0.8184250    -1.9917370     0.5335640
  C       -1.1958050     0.1065580     0.1953970
  H       -2.2606900     0.0495390     0.3734430
  C       -0.5871280     1.3174120    -0.1201050
  H       -1.1618120     2.2295000    -0.2004630
  C        0.7885470     1.3397060    -0.3322410
  H        1.2884320     2.2687940    -0.5785270
--
0 1
  N       -0.4839560    -1.4736330     3.4097390
  C       -1.4164350    -0.5130040     3.4835900
  H       -2.4192240    -0.8439590     3.7257830
  C       -1.1544320     0.8380640     3.2742110
  H       -1.9529890     1.5625700     3.3524820
  C        0.1449960     1.2273060     2.9639420
  H        0.3869800     2.2663040     2.7880710
  C        1.1245550     0.2444080     2.8805810
  H        2.1468560     0.4911530     2.6321440
  C        0.7620750    -1.0807300     3.1137740
  H        1.5059360    -1.8662850     3.0573250
units angstrom
no_reorient
symmetry c1
}

set {
scf_type DF
mp2_type DF
e_convergence 7
reference rhf
}

energy('mp2/aug-cc-pv[tq]z', bsse_type='cp')
--------------------------------------------------------------------------

  Memory set to  37.253 GiB by Python driver.

Scratch directory: /scratch//


   ===> N-Body Interaction Abacus <===
        BSSE Treatment:                     cp
        Number of 1-body computations:     4
        Number of 2-body computations:     1

   ==> N-Body: Now computing 1-body complexes <==


       N-Body: Computing complex (1/4) with fragments (2,) in the basis of fragments (2,).


Scratch directory: /scratch//

  //>>>>>>>>>>>>>>>>>>>>>>>>>>>>>>>>>>>//
  //   CBS Setup: mp2/aug-cc-pv[tq]z   //
  //<<<<<<<<<<<<<<<<<<<<<<<<<<<<<<<<<<<//

    Naive listing of computations required.
             hf / aug-cc-pvqz              for  HF TOTAL ENERGY
            mp2 / aug-cc-pvtz              for  MP2 TOTAL ENERGY
            mp2 / aug-cc-pvqz              for  MP2 TOTAL ENERGY
             hf / aug-cc-pvtz              for  HF TOTAL ENERGY
             hf / aug-cc-pvqz              for  HF TOTAL ENERGY

    Enlightened listing of computations required.
            mp2 / aug-cc-pvtz              for  MP2 TOTAL ENERGY
            mp2 / aug-cc-pvqz              for  MP2 TOTAL ENERGY

    Full listing of computations to be obtained (required and bonus).
             hf / aug-cc-pvtz              for  HF TOTAL ENERGY
            mp2 / aug-cc-pvtz              for  MP2 TOTAL ENERGY
             hf / aug-cc-pvqz              for  HF TOTAL ENERGY
            mp2 / aug-cc-pvqz              for  MP2 TOTAL ENERGY

  //>>>>>>>>>>>>>>>>>>>>>>>>>>>>>>>>>>>>//
  // CBS Computation: MP2 / AUG-CC-PVTZ //
  //<<<<<<<<<<<<<<<<<<<<<<<<<<<<<<<<<<<<//


Scratch directory: /scratch//

*** tstart() called on node52.bme.utexas.edu
*** at Sat Apr 11 18:36:18 2020

   => Loading Basis Set <=

    Name: AUG-CC-PVTZ
    Role: ORBITAL
    Keyword: BASIS
    atoms 1              entry N          line   285 file /home/liuchw/anaconda3/envs/psi4env/share/psi4/basis/aug-cc-pvtz.gbs 
    atoms 2, 4, 6, 8, 10 entry C          line   239 file /home/liuchw/anaconda3/envs/psi4env/share/psi4/basis/aug-cc-pvtz.gbs 
    atoms 3, 5, 7, 9, 11 entry H          line    40 file /home/liuchw/anaconda3/envs/psi4env/share/psi4/basis/aug-cc-pvtz.gbs 


         ---------------------------------------------------------
                                   SCF
               by Justin Turney, Rob Parrish, Andy Simmonett
                          and Daniel G. A. Smith
                              RHF Reference
                        6 Threads,  38146 MiB Core
         ---------------------------------------------------------

  ==> Geometry <==

    Molecular point group: c1
    Full point group: C1

    Geometry (in Angstrom), charge = 0, multiplicity = 1:

       Center              X                  Y                   Z               Mass       
    ------------   -----------------  -----------------  -----------------  -----------------
         N           -0.496665800581    -1.498394439685     1.831590732187    14.003074004430
         C           -1.429144800581    -0.537765439685     1.905441732187    12.000000000000
         H           -2.431933800581    -0.868720439685     2.147634732187     1.007825032230
         C           -1.167141800581     0.813302560315     1.696062732187    12.000000000000
         H           -1.965698800581     1.537808560315     1.774333732187     1.007825032230
         C            0.132286199419     1.202544560315     1.385793732187    12.000000000000
         H            0.374270199419     2.241542560315     1.209922732187     1.007825032230
         C            1.111845199419     0.219646560315     1.302432732187    12.000000000000
         H            2.134146199419     0.466391560315     1.053995732187     1.007825032230
         C            0.749365199419    -1.105491439685     1.535625732187    12.000000000000
         H            1.493226199419    -1.891046439685     1.479176732187     1.007825032230

  Running in c1 symmetry.

  Rotational constants: A =      0.11021  B =      0.05718  C =      0.05407 [cm^-1]
  Rotational constants: A =   3303.94917  B =   1714.25318  C =   1620.83001 [MHz]
  Nuclear repulsion =  206.227494131204310

  Charge       = 0
  Multiplicity = 1
  Electrons    = 42
  Nalpha       = 21
  Nbeta        = 21

  ==> Algorithm <==

  SCF Algorithm Type is DF.
  DIIS enabled.
  MOM disabled.
  Fractional occupation disabled.
  Guess Type is SAD.
  Energy threshold   = 1.00e-07
  Density threshold  = 1.00e-08
  Integral threshold = 0.00e+00

  ==> Primary Basis <==

  Basis Set: AUG-CC-PVTZ
    Blend: AUG-CC-PVTZ
    Number of shells: 129
    Number of basis function: 391
    Number of Cartesian functions: 455
    Spherical Harmonics?: true
    Max angular momentum: 3

   => Loading Basis Set <=

    Name: (AUG-CC-PVTZ AUX)
    Role: JKFIT
    Keyword: DF_BASIS_SCF
    atoms 1              entry N          line   224 file /home/liuchw/anaconda3/envs/psi4env/share/psi4/basis/aug-cc-pvtz-jkfit.gbs 
    atoms 2, 4, 6, 8, 10 entry C          line   162 file /home/liuchw/anaconda3/envs/psi4env/share/psi4/basis/aug-cc-pvtz-jkfit.gbs 
    atoms 3, 5, 7, 9, 11 entry H          line    70 file /home/liuchw/anaconda3/envs/psi4env/share/psi4/basis/aug-cc-pvtz-jkfit.gbs 

  ==> Pre-Iterations <==

   -------------------------------------------------------
    Irrep   Nso     Nmo     Nalpha   Nbeta   Ndocc  Nsocc
   -------------------------------------------------------
     A        391     391       0       0       0       0
   -------------------------------------------------------
    Total     391     391      21      21      21       0
   -------------------------------------------------------

  ==> Integral Setup <==

  DFHelper Memory: AOs need 1.008 GiB; user supplied 27.940 GiB. Using in-core AOs.

  ==> MemDFJK: Density-Fitted J/K Matrices <==

    J tasked:                   Yes
    K tasked:                   Yes
    wK tasked:                   No
    OpenMP threads:               6
    Memory [MiB]:             28610
    Algorithm:                 Core
    Schwarz Cutoff:           1E-12
    Mask sparsity (%):       0.8477
    Fitting Condition:        1E-10

   => Auxiliary Basis Set <=

  Basis Set: (AUG-CC-PVTZ AUX)
    Blend: AUG-CC-PVTZ-JKFIT
    Number of shells: 250
    Number of basis function: 854
    Number of Cartesian functions: 1061
    Spherical Harmonics?: true
    Max angular momentum: 4

  Minimum eigenvalue in the overlap matrix is 2.3241746921E-06.
  Using Symmetric Orthogonalization.

  SCF Guess: Superposition of Atomic Densities via on-the-fly atomic UHF.

  ==> Iterations <==

                           Total Energy        Delta E     RMS |[F,P]|

   @DF-RHF iter SAD:  -246.15765242583876   -2.46158e+02   0.00000e+00 
   @DF-RHF iter   1:  -246.63323857576773   -4.75586e-01   1.26067e-03 DIIS
   @DF-RHF iter   2:  -246.75325948294090   -1.20021e-01   5.77344e-04 DIIS
   @DF-RHF iter   3:  -246.77718015459573   -2.39207e-02   1.11563e-04 DIIS
   @DF-RHF iter   4:  -246.77855789067493   -1.37774e-03   3.21711e-05 DIIS
   @DF-RHF iter   5:  -246.77863542962726   -7.75390e-05   1.07092e-05 DIIS
   @DF-RHF iter   6:  -246.77864583195884   -1.04023e-05   2.41625e-06 DIIS
   @DF-RHF iter   7:  -246.77864655875524   -7.26796e-07   8.33057e-07 DIIS
   @DF-RHF iter   8:  -246.77864664572280   -8.69676e-08   3.42726e-07 DIIS
   @DF-RHF iter   9:  -246.77864666953155   -2.38088e-08   9.28435e-08 DIIS
   @DF-RHF iter  10:  -246.77864667209454   -2.56298e-09   3.40003e-08 DIIS
   @DF-RHF iter  11:  -246.77864667257600   -4.81464e-10   2.02326e-08 DIIS
   @DF-RHF iter  12:  -246.77864667271240   -1.36396e-10   6.89115e-09 DIIS
  Energy and wave function converged.


  ==> Post-Iterations <==

    Orbital Energies [Eh]
    ---------------------

    Doubly Occupied:                                                      

       1A    -15.567581     2A    -11.275589     3A    -11.275513  
       4A    -11.260755     5A    -11.242648     6A    -11.242592  
       7A     -1.257091     8A     -1.090480     9A     -1.033918  
      10A     -0.859872    11A     -0.856217    12A     -0.722314  
      13A     -0.660963    14A     -0.654668    15A     -0.598484  
      16A     -0.577722    17A     -0.541552    18A     -0.520259  
      19A     -0.420221    20A     -0.384484    21A     -0.348102  

    Virtual:                                                              

      22A      0.026106    23A      0.033282    24A      0.037765  
      25A      0.048808    26A      0.053330    27A      0.077947  
      28A      0.090976    29A      0.100308    30A      0.102068  
      31A      0.104065    32A      0.108742    33A      0.109328  
      34A      0.110362    35A      0.116648    36A      0.118685  
      37A      0.128975    38A      0.130974    39A      0.141817  
      40A      0.148417    41A      0.150808    42A      0.152150  
      43A      0.157347    44A      0.158487    45A      0.196721  
      46A      0.223316    47A      0.241132    48A      0.242646  
      49A      0.243634    50A      0.254285    51A      0.256808  
      52A      0.270010    53A      0.272391    54A      0.285181  
      55A      0.291419    56A      0.292257    57A      0.303985  
      58A      0.306082    59A      0.322039    60A      0.326951  
      61A      0.334226    62A      0.339848    63A      0.341401  
      64A      0.352517    65A      0.354250    66A      0.373634  
      67A      0.384910    68A      0.400291    69A      0.409612  
      70A      0.419779    71A      0.429140    72A      0.432234  
      73A      0.433336    74A      0.439359    75A      0.441382  
      76A      0.451714    77A      0.460352    78A      0.464782  
      79A      0.471093    80A      0.476270    81A      0.480287  
      82A      0.490392    83A      0.494121    84A      0.496983  
      85A      0.510241    86A      0.523478    87A      0.535378  
      88A      0.541683    89A      0.541945    90A      0.543733  
      91A      0.561286    92A      0.588913    93A      0.615355  
      94A      0.615810    95A      0.621335    96A      0.624876  
      97A      0.635075    98A      0.649299    99A      0.651041  
     100A      0.652257   101A      0.672352   102A      0.695529  
     103A      0.710077   104A      0.713900   105A      0.732236  
     106A      0.740565   107A      0.767336   108A      0.770760  
     109A      0.775148   110A      0.779576   111A      0.793986  
     112A      0.800582   113A      0.816515   114A      0.834084  
     115A      0.836234   116A      0.845541   117A      0.848907  
     118A      0.863415   119A      0.882644   120A      0.883053  
     121A      0.885997   122A      0.888088   123A      0.902518  
     124A      0.924320   125A      0.931225   126A      0.937281  
     127A      0.949527   128A      0.952095   129A      0.955654  
     130A      0.959246   131A      0.986018   132A      0.989440  
     133A      1.005817   134A      1.007577   135A      1.014481  
     136A      1.041994   137A      1.044738   138A      1.063638  
     139A      1.070391   140A      1.072306   141A      1.075161  
     142A      1.081223   143A      1.086574   144A      1.088689  
     145A      1.111588   146A      1.112631   147A      1.140943  
     148A      1.152395   149A      1.167666   150A      1.170384  
     151A      1.175264   152A      1.185000   153A      1.186393  
     154A      1.186980   155A      1.194142   156A      1.197971  
     157A      1.209772   158A      1.221789   159A      1.226542  
     160A      1.239616   161A      1.267670   162A      1.274507  
     163A      1.281481   164A      1.288025   165A      1.292073  
     166A      1.297298   167A      1.351135   168A      1.374177  
     169A      1.402814   170A      1.423946   171A      1.443687  
     172A      1.447026   173A      1.460412   174A      1.496136  
     175A      1.504485   176A      1.511053   177A      1.519595  
     178A      1.536152   179A      1.540289   180A      1.588277  
     181A      1.596601   182A      1.627731   183A      1.630708  
     184A      1.667815   185A      1.687696   186A      1.693210  
     187A      1.709731   188A      1.713216   189A      1.717719  
     190A      1.742232   191A      1.757739   192A      1.778684  
     193A      1.788262   194A      1.801861   195A      1.826868  
     196A      1.834974   197A      1.845692   198A      1.855916  
     199A      1.872393   200A      1.882873   201A      1.890640  
     202A      1.912283   203A      1.948828   204A      1.959921  
     205A      1.961799   206A      1.963053   207A      2.014134  
     208A      2.023070   209A      2.025850   210A      2.038966  
     211A      2.039454   212A      2.040598   213A      2.069859  
     214A      2.083898   215A      2.095825   216A      2.130252  
     217A      2.145199   218A      2.158027   219A      2.161217  
     220A      2.162238   221A      2.213919   222A      2.218111  
     223A      2.248832   224A      2.252542   225A      2.295282  
     226A      2.313367   227A      2.359893   228A      2.374500  
     229A      2.384711   230A      2.408231   231A      2.429356  
     232A      2.435523   233A      2.449374   234A      2.509687  
     235A      2.536633   236A      2.541642   237A      2.585282  
     238A      2.650248   239A      2.657038   240A      2.671183  
     241A      2.674989   242A      2.805960   243A      2.810825  
     244A      2.820244   245A      2.912282   246A      2.922529  
     247A      2.974402   248A      2.982957   249A      3.047822  
     250A      3.049026   251A      3.135865   252A      3.160268  
     253A      3.161114   254A      3.248242   255A      3.259683  
     256A      3.303786   257A      3.310397   258A      3.317373  
     259A      3.348691   260A      3.357192   261A      3.386024  
     262A      3.404865   263A      3.408906   264A      3.428802  
     265A      3.431464   266A      3.452078   267A      3.474562  
     268A      3.493906   269A      3.533772   270A      3.540647  
     271A      3.551049   272A      3.565049   273A      3.566183  
     274A      3.579906   275A      3.637807   276A      3.653072  
     277A      3.687310   278A      3.702745   279A      3.710337  
     280A      3.730562   281A      3.761841   282A      3.773071  
     283A      3.773501   284A      3.819918   285A      3.838181  
     286A      3.859691   287A      3.863856   288A      3.875736  
     289A      3.894825   290A      3.921101   291A      3.923407  
     292A      3.954318   293A      3.971918   294A      3.990823  
     295A      3.996591   296A      4.034364   297A      4.043483  
     298A      4.067347   299A      4.088475   300A      4.098155  
     301A      4.126857   302A      4.127908   303A      4.135943  
     304A      4.144530   305A      4.170662   306A      4.205263  
     307A      4.224278   308A      4.226751   309A      4.227784  
     310A      4.265707   311A      4.274010   312A      4.331172  
     313A      4.370815   314A      4.381040   315A      4.412139  
     316A      4.427529   317A      4.437622   318A      4.441776  
     319A      4.467017   320A      4.517943   321A      4.519550  
     322A      4.524791   323A      4.562083   324A      4.645787  
     325A      4.658234   326A      4.693956   327A      4.744424  
     328A      4.755171   329A      4.789075   330A      4.839114  
     331A      4.869319   332A      4.888634   333A      4.898576  
     334A      4.935969   335A      4.958389   336A      4.967916  
     337A      4.989157   338A      5.026069   339A      5.037536  
     340A      5.060481   341A      5.077429   342A      5.106746  
     343A      5.121712   344A      5.138115   345A      5.145073  
     346A      5.194701   347A      5.223992   348A      5.225824  
     349A      5.230775   350A      5.330579   351A      5.389211  
     352A      5.394628   353A      5.403080   354A      5.426497  
     355A      5.445452   356A      5.472689   357A      5.518249  
     358A      5.527549   359A      5.589010   360A      5.604351  
     361A      5.653872   362A      5.779489   363A      5.797569  
     364A      5.813812   365A      5.853325   366A      5.866601  
     367A      5.907554   368A      5.909943   369A      5.972394  
     370A      6.080531   371A      6.118302   372A      6.193232  
     373A      6.229628   374A      6.304614   375A      6.391565  
     376A      6.510029   377A      6.666297   378A      6.680502  
     379A      6.681483   380A      6.741605   381A      6.824933  
     382A      6.881319   383A      7.072706   384A      7.089686  
     385A      7.478311   386A     15.498777   387A     16.285313  
     388A     18.239886   389A     18.574505   390A     19.180594  
     391A     19.262234  

    Final Occupation by Irrep:
              A 
    DOCC [    21 ]

  @DF-RHF Final Energy:  -246.77864667271240

   => Energetics <=

    Nuclear Repulsion Energy =            206.2274941312043097
    One-Electron Energy =                -741.2302378032618435
    Two-Electron Energy =                 288.2240969993450790
    Total Energy =                       -246.7786466727123980

Computation Completed


Properties will be evaluated at   0.000000,   0.000000,   0.000000 [a0]

Properties computed using the SCF density matrix

  Nuclear Dipole Moment: [e a0]
     X:   -14.1529      Y:   -10.2978      Z:   127.4400

  Electronic Dipole Moment: [e a0]
     X:    14.3586      Y:    11.1805      Z:  -127.5892

  Dipole Moment: [e a0]
     X:     0.2058      Y:     0.8826      Z:    -0.1492     Total:     0.9185

  Dipole Moment: [D]
     X:     0.5230      Y:     2.2435      Z:    -0.3793     Total:     2.3346


*** tstop() called on node52.bme.utexas.edu at Sat Apr 11 18:36:25 2020
Module time:
	user time   =      35.55 seconds =       0.59 minutes
	system time =       0.93 seconds =       0.02 minutes
	total time  =          7 seconds =       0.12 minutes
Total time:
	user time   =      35.55 seconds =       0.59 minutes
	system time =       0.93 seconds =       0.02 minutes
	total time  =          7 seconds =       0.12 minutes

*** tstart() called on node52.bme.utexas.edu
*** at Sat Apr 11 18:36:25 2020


  //>>>>>>>>>>>>>>>>>>>>>>>>>>>>>>>>>>>//
  //               DFMP2               //
  //<<<<<<<<<<<<<<<<<<<<<<<<<<<<<<<<<<<//

   => Loading Basis Set <=

    Name: (AUG-CC-PVTZ AUX)
    Role: RIFIT
    Keyword: DF_BASIS_MP2
    atoms 1              entry N          line   206 file /home/liuchw/anaconda3/envs/psi4env/share/psi4/basis/aug-cc-pvtz-ri.gbs 
    atoms 2, 4, 6, 8, 10 entry C          line   148 file /home/liuchw/anaconda3/envs/psi4env/share/psi4/basis/aug-cc-pvtz-ri.gbs 
    atoms 3, 5, 7, 9, 11 entry H          line    30 file /home/liuchw/anaconda3/envs/psi4env/share/psi4/basis/aug-cc-pvtz-ri.gbs 

	 --------------------------------------------------------
	                          DF-MP2                         
	      2nd-Order Density-Fitted Moller-Plesset Theory     
	              RMP2 Wavefunction,   6 Threads             
	                                                         
	        Rob Parrish, Justin Turney, Andy Simmonett,      
	           Ed Hohenstein, and C. David Sherrill          
	 --------------------------------------------------------

   => Auxiliary Basis Set <=

  Basis Set: (AUG-CC-PVTZ AUX)
    Blend: AUG-CC-PVTZ-RI
    Number of shells: 238
    Number of basis function: 866
    Number of Cartesian functions: 1091
    Spherical Harmonics?: true
    Max angular momentum: 4

	 --------------------------------------------------------
	                 NBF =   391, NAUX =   866
	 --------------------------------------------------------
	   CLASS    FOCC     OCC    AOCC    AVIR     VIR    FVIR
	   PAIRS       0      21      21     370     370       0
	 --------------------------------------------------------

	-----------------------------------------------------------
	 ==================> DF-MP2 Energies <==================== 
	-----------------------------------------------------------
	 Reference Energy          =    -246.7786466727123980 [Eh]
	 Singles Energy            =      -0.0000000000000000 [Eh]
	 Same-Spin Energy          =      -0.2687953163583130 [Eh]
	 Opposite-Spin Energy      =      -0.8388340817313553 [Eh]
	 Correlation Energy        =      -1.1076293980896683 [Eh]
	 Total Energy              =    -247.8862760708020687 [Eh]
	-----------------------------------------------------------
	 ================> DF-SCS-MP2 Energies <================== 
	-----------------------------------------------------------
	 SCS Same-Spin Scale       =       0.3333333333333333 [-]
	 SCS Opposite-Spin Scale   =       1.2000000000000000 [-]
	 SCS Same-Spin Energy      =      -0.0895984387861043 [Eh]
	 SCS Opposite-Spin Energy  =      -1.0066008980776264 [Eh]
	 SCS Correlation Energy    =      -1.0961993368637308 [Eh]
	 SCS Total Energy          =    -247.8748460095761175 [Eh]
	-----------------------------------------------------------


*** tstop() called on node52.bme.utexas.edu at Sat Apr 11 18:36:29 2020
Module time:
	user time   =      16.99 seconds =       0.28 minutes
	system time =       0.54 seconds =       0.01 minutes
	total time  =          4 seconds =       0.07 minutes
Total time:
	user time   =      52.54 seconds =       0.88 minutes
	system time =       1.47 seconds =       0.02 minutes
	total time  =         11 seconds =       0.18 minutes

  //>>>>>>>>>>>>>>>>>>>>>>>>>>>>>>>>>>>>//
  // CBS Computation: MP2 / AUG-CC-PVQZ //
  //<<<<<<<<<<<<<<<<<<<<<<<<<<<<<<<<<<<<//


Scratch directory: /scratch//

*** tstart() called on node52.bme.utexas.edu
*** at Sat Apr 11 18:36:29 2020

   => Loading Basis Set <=

    Name: AUG-CC-PVQZ
    Role: ORBITAL
    Keyword: BASIS
    atoms 1              entry N          line   363 file /home/liuchw/anaconda3/envs/psi4env/share/psi4/basis/aug-cc-pvqz.gbs 
    atoms 2, 4, 6, 8, 10 entry C          line   303 file /home/liuchw/anaconda3/envs/psi4env/share/psi4/basis/aug-cc-pvqz.gbs 
    atoms 3, 5, 7, 9, 11 entry H          line    40 file /home/liuchw/anaconda3/envs/psi4env/share/psi4/basis/aug-cc-pvqz.gbs 


         ---------------------------------------------------------
                                   SCF
               by Justin Turney, Rob Parrish, Andy Simmonett
                          and Daniel G. A. Smith
                              RHF Reference
                        6 Threads,  38146 MiB Core
         ---------------------------------------------------------

  ==> Geometry <==

    Molecular point group: c1
    Full point group: C1

    Geometry (in Angstrom), charge = 0, multiplicity = 1:

       Center              X                  Y                   Z               Mass       
    ------------   -----------------  -----------------  -----------------  -----------------
         N           -0.496665800581    -1.498394439685     1.831590732187    14.003074004430
         C           -1.429144800581    -0.537765439685     1.905441732187    12.000000000000
         H           -2.431933800581    -0.868720439685     2.147634732187     1.007825032230
         C           -1.167141800581     0.813302560315     1.696062732187    12.000000000000
         H           -1.965698800581     1.537808560315     1.774333732187     1.007825032230
         C            0.132286199419     1.202544560315     1.385793732187    12.000000000000
         H            0.374270199419     2.241542560315     1.209922732187     1.007825032230
         C            1.111845199419     0.219646560315     1.302432732187    12.000000000000
         H            2.134146199419     0.466391560315     1.053995732187     1.007825032230
         C            0.749365199419    -1.105491439685     1.535625732187    12.000000000000
         H            1.493226199419    -1.891046439685     1.479176732187     1.007825032230

  Running in c1 symmetry.

  Rotational constants: A =      0.11021  B =      0.05718  C =      0.05407 [cm^-1]
  Rotational constants: A =   3303.94917  B =   1714.25318  C =   1620.83001 [MHz]
  Nuclear repulsion =  206.227494131204310

  Charge       = 0
  Multiplicity = 1
  Electrons    = 42
  Nalpha       = 21
  Nbeta        = 21

  ==> Algorithm <==

  SCF Algorithm Type is DF.
  DIIS enabled.
  MOM disabled.
  Fractional occupation disabled.
  Guess Type is SAD.
  Energy threshold   = 1.00e-07
  Density threshold  = 1.00e-08
  Integral threshold = 0.00e+00

  ==> Primary Basis <==

  Basis Set: AUG-CC-PVQZ
    Blend: AUG-CC-PVQZ
    Number of shells: 190
    Number of basis function: 710
    Number of Cartesian functions: 905
    Spherical Harmonics?: true
    Max angular momentum: 4

   => Loading Basis Set <=

    Name: (AUG-CC-PVQZ AUX)
    Role: JKFIT
    Keyword: DF_BASIS_SCF
    atoms 1              entry N          line   248 file /home/liuchw/anaconda3/envs/psi4env/share/psi4/basis/aug-cc-pvqz-jkfit.gbs 
    atoms 2, 4, 6, 8, 10 entry C          line   178 file /home/liuchw/anaconda3/envs/psi4env/share/psi4/basis/aug-cc-pvqz-jkfit.gbs 
    atoms 3, 5, 7, 9, 11 entry H          line    70 file /home/liuchw/anaconda3/envs/psi4env/share/psi4/basis/aug-cc-pvqz-jkfit.gbs 

  ==> Pre-Iterations <==

   -------------------------------------------------------
    Irrep   Nso     Nmo     Nalpha   Nbeta   Ndocc  Nsocc
   -------------------------------------------------------
     A        710     710       0       0       0       0
   -------------------------------------------------------
    Total     710     710      21      21      21       0
   -------------------------------------------------------

  ==> Integral Setup <==

  DFHelper Memory: AOs need 4.661 GiB; user supplied 27.940 GiB. Using in-core AOs.

  ==> MemDFJK: Density-Fitted J/K Matrices <==

    J tasked:                   Yes
    K tasked:                   Yes
    wK tasked:                   No
    OpenMP threads:               6
    Memory [MiB]:             28610
    Algorithm:                 Core
    Schwarz Cutoff:           1E-12
    Mask sparsity (%):       2.6784
    Fitting Condition:        1E-10

   => Auxiliary Basis Set <=

  Basis Set: (AUG-CC-PVQZ AUX)
    Blend: AUG-CC-PVQZ-JKFIT
    Number of shells: 294
    Number of basis function: 1232
    Number of Cartesian functions: 1693
    Spherical Harmonics?: true
    Max angular momentum: 5

  Minimum eigenvalue in the overlap matrix is 6.9116781113E-07.
  Using Symmetric Orthogonalization.

  SCF Guess: Superposition of Atomic Densities via on-the-fly atomic UHF.

  ==> Iterations <==

                           Total Energy        Delta E     RMS |[F,P]|

   @DF-RHF iter SAD:  -246.16771265207117   -2.46168e+02   0.00000e+00 
   @DF-RHF iter   1:  -246.64677563347340   -4.79063e-01   6.98584e-04 DIIS
   @DF-RHF iter   2:  -246.76716396592289   -1.20388e-01   3.20448e-04 DIIS
   @DF-RHF iter   3:  -246.79130370192468   -2.41397e-02   6.24400e-05 DIIS
   @DF-RHF iter   4:  -246.79269788556977   -1.39418e-03   1.76397e-05 DIIS
   @DF-RHF iter   5:  -246.79277532548565   -7.74399e-05   6.11301e-06 DIIS
   @DF-RHF iter   6:  -246.79278624842243   -1.09229e-05   1.36526e-06 DIIS
   @DF-RHF iter   7:  -246.79278700337778   -7.54955e-07   4.61684e-07 DIIS
   @DF-RHF iter   8:  -246.79278709097093   -8.75932e-08   1.92966e-07 DIIS
   @DF-RHF iter   9:  -246.79278711526416   -2.42932e-08   5.23408e-08 DIIS
   @DF-RHF iter  10:  -246.79278711791176   -2.64760e-09   1.90287e-08 DIIS
   @DF-RHF iter  11:  -246.79278711839879   -4.87034e-10   1.13198e-08 DIIS
   @DF-RHF iter  12:  -246.79278711853826   -1.39465e-10   3.87725e-09 DIIS
  Energy and wave function converged.


  ==> Post-Iterations <==

    Orbital Energies [Eh]
    ---------------------

    Doubly Occupied:                                                      

       1A    -15.565404     2A    -11.274536     3A    -11.274460  
       4A    -11.259694     5A    -11.241516     6A    -11.241460  
       7A     -1.256516     8A     -1.090074     9A     -1.033581  
      10A     -0.859665    11A     -0.856017    12A     -0.722350  
      13A     -0.660932    14A     -0.654652    15A     -0.598503  
      16A     -0.577764    17A     -0.541652    18A     -0.520312  
      19A     -0.420367    20A     -0.384569    21A     -0.348190  

    Virtual:                                                              

      22A      0.022984    23A      0.028864    24A      0.033247  
      25A      0.043060    26A      0.047154    27A      0.066053  
      28A      0.081747    29A      0.087662    30A      0.088991  
      31A      0.091290    32A      0.095146    33A      0.095948  
      34A      0.097195    35A      0.099937    36A      0.102399  
      37A      0.112968    38A      0.114979    39A      0.124444  
      40A      0.127446    41A      0.128215    42A      0.132083  
      43A      0.133635    44A      0.136992    45A      0.170247  
      46A      0.186468    47A      0.205040    48A      0.210278  
      49A      0.211601    50A      0.215970    51A      0.221481  
      52A      0.228830    53A      0.237153    54A      0.244870  
      55A      0.245441    56A      0.253930    57A      0.254207  
      58A      0.254261    59A      0.266499    60A      0.280477  
      61A      0.286018    62A      0.289948    63A      0.293915  
      64A      0.296505    65A      0.300285    66A      0.301171  
      67A      0.309661    68A      0.318632    69A      0.319051  
      70A      0.319893    71A      0.338378    72A      0.350103  
      73A      0.351180    74A      0.362441    75A      0.364935  
      76A      0.368525    77A      0.368981    78A      0.384213  
      79A      0.385924    80A      0.399971    81A      0.400778  
      82A      0.419822    83A      0.423527    84A      0.424761  
      85A      0.427337    86A      0.429946    87A      0.435070  
      88A      0.437259    89A      0.440324    90A      0.455715  
      91A      0.459464    92A      0.467455    93A      0.470869  
      94A      0.471339    95A      0.490401    96A      0.490979  
      97A      0.505475    98A      0.506846    99A      0.512885  
     100A      0.518208   101A      0.519084   102A      0.530371  
     103A      0.541944   104A      0.566930   105A      0.567389  
     106A      0.572390   107A      0.580169   108A      0.582306  
     109A      0.587319   110A      0.602906   111A      0.610748  
     112A      0.610963   113A      0.623172   114A      0.645239  
     115A      0.656269   116A      0.659256   117A      0.662937  
     118A      0.667823   119A      0.669107   120A      0.674991  
     121A      0.703182   122A      0.703999   123A      0.707098  
     124A      0.720104   125A      0.731303   126A      0.734699  
     127A      0.736290   128A      0.744549   129A      0.748961  
     130A      0.757756   131A      0.765111   132A      0.778049  
     133A      0.781254   134A      0.787302   135A      0.791445  
     136A      0.797788   137A      0.801331   138A      0.801784  
     139A      0.809573   140A      0.823000   141A      0.834123  
     142A      0.840033   143A      0.843133   144A      0.849221  
     145A      0.854852   146A      0.860320   147A      0.891789  
     148A      0.892305   149A      0.898950   150A      0.902761  
     151A      0.920532   152A      0.927046   153A      0.933338  
     154A      0.937446   155A      0.950600   156A      0.951653  
     157A      0.953858   158A      0.962132   159A      0.963498  
     160A      0.966700   161A      0.977013   162A      0.988444  
     163A      0.989597   164A      1.001081   165A      1.023036  
     166A      1.027372   167A      1.047297   168A      1.057376  
     169A      1.082411   170A      1.090713   171A      1.092634  
     172A      1.111350   173A      1.124419   174A      1.131193  
     175A      1.142189   176A      1.162483   177A      1.166492  
     178A      1.179101   179A      1.182053   180A      1.182586  
     181A      1.193936   182A      1.212774   183A      1.228689  
     184A      1.229395   185A      1.230445   186A      1.248888  
     187A      1.259001   188A      1.260810   189A      1.300335  
     190A      1.300643   191A      1.317716   192A      1.317949  
     193A      1.330089   194A      1.330245   195A      1.355537  
     196A      1.365431   197A      1.371309   198A      1.381429  
     199A      1.384418   200A      1.389387   201A      1.396117  
     202A      1.402868   203A      1.419512   204A      1.420589  
     205A      1.425780   206A      1.434089   207A      1.459187  
     208A      1.471583   209A      1.495454   210A      1.515635  
     211A      1.527057   212A      1.541945   213A      1.546603  
     214A      1.547919   215A      1.549009   216A      1.553138  
     217A      1.557227   218A      1.570979   219A      1.579777  
     220A      1.583911   221A      1.587702   222A      1.600867  
     223A      1.608329   224A      1.614034   225A      1.620068  
     226A      1.626387   227A      1.645063   228A      1.670485  
     229A      1.673046   230A      1.698318   231A      1.720762  
     232A      1.729342   233A      1.734294   234A      1.739548  
     235A      1.748481   236A      1.772714   237A      1.780177  
     238A      1.797947   239A      1.836026   240A      1.836695  
     241A      1.836855   242A      1.850962   243A      1.855580  
     244A      1.862363   245A      1.908153   246A      1.911028  
     247A      1.922668   248A      1.933156   249A      1.936497  
     250A      1.938700   251A      1.973530   252A      1.973928  
     253A      1.976817   254A      1.991866   255A      1.994586  
     256A      2.003230   257A      2.006985   258A      2.010802  
     259A      2.015150   260A      2.038822   261A      2.049070  
     262A      2.059847   263A      2.068511   264A      2.074299  
     265A      2.080996   266A      2.084403   267A      2.092548  
     268A      2.099375   269A      2.122312   270A      2.127548  
     271A      2.150963   272A      2.152577   273A      2.153902  
     274A      2.167686   275A      2.191290   276A      2.196965  
     277A      2.231025   278A      2.238547   279A      2.241527  
     280A      2.250384   281A      2.254822   282A      2.259705  
     283A      2.275486   284A      2.278951   285A      2.279088  
     286A      2.294486   287A      2.302916   288A      2.304947  
     289A      2.315693   290A      2.336721   291A      2.339079  
     292A      2.344025   293A      2.367290   294A      2.375877  
     295A      2.382702   296A      2.385876   297A      2.387704  
     298A      2.414282   299A      2.417223   300A      2.423688  
     301A      2.425430   302A      2.448426   303A      2.459011  
     304A      2.468709   305A      2.468868   306A      2.469778  
     307A      2.484968   308A      2.509092   309A      2.509633  
     310A      2.514947   311A      2.529025   312A      2.558807  
     313A      2.561632   314A      2.568619   315A      2.574741  
     316A      2.576450   317A      2.588439   318A      2.593957  
     319A      2.595674   320A      2.611885   321A      2.626422  
     322A      2.631946   323A      2.633011   324A      2.706282  
     325A      2.707985   326A      2.711300   327A      2.726900  
     328A      2.759801   329A      2.763238   330A      2.769952  
     331A      2.771989   332A      2.784490   333A      2.801840  
     334A      2.804227   335A      2.805205   336A      2.820005  
     337A      2.837872   338A      2.859074   339A      2.880920  
     340A      2.903210   341A      2.906059   342A      2.930533  
     343A      2.944131   344A      2.964791   345A      2.997799  
     346A      3.006411   347A      3.017743   348A      3.027536  
     349A      3.029142   350A      3.030823   351A      3.072780  
     352A      3.077200   353A      3.096523   354A      3.134707  
     355A      3.138536   356A      3.139696   357A      3.147198  
     358A      3.168409   359A      3.212782   360A      3.215014  
     361A      3.229018   362A      3.234619   363A      3.270040  
     364A      3.273738   365A      3.298611   366A      3.304049  
     367A      3.312448   368A      3.315257   369A      3.339314  
     370A      3.351773   371A      3.360523   372A      3.373989  
     373A      3.379683   374A      3.390971   375A      3.446047  
     376A      3.455293   377A      3.464463   378A      3.502774  
     379A      3.523814   380A      3.528393   381A      3.546621  
     382A      3.572159   383A      3.604047   384A      3.604670  
     385A      3.629963   386A      3.654549   387A      3.669409  
     388A      3.675272   389A      3.679540   390A      3.713833  
     391A      3.719978   392A      3.726187   393A      3.747469  
     394A      3.747993   395A      3.795493   396A      3.822039  
     397A      3.834621   398A      3.852742   399A      3.879570  
     400A      3.888987   401A      3.895475   402A      3.919835  
     403A      3.926861   404A      3.929981   405A      3.933013  
     406A      3.962504   407A      3.968050   408A      3.973263  
     409A      4.015168   410A      4.030645   411A      4.033492  
     412A      4.046213   413A      4.051285   414A      4.084931  
     415A      4.123183   416A      4.139727   417A      4.143552  
     418A      4.151466   419A      4.157717   420A      4.191731  
     421A      4.203878   422A      4.252244   423A      4.267983  
     424A      4.270100   425A      4.324244   426A      4.324632  
     427A      4.339900   428A      4.371314   429A      4.374777  
     430A      4.404013   431A      4.405271   432A      4.436289  
     433A      4.437305   434A      4.466036   435A      4.470190  
     436A      4.498694   437A      4.502654   438A      4.510744  
     439A      4.548809   440A      4.564851   441A      4.568902  
     442A      4.575659   443A      4.606525   444A      4.617451  
     445A      4.667521   446A      4.691747   447A      4.699030  
     448A      4.724446   449A      4.744990   450A      4.789084  
     451A      4.826957   452A      4.854463   453A      4.886710  
     454A      4.895147   455A      4.906499   456A      4.933259  
     457A      4.973358   458A      4.997379   459A      4.999343  
     460A      5.026307   461A      5.036305   462A      5.070510  
     463A      5.115882   464A      5.145289   465A      5.198576  
     466A      5.221242   467A      5.239990   468A      5.299224  
     469A      5.371160   470A      5.408115   471A      5.431242  
     472A      5.445367   473A      5.471914   474A      5.549514  
     475A      5.619366   476A      5.701825   477A      5.737889  
     478A      5.797740   479A      5.799130   480A      5.827515  
     481A      5.847146   482A      5.890232   483A      5.917232  
     484A      5.986971   485A      6.008831   486A      6.044159  
     487A      6.052219   488A      6.080273   489A      6.099510  
     490A      6.121437   491A      6.132254   492A      6.153702  
     493A      6.156494   494A      6.184853   495A      6.217126  
     496A      6.305749   497A      6.308814   498A      6.324444  
     499A      6.378485   500A      6.384487   501A      6.413948  
     502A      6.428217   503A      6.465212   504A      6.471835  
     505A      6.515411   506A      6.545500   507A      6.584742  
     508A      6.588129   509A      6.592414   510A      6.601983  
     511A      6.614974   512A      6.636805   513A      6.637467  
     514A      6.652497   515A      6.653102   516A      6.667557  
     517A      6.683728   518A      6.708701   519A      6.752566  
     520A      6.773143   521A      6.794738   522A      6.803525  
     523A      6.820262   524A      6.855453   525A      6.861797  
     526A      6.891763   527A      6.899187   528A      6.902148  
     529A      6.936877   530A      6.955605   531A      6.981125  
     532A      7.001840   533A      7.019963   534A      7.024704  
     535A      7.030218   536A      7.052904   537A      7.063551  
     538A      7.080652   539A      7.091540   540A      7.122319  
     541A      7.147039   542A      7.148139   543A      7.166606  
     544A      7.185483   545A      7.200369   546A      7.214912  
     547A      7.216111   548A      7.242378   549A      7.281998  
     550A      7.288316   551A      7.324474   552A      7.327456  
     553A      7.343351   554A      7.385451   555A      7.397197  
     556A      7.398391   557A      7.406388   558A      7.435903  
     559A      7.462862   560A      7.502760   561A      7.521674  
     562A      7.568513   563A      7.581412   564A      7.588229  
     565A      7.630709   566A      7.639554   567A      7.643815  
     568A      7.683070   569A      7.712277   570A      7.744452  
     571A      7.768023   572A      7.772621   573A      7.781555  
     574A      7.810329   575A      7.837567   576A      7.856909  
     577A      7.879158   578A      7.927097   579A      7.945260  
     580A      8.001758   581A      8.007834   582A      8.017407  
     583A      8.027228   584A      8.063895   585A      8.070595  
     586A      8.092911   587A      8.142125   588A      8.146512  
     589A      8.150695   590A      8.277578   591A      8.302739  
     592A      8.321333   593A      8.351566   594A      8.364294  
     595A      8.382915   596A      8.458503   597A      8.489413  
     598A      8.522373   599A      8.546947   600A      8.617082  
     601A      8.620128   602A      8.639555   603A      8.664779  
     604A      8.693392   605A      8.698009   606A      8.707921  
     607A      8.718543   608A      8.811667   609A      8.823318  
     610A      8.860687   611A      8.872988   612A      8.889864  
     613A      8.890994   614A      8.935593   615A      8.945825  
     616A      8.956880   617A      8.960594   618A      8.964120  
     619A      9.040200   620A      9.048763   621A      9.079693  
     622A      9.117368   623A      9.141386   624A      9.173679  
     625A      9.195031   626A      9.203090   627A      9.216976  
     628A      9.258095   629A      9.328356   630A      9.352476  
     631A      9.392985   632A      9.399459   633A      9.417398  
     634A      9.446795   635A      9.499237   636A      9.550506  
     637A      9.552200   638A      9.554413   639A      9.594967  
     640A      9.595447   641A      9.610767   642A      9.647799  
     643A      9.701526   644A      9.721013   645A      9.724834  
     646A      9.736204   647A      9.794819   648A      9.866333  
     649A      9.899798   650A      9.963592   651A      9.964094  
     652A      9.966332   653A      9.982862   654A     10.010755  
     655A     10.015576   656A     10.027720   657A     10.094133  
     658A     10.214853   659A     10.231282   660A     10.234512  
     661A     10.242435   662A     10.289855   663A     10.318171  
     664A     10.329697   665A     10.382932   666A     10.390889  
     667A     10.462989   668A     10.474994   669A     10.496395  
     670A     10.507173   671A     10.513251   672A     10.580395  
     673A     10.638780   674A     10.656805   675A     10.718718  
     676A     10.764267   677A     10.766938   678A     10.775687  
     679A     10.795268   680A     10.844439   681A     10.881445  
     682A     11.054108   683A     11.064615   684A     11.194683  
     685A     11.196858   686A     11.365528   687A     11.377252  
     688A     11.449841   689A     11.454033   690A     11.568509  
     691A     11.638465   692A     11.667159   693A     11.697172  
     694A     11.773305   695A     11.896819   696A     12.280850  
     697A     12.489902   698A     12.733004   699A     12.841212  
     700A     13.202829   701A     13.368610   702A     13.377138  
     703A     13.517473   704A     13.569006   705A     26.161736  
     706A     26.280354   707A     26.519521   708A     26.940715  
     709A     27.177770   710A     34.209800  

    Final Occupation by Irrep:
              A 
    DOCC [    21 ]

  @DF-RHF Final Energy:  -246.79278711853826

   => Energetics <=

    Nuclear Repulsion Energy =            206.2274941312043097
    One-Electron Energy =                -741.2761304354309004
    Two-Electron Energy =                 288.2558491856883620
    Total Energy =                       -246.7927871185382855

Computation Completed


Properties will be evaluated at   0.000000,   0.000000,   0.000000 [a0]

Properties computed using the SCF density matrix

  Nuclear Dipole Moment: [e a0]
     X:   -14.1529      Y:   -10.2978      Z:   127.4400

  Electronic Dipole Moment: [e a0]
     X:    14.3585      Y:    11.1797      Z:  -127.5891

  Dipole Moment: [e a0]
     X:     0.2056      Y:     0.8819      Z:    -0.1491     Total:     0.9177

  Dipole Moment: [D]
     X:     0.5225      Y:     2.2416      Z:    -0.3790     Total:     2.3327


*** tstop() called on node52.bme.utexas.edu at Sat Apr 11 18:36:55 2020
Module time:
	user time   =     138.02 seconds =       2.30 minutes
	system time =       2.70 seconds =       0.05 minutes
	total time  =         26 seconds =       0.43 minutes
Total time:
	user time   =     190.60 seconds =       3.18 minutes
	system time =       4.17 seconds =       0.07 minutes
	total time  =         37 seconds =       0.62 minutes

*** tstart() called on node52.bme.utexas.edu
*** at Sat Apr 11 18:36:55 2020


  //>>>>>>>>>>>>>>>>>>>>>>>>>>>>>>>>>>>//
  //               DFMP2               //
  //<<<<<<<<<<<<<<<<<<<<<<<<<<<<<<<<<<<//

   => Loading Basis Set <=

    Name: (AUG-CC-PVQZ AUX)
    Role: RIFIT
    Keyword: DF_BASIS_MP2
    atoms 1              entry N          line   258 file /home/liuchw/anaconda3/envs/psi4env/share/psi4/basis/aug-cc-pvqz-ri.gbs 
    atoms 2, 4, 6, 8, 10 entry C          line   184 file /home/liuchw/anaconda3/envs/psi4env/share/psi4/basis/aug-cc-pvqz-ri.gbs 
    atoms 3, 5, 7, 9, 11 entry H          line    30 file /home/liuchw/anaconda3/envs/psi4env/share/psi4/basis/aug-cc-pvqz-ri.gbs 

	 --------------------------------------------------------
	                          DF-MP2                         
	      2nd-Order Density-Fitted Moller-Plesset Theory     
	              RMP2 Wavefunction,   6 Threads             
	                                                         
	        Rob Parrish, Justin Turney, Andy Simmonett,      
	           Ed Hohenstein, and C. David Sherrill          
	 --------------------------------------------------------

   => Auxiliary Basis Set <=

  Basis Set: (AUG-CC-PVQZ AUX)
    Blend: AUG-CC-PVQZ-RI
    Number of shells: 316
    Number of basis function: 1408
    Number of Cartesian functions: 1947
    Spherical Harmonics?: true
    Max angular momentum: 5

	 --------------------------------------------------------
	                 NBF =   710, NAUX =  1408
	 --------------------------------------------------------
	   CLASS    FOCC     OCC    AOCC    AVIR     VIR    FVIR
	   PAIRS       0      21      21     689     689       0
	 --------------------------------------------------------

	-----------------------------------------------------------
	 ==================> DF-MP2 Energies <==================== 
	-----------------------------------------------------------
	 Reference Energy          =    -246.7927871185382571 [Eh]
	 Singles Energy            =      -0.0000000000000000 [Eh]
	 Same-Spin Energy          =      -0.2841687989813557 [Eh]
	 Opposite-Spin Energy      =      -0.9424116835509686 [Eh]
	 Correlation Energy        =      -1.2265804825323243 [Eh]
	 Total Energy              =    -248.0193676010705701 [Eh]
	-----------------------------------------------------------
	 ================> DF-SCS-MP2 Energies <================== 
	-----------------------------------------------------------
	 SCS Same-Spin Scale       =       0.3333333333333333 [-]
	 SCS Opposite-Spin Scale   =       1.2000000000000000 [-]
	 SCS Same-Spin Energy      =      -0.0947229329937852 [Eh]
	 SCS Opposite-Spin Energy  =      -1.1308940202611624 [Eh]
	 SCS Correlation Energy    =      -1.2256169532549477 [Eh]
	 SCS Total Energy          =    -248.0184040717932135 [Eh]
	-----------------------------------------------------------


*** tstop() called on node52.bme.utexas.edu at Sat Apr 11 18:37:09 2020
Module time:
	user time   =      68.54 seconds =       1.14 minutes
	system time =       1.53 seconds =       0.03 minutes
	total time  =         14 seconds =       0.23 minutes
Total time:
	user time   =     259.14 seconds =       4.32 minutes
	system time =       5.70 seconds =       0.10 minutes
	total time  =         51 seconds =       0.85 minutes

  //>>>>>>>>>>>>>>>>>>>>>>>>>>>>>>>>>>>//
  //  CBS Results: mp2/aug-cc-pv[tq]z  //
  //<<<<<<<<<<<<<<<<<<<<<<<<<<<<<<<<<<<//


   ==> HF <==

   HI-zeta (4) Energy:               -246.792787118538


   ==> Helgaker 2-point correlated extrapolation for method: MP2 <==

   LO-zeta (3) Energy:               -247.886276070802
   HI-zeta (4) Energy:               -248.019367601071
   Alpha (exponent) Value:             3.000000000000
   Extrapolated Energy:              -248.116488447483

   @Extrapolated MP2/(T,Q):          -248.116488447483



   ==> Helgaker 2-point correlated extrapolation for method: HF <==

   LO-zeta (3) Energy:               -246.778646672712
   HI-zeta (4) Energy:               -246.792787118538
   Alpha (exponent) Value:             3.000000000000
   Extrapolated Energy:              -246.803105822249

   @Extrapolated HF/(T,Q):           -246.803105822249


   ==> Components <==

  ---------------------------------------------------------------------------------------------------------
                          Method / Basis                      Rqd      Energy [Eh]   Variable
  ---------------------------------------------------------------------------------------------------------
                              hf / aug-cc-pvtz                  *    -246.77864667   HF TOTAL ENERGY
                             mp2 / aug-cc-pvtz                  *    -247.88627607   MP2 TOTAL ENERGY
                              hf / aug-cc-pvqz                  *    -246.79278712   HF TOTAL ENERGY
                             mp2 / aug-cc-pvqz                  *    -248.01936760   MP2 TOTAL ENERGY
  ---------------------------------------------------------------------------------------------------------

   ==> Stages <==

  ---------------------------------------------------------------------------------------------------------
      Stage               Method / Basis                       Wt      Energy [Eh]   Scheme
  ---------------------------------------------------------------------------------------------------------
        scf                   hf / aug-cc-pvqz                  1    -246.79278712   xtpl_highest_1
       corl                  mp2 / aug-cc-pv[tq]z               1    -248.11648845   corl_xtpl_helgaker_2
       corl                   hf / aug-cc-pv[tq]z              -1    -246.80310582   corl_xtpl_helgaker_2
  ---------------------------------------------------------------------------------------------------------

   ==> CBS <==

  ---------------------------------------------------------------------------------------------------------
      Stage               Method / Basis                               Energy [Eh]   Scheme
  ---------------------------------------------------------------------------------------------------------
        scf                   hf / aug-cc-pvqz                       -246.79278712   xtpl_highest_1
       corl                  mp2 / aug-cc-pv[tq]z                      -1.31338263   corl_xtpl_helgaker_2
      total                  CBS                                     -248.10616974   
  ---------------------------------------------------------------------------------------------------------
   => Loading Basis Set <=

    Name: DEF2-SVP
    Role: ORBITAL
    Keyword: BASIS
    atoms 1              entry N          line   110 file /home/liuchw/anaconda3/envs/psi4env/share/psi4/basis/def2-svp.gbs 
    atoms 2, 4, 6, 8, 10 entry C          line    90 file /home/liuchw/anaconda3/envs/psi4env/share/psi4/basis/def2-svp.gbs 
    atoms 3, 5, 7, 9, 11 entry H          line    15 file /home/liuchw/anaconda3/envs/psi4env/share/psi4/basis/def2-svp.gbs 


       N-Body: Complex Energy (fragments = (2,), basis = (2,):  -248.10616974377191)

       N-Body: Computing complex (2/4) with fragments (2,) in the basis of fragments (1, 2).


Scratch directory: /scratch//

  //>>>>>>>>>>>>>>>>>>>>>>>>>>>>>>>>>>>//
  //   CBS Setup: mp2/aug-cc-pv[tq]z   //
  //<<<<<<<<<<<<<<<<<<<<<<<<<<<<<<<<<<<//

    Naive listing of computations required.
             hf / aug-cc-pvqz              for  HF TOTAL ENERGY
            mp2 / aug-cc-pvtz              for  MP2 TOTAL ENERGY
            mp2 / aug-cc-pvqz              for  MP2 TOTAL ENERGY
             hf / aug-cc-pvtz              for  HF TOTAL ENERGY
             hf / aug-cc-pvqz              for  HF TOTAL ENERGY

    Enlightened listing of computations required.
            mp2 / aug-cc-pvtz              for  MP2 TOTAL ENERGY
            mp2 / aug-cc-pvqz              for  MP2 TOTAL ENERGY

    Full listing of computations to be obtained (required and bonus).
             hf / aug-cc-pvtz              for  HF TOTAL ENERGY
            mp2 / aug-cc-pvtz              for  MP2 TOTAL ENERGY
             hf / aug-cc-pvqz              for  HF TOTAL ENERGY
            mp2 / aug-cc-pvqz              for  MP2 TOTAL ENERGY

  //>>>>>>>>>>>>>>>>>>>>>>>>>>>>>>>>>>>>//
  // CBS Computation: MP2 / AUG-CC-PVTZ //
  //<<<<<<<<<<<<<<<<<<<<<<<<<<<<<<<<<<<<//


Scratch directory: /scratch//

*** tstart() called on node52.bme.utexas.edu
*** at Sat Apr 11 18:37:11 2020

   => Loading Basis Set <=

    Name: AUG-CC-PVTZ
    Role: ORBITAL
    Keyword: BASIS
    atoms 1, 12                              entry N          line   285 file /home/liuchw/anaconda3/envs/psi4env/share/psi4/basis/aug-cc-pvtz.gbs 
    atoms 2, 4, 6, 8, 10, 13, 15, 17, 19, 21 entry C          line   239 file /home/liuchw/anaconda3/envs/psi4env/share/psi4/basis/aug-cc-pvtz.gbs 
    atoms 3, 5, 7, 9, 11, 14, 16, 18, 20, 22 entry H          line    40 file /home/liuchw/anaconda3/envs/psi4env/share/psi4/basis/aug-cc-pvtz.gbs 


         ---------------------------------------------------------
                                   SCF
               by Justin Turney, Rob Parrish, Andy Simmonett
                          and Daniel G. A. Smith
                              RHF Reference
                        6 Threads,  38146 MiB Core
         ---------------------------------------------------------

  ==> Geometry <==

    Molecular point group: c1
    Full point group: C1

    Geometry (in Angstrom), charge = 0, multiplicity = 1:

       Center              X                  Y                   Z               Mass       
    ------------   -----------------  -----------------  -----------------  -----------------
      Gh(N)           1.559771199419     0.229787560315    -1.834629267813    14.003074004430
      Gh(C)           0.956650199419    -0.927921439685    -1.533622267813    12.000000000000
      Gh(H)           1.600929199419    -1.796942439685    -1.475803267813     1.007825032230
      Gh(C)          -0.410867800581    -1.053580439685    -1.297188267813    12.000000000000
      Gh(H)          -0.831134800581    -2.016498439685    -1.044584267813     1.007825032230
      Gh(C)          -1.208514800581     0.081796560315    -1.382751267813    12.000000000000
      Gh(H)          -2.273399800581     0.024777560315    -1.204705267813     1.007825032230
      Gh(C)          -0.599837800581     1.292650560315    -1.698253267813    12.000000000000
      Gh(H)          -1.174521800581     2.204738560315    -1.778611267813     1.007825032230
      Gh(C)           0.775837199419     1.314944560315    -1.910389267813    12.000000000000
      Gh(H)           1.275722199419     2.244032560315    -2.156675267813     1.007825032230
         N           -0.496665800581    -1.498394439685     1.831590732187    14.003074004430
         C           -1.429144800581    -0.537765439685     1.905441732187    12.000000000000
         H           -2.431933800581    -0.868720439685     2.147634732187     1.007825032230
         C           -1.167141800581     0.813302560315     1.696062732187    12.000000000000
         H           -1.965698800581     1.537808560315     1.774333732187     1.007825032230
         C            0.132286199419     1.202544560315     1.385793732187    12.000000000000
         H            0.374270199419     2.241542560315     1.209922732187     1.007825032230
         C            1.111845199419     0.219646560315     1.302432732187    12.000000000000
         H            2.134146199419     0.466391560315     1.053995732187     1.007825032230
         C            0.749365199419    -1.105491439685     1.535625732187    12.000000000000
         H            1.493226199419    -1.891046439685     1.479176732187     1.007825032230

  Running in c1 symmetry.

  Rotational constants: A =      0.05515  B =      0.02853  C =      0.02707 [cm^-1]
  Rotational constants: A =   1653.31533  B =    855.37853  C =    811.65145 [MHz]
  Nuclear repulsion =  206.227494131204310

  Charge       = 0
  Multiplicity = 1
  Electrons    = 42
  Nalpha       = 21
  Nbeta        = 21

  ==> Algorithm <==

  SCF Algorithm Type is DF.
  DIIS enabled.
  MOM disabled.
  Fractional occupation disabled.
  Guess Type is SAD.
  Energy threshold   = 1.00e-07
  Density threshold  = 1.00e-08
  Integral threshold = 0.00e+00

  ==> Primary Basis <==

  Basis Set: AUG-CC-PVTZ
    Blend: AUG-CC-PVTZ
    Number of shells: 258
    Number of basis function: 782
    Number of Cartesian functions: 910
    Spherical Harmonics?: true
    Max angular momentum: 3

   => Loading Basis Set <=

    Name: (AUG-CC-PVTZ AUX)
    Role: JKFIT
    Keyword: DF_BASIS_SCF
    atoms 1, 12                              entry N          line   224 file /home/liuchw/anaconda3/envs/psi4env/share/psi4/basis/aug-cc-pvtz-jkfit.gbs 
    atoms 2, 4, 6, 8, 10, 13, 15, 17, 19, 21 entry C          line   162 file /home/liuchw/anaconda3/envs/psi4env/share/psi4/basis/aug-cc-pvtz-jkfit.gbs 
    atoms 3, 5, 7, 9, 11, 14, 16, 18, 20, 22 entry H          line    70 file /home/liuchw/anaconda3/envs/psi4env/share/psi4/basis/aug-cc-pvtz-jkfit.gbs 

  ==> Pre-Iterations <==

   -------------------------------------------------------
    Irrep   Nso     Nmo     Nalpha   Nbeta   Ndocc  Nsocc
   -------------------------------------------------------
     A        782     782       0       0       0       0
   -------------------------------------------------------
    Total     782     782      21      21      21       0
   -------------------------------------------------------

  ==> Integral Setup <==

  DFHelper Memory: AOs need 7.709 GiB; user supplied 27.940 GiB. Using in-core AOs.

  ==> MemDFJK: Density-Fitted J/K Matrices <==

    J tasked:                   Yes
    K tasked:                   Yes
    wK tasked:                   No
    OpenMP threads:               6
    Memory [MiB]:             28610
    Algorithm:                 Core
    Schwarz Cutoff:           1E-12
    Mask sparsity (%):       3.1475
    Fitting Condition:        1E-10

   => Auxiliary Basis Set <=

  Basis Set: (AUG-CC-PVTZ AUX)
    Blend: AUG-CC-PVTZ-JKFIT
    Number of shells: 500
    Number of basis function: 1708
    Number of Cartesian functions: 2122
    Spherical Harmonics?: true
    Max angular momentum: 4

  Minimum eigenvalue in the overlap matrix is 1.0228028957E-06.
  Using Symmetric Orthogonalization.

  SCF Guess: Superposition of Atomic Densities via on-the-fly atomic UHF.

  ==> Iterations <==

                           Total Energy        Delta E     RMS |[F,P]|

   @DF-RHF iter SAD:  -246.15765489416401   -2.46158e+02   0.00000e+00 
   @DF-RHF iter   1:  -246.63342002586108   -4.75765e-01   6.30451e-04 DIIS
   @DF-RHF iter   2:  -246.75348427461893   -1.20064e-01   2.88788e-04 DIIS
   @DF-RHF iter   3:  -246.77742358685686   -2.39393e-02   5.57939e-05 DIIS
   @DF-RHF iter   4:  -246.77880194639471   -1.37836e-03   1.60739e-05 DIIS
   @DF-RHF iter   5:  -246.77887943613624   -7.74897e-05   5.35873e-06 DIIS
   @DF-RHF iter   6:  -246.77888985519212   -1.04191e-05   1.20991e-06 DIIS
   @DF-RHF iter   7:  -246.77889058421243   -7.29020e-07   4.16534e-07 DIIS
   @DF-RHF iter   8:  -246.77889067116632   -8.69539e-08   1.71558e-07 DIIS
   @DF-RHF iter   9:  -246.77889069504545   -2.38791e-08   4.66341e-08 DIIS
   @DF-RHF iter  10:  -246.77889069763484   -2.58939e-09   1.70585e-08 DIIS
   @DF-RHF iter  11:  -246.77889069812019   -4.85358e-10   1.01618e-08 DIIS
   @DF-RHF iter  12:  -246.77889069825849   -1.38300e-10   3.44492e-09 DIIS
  Energy and wave function converged.


  ==> Post-Iterations <==

    Orbital Energies [Eh]
    ---------------------

    Doubly Occupied:                                                      

       1A    -15.567530     2A    -11.275550     3A    -11.275473  
       4A    -11.260712     5A    -11.242605     6A    -11.242548  
       7A     -1.257047     8A     -1.090432     9A     -1.033876  
      10A     -0.859822    11A     -0.856169    12A     -0.722260  
      13A     -0.660912    14A     -0.654619    15A     -0.598432  
      16A     -0.577669    17A     -0.541541    18A     -0.520208  
      19A     -0.420185    20A     -0.384460    21A     -0.348083  

    Virtual:                                                              

      22A      0.020338    23A      0.029710    24A      0.032789  
      25A      0.036313    26A      0.044404    27A      0.047113  
      28A      0.047903    29A      0.049700    30A      0.062549  
      31A      0.066435    32A      0.074458    33A      0.082817  
      34A      0.088676    35A      0.092491    36A      0.094649  
      37A      0.097939    38A      0.099555    39A      0.102328  
      40A      0.106249    41A      0.112898    42A      0.116794  
      43A      0.118666    44A      0.120419    45A      0.122451  
      46A      0.123717    47A      0.128920    48A      0.131184  
      49A      0.135087    50A      0.145140    51A      0.146351  
      52A      0.149370    53A      0.150315    54A      0.153547  
      55A      0.155428    56A      0.156322    57A      0.159274  
      58A      0.161826    59A      0.174683    60A      0.178677  
      61A      0.181400    62A      0.184869    63A      0.185567  
      64A      0.193837    65A      0.195739    66A      0.201327  
      67A      0.207198    68A      0.210199    69A      0.223048  
      70A      0.224421    71A      0.238437    72A      0.241463  
      73A      0.249696    74A      0.251282    75A      0.255081  
      76A      0.257640    77A      0.261144    78A      0.265049  
      79A      0.269061    80A      0.272373    81A      0.273747  
      82A      0.278427    83A      0.287828    84A      0.295476  
      85A      0.297574    86A      0.306727    87A      0.310810  
      88A      0.315574    89A      0.326086    90A      0.329370  
      91A      0.336577    92A      0.338440    93A      0.340222  
      94A      0.345049    95A      0.350455    96A      0.354244  
      97A      0.357666    98A      0.364144    99A      0.366542  
     100A      0.373303   101A      0.375947   102A      0.379173  
     103A      0.381087   104A      0.384452   105A      0.393048  
     106A      0.397277   107A      0.405864   108A      0.406988  
     109A      0.409301   110A      0.414202   111A      0.420956  
     112A      0.426375   113A      0.426566   114A      0.429847  
     115A      0.432158   116A      0.438509   117A      0.447261  
     118A      0.448561   119A      0.451242   120A      0.456845  
     121A      0.464233   122A      0.474769   123A      0.475809  
     124A      0.478231   125A      0.488153   126A      0.489528  
     127A      0.492093   128A      0.496971   129A      0.500380  
     130A      0.505045   131A      0.508068   132A      0.511728  
     133A      0.513465   134A      0.518489   135A      0.525937  
     136A      0.529482   137A      0.534777   138A      0.538038  
     139A      0.541146   140A      0.551058   141A      0.554393  
     142A      0.555396   143A      0.558083   144A      0.561780  
     145A      0.571600   146A      0.573532   147A      0.578730  
     148A      0.582709   149A      0.585556   150A      0.591299  
     151A      0.595529   152A      0.604091   153A      0.608607  
     154A      0.614886   155A      0.622183   156A      0.628303  
     157A      0.631615   158A      0.637296   159A      0.640863  
     160A      0.644210   161A      0.652898   162A      0.657301  
     163A      0.658841   164A      0.667663   165A      0.674426  
     166A      0.677732   167A      0.680509   168A      0.687255  
     169A      0.695010   170A      0.698351   171A      0.700263  
     172A      0.708424   173A      0.709420   174A      0.719809  
     175A      0.724217   176A      0.734880   177A      0.735468  
     178A      0.739442   179A      0.743902   180A      0.745895  
     181A      0.754884   182A      0.756294   183A      0.768966  
     184A      0.771284   185A      0.774856   186A      0.786512  
     187A      0.790698   188A      0.794124   189A      0.800466  
     190A      0.804758   191A      0.810536   192A      0.814189  
     193A      0.822126   194A      0.824152   195A      0.831187  
     196A      0.839371   197A      0.849245   198A      0.858014  
     199A      0.861512   200A      0.864503   201A      0.871311  
     202A      0.884378   203A      0.889972   204A      0.897674  
     205A      0.903445   206A      0.904162   207A      0.908542  
     208A      0.912373   209A      0.918102   210A      0.924545  
     211A      0.927057   212A      0.936103   213A      0.946491  
     214A      0.948495   215A      0.948992   216A      0.955579  
     217A      0.963911   218A      0.970983   219A      0.972984  
     220A      0.982927   221A      0.990471   222A      0.995462  
     223A      0.996877   224A      1.001974   225A      1.011998  
     226A      1.014774   227A      1.024296   228A      1.032076  
     229A      1.043434   230A      1.048195   231A      1.057532  
     232A      1.064152   233A      1.068906   234A      1.074352  
     235A      1.081350   236A      1.094065   237A      1.096869  
     238A      1.103881   239A      1.108283   240A      1.112384  
     241A      1.117252   242A      1.120344   243A      1.128215  
     244A      1.134453   245A      1.136588   246A      1.140855  
     247A      1.145468   248A      1.152414   249A      1.156106  
     250A      1.163587   251A      1.168539   252A      1.169449  
     253A      1.173606   254A      1.182651   255A      1.187728  
     256A      1.194133   257A      1.203208   258A      1.210069  
     259A      1.212976   260A      1.220133   261A      1.223169  
     262A      1.228265   263A      1.232279   264A      1.240799  
     265A      1.241458   266A      1.249511   267A      1.254603  
     268A      1.259307   269A      1.260583   270A      1.264284  
     271A      1.272069   272A      1.282438   273A      1.286546  
     274A      1.290151   275A      1.293947   276A      1.308353  
     277A      1.311331   278A      1.313018   279A      1.323060  
     280A      1.327891   281A      1.331762   282A      1.335358  
     283A      1.340591   284A      1.348072   285A      1.350553  
     286A      1.358678   287A      1.366393   288A      1.369422  
     289A      1.381969   290A      1.387800   291A      1.396467  
     292A      1.405547   293A      1.412899   294A      1.414886  
     295A      1.422770   296A      1.426063   297A      1.433212  
     298A      1.440264   299A      1.449425   300A      1.455134  
     301A      1.457421   302A      1.465716   303A      1.475347  
     304A      1.476214   305A      1.492590   306A      1.501816  
     307A      1.507716   308A      1.519077   309A      1.523058  
     310A      1.531784   311A      1.538924   312A      1.548906  
     313A      1.550092   314A      1.555846   315A      1.563504  
     316A      1.574330   317A      1.579424   318A      1.582722  
     319A      1.590559   320A      1.591353   321A      1.598957  
     322A      1.604364   323A      1.608657   324A      1.612607  
     325A      1.617450   326A      1.634265   327A      1.636017  
     328A      1.637618   329A      1.646570   330A      1.654837  
     331A      1.657150   332A      1.663471   333A      1.678712  
     334A      1.686958   335A      1.689743   336A      1.697850  
     337A      1.700576   338A      1.714635   339A      1.726686  
     340A      1.732743   341A      1.736004   342A      1.750987  
     343A      1.756560   344A      1.761260   345A      1.774669  
     346A      1.782891   347A      1.786431   348A      1.794193  
     349A      1.805835   350A      1.809393   351A      1.814458  
     352A      1.820601   353A      1.831918   354A      1.842761  
     355A      1.844558   356A      1.862241   357A      1.866545  
     358A      1.873760   359A      1.878973   360A      1.893117  
     361A      1.897437   362A      1.909212   363A      1.919258  
     364A      1.924517   365A      1.932095   366A      1.935913  
     367A      1.949294   368A      1.950985   369A      1.966332  
     370A      1.970481   371A      1.978938   372A      1.993543  
     373A      1.997446   374A      2.009239   375A      2.016200  
     376A      2.025554   377A      2.028372   378A      2.034528  
     379A      2.045374   380A      2.050307   381A      2.062079  
     382A      2.067639   383A      2.072626   384A      2.083111  
     385A      2.087547   386A      2.094898   387A      2.101815  
     388A      2.115269   389A      2.122506   390A      2.125247  
     391A      2.131834   392A      2.138812   393A      2.157684  
     394A      2.163318   395A      2.172318   396A      2.188805  
     397A      2.190363   398A      2.200304   399A      2.206215  
     400A      2.220312   401A      2.227023   402A      2.243209  
     403A      2.246560   404A      2.254757   405A      2.257422  
     406A      2.265022   407A      2.282456   408A      2.292500  
     409A      2.302575   410A      2.305190   411A      2.310998  
     412A      2.324995   413A      2.330252   414A      2.337226  
     415A      2.350158   416A      2.354600   417A      2.359400  
     418A      2.369722   419A      2.372351   420A      2.386379  
     421A      2.392189   422A      2.399015   423A      2.416121  
     424A      2.432083   425A      2.439000   426A      2.442738  
     427A      2.460890   428A      2.468509   429A      2.480769  
     430A      2.484539   431A      2.496018   432A      2.507355  
     433A      2.507949   434A      2.530961   435A      2.533455  
     436A      2.537085   437A      2.543884   438A      2.567591  
     439A      2.569723   440A      2.582088   441A      2.587916  
     442A      2.597665   443A      2.608878   444A      2.616228  
     445A      2.629310   446A      2.632460   447A      2.638009  
     448A      2.654473   449A      2.656981   450A      2.669171  
     451A      2.673768   452A      2.691420   453A      2.697585  
     454A      2.718057   455A      2.722442   456A      2.738575  
     457A      2.743792   458A      2.765328   459A      2.776938  
     460A      2.779821   461A      2.790400   462A      2.829947  
     463A      2.839603   464A      2.859456   465A      2.862749  
     466A      2.897786   467A      2.906426   468A      2.948171  
     469A      2.956380   470A      2.970879   471A      3.006826  
     472A      3.013466   473A      3.020223   474A      3.040345  
     475A      3.050090   476A      3.088291   477A      3.103022  
     478A      3.127447   479A      3.162833   480A      3.175381  
     481A      3.226043   482A      3.252829   483A      3.290828  
     484A      3.301822   485A      3.308499   486A      3.319625  
     487A      3.331419   488A      3.355995   489A      3.367115  
     490A      3.391275   491A      3.405548   492A      3.414260  
     493A      3.417034   494A      3.444486   495A      3.457695  
     496A      3.471363   497A      3.472613   498A      3.508406  
     499A      3.511872   500A      3.521088   501A      3.551967  
     502A      3.567576   503A      3.576203   504A      3.582290  
     505A      3.606534   506A      3.615610   507A      3.629852  
     508A      3.645535   509A      3.662114   510A      3.675335  
     511A      3.679979   512A      3.702641   513A      3.718804  
     514A      3.736664   515A      3.739933   516A      3.759159  
     517A      3.769074   518A      3.771368   519A      3.796474  
     520A      3.823321   521A      3.840997   522A      3.846932  
     523A      3.857296   524A      3.872606   525A      3.890606  
     526A      3.910425   527A      3.918246   528A      3.926543  
     529A      3.945142   530A      3.959278   531A      3.970815  
     532A      3.990540   533A      3.991608   534A      4.007419  
     535A      4.007727   536A      4.017631   537A      4.040042  
     538A      4.054888   539A      4.069369   540A      4.086607  
     541A      4.097430   542A      4.113971   543A      4.123210  
     544A      4.132375   545A      4.132901   546A      4.147283  
     547A      4.156632   548A      4.160564   549A      4.165610  
     550A      4.185232   551A      4.190967   552A      4.202898  
     553A      4.208557   554A      4.210184   555A      4.234487  
     556A      4.237862   557A      4.251385   558A      4.253867  
     559A      4.259136   560A      4.283252   561A      4.290168  
     562A      4.295309   563A      4.305592   564A      4.314748  
     565A      4.330615   566A      4.340180   567A      4.344543  
     568A      4.356049   569A      4.374170   570A      4.392537  
     571A      4.395419   572A      4.417699   573A      4.426350  
     574A      4.429899   575A      4.431567   576A      4.443226  
     577A      4.459817   578A      4.466356   579A      4.468892  
     580A      4.485574   581A      4.494563   582A      4.505152  
     583A      4.517573   584A      4.531565   585A      4.536781  
     586A      4.547322   587A      4.554969   588A      4.566301  
     589A      4.571137   590A      4.582150   591A      4.582407  
     592A      4.606391   593A      4.638456   594A      4.641492  
     595A      4.659946   596A      4.675161   597A      4.681866  
     598A      4.692318   599A      4.703202   600A      4.711380  
     601A      4.722467   602A      4.740844   603A      4.758352  
     604A      4.781179   605A      4.788004   606A      4.803455  
     607A      4.829971   608A      4.832054   609A      4.846109  
     610A      4.852429   611A      4.874680   612A      4.885684  
     613A      4.904913   614A      4.909774   615A      4.915767  
     616A      4.923937   617A      4.958801   618A      4.962229  
     619A      4.976219   620A      4.983288   621A      4.989086  
     622A      5.000739   623A      5.012726   624A      5.016215  
     625A      5.034476   626A      5.038707   627A      5.041966  
     628A      5.060014   629A      5.078620   630A      5.091595  
     631A      5.104971   632A      5.108958   633A      5.113977  
     634A      5.128734   635A      5.142809   636A      5.152575  
     637A      5.161787   638A      5.170030   639A      5.185352  
     640A      5.197638   641A      5.221353   642A      5.231908  
     643A      5.238600   644A      5.240629   645A      5.256685  
     646A      5.267206   647A      5.269547   648A      5.282916  
     649A      5.285580   650A      5.294987   651A      5.303467  
     652A      5.328079   653A      5.336182   654A      5.354295  
     655A      5.358894   656A      5.377644   657A      5.388933  
     658A      5.415483   659A      5.434956   660A      5.450066  
     661A      5.459992   662A      5.466019   663A      5.478144  
     664A      5.487121   665A      5.496543   666A      5.525231  
     667A      5.541957   668A      5.546870   669A      5.562650  
     670A      5.577005   671A      5.598742   672A      5.606681  
     673A      5.642066   674A      5.656917   675A      5.681842  
     676A      5.692157   677A      5.714644   678A      5.747590  
     679A      5.779331   680A      5.787246   681A      5.799831  
     682A      5.815320   683A      5.829150   684A      5.833769  
     685A      5.851622   686A      5.856122   687A      5.875374  
     688A      5.891444   689A      5.923033   690A      5.932898  
     691A      5.941917   692A      5.972825   693A      5.985935  
     694A      6.000848   695A      6.020504   696A      6.054170  
     697A      6.061489   698A      6.077805   699A      6.094457  
     700A      6.122384   701A      6.135248   702A      6.161196  
     703A      6.173276   704A      6.190433   705A      6.239984  
     706A      6.251154   707A      6.286319   708A      6.293545  
[...]
     961A      6.003465   962A      6.021623   963A      6.029060  
     964A      6.062924   965A      6.073446   966A      6.101653  
     967A      6.106247   968A      6.122566   969A      6.129202  
     970A      6.133396   971A      6.162504   972A      6.169753  
     973A      6.169901   974A      6.209068   975A      6.210162  
     976A      6.224560   977A      6.245977   978A      6.248874  
     979A      6.261184   980A      6.277758   981A      6.278885  
     982A      6.297602   983A      6.300510   984A      6.347892  
     985A      6.362309   986A      6.384489   987A      6.388201  
     988A      6.403572   989A      6.409992   990A      6.419983  
     991A      6.423672   992A      6.466986   993A      6.469883  
     994A      6.485978   995A      6.506279   996A      6.506987  
     997A      6.527432   998A      6.538654   999A      6.539186  
    1000A      6.548868  1001A      6.549488  1002A      6.559510  
    1003A      6.589147  1004A      6.593689  1005A      6.608572  
    1006A      6.613248  1007A      6.629197  1008A      6.635708  
    1009A      6.652442  1010A      6.666994  1011A      6.670465  
    1012A      6.673478  1013A      6.684444  1014A      6.694258  
    1015A      6.709804  1016A      6.710669  1017A      6.737968  
    1018A      6.738699  1019A      6.751096  1020A      6.757792  
    1021A      6.764860  1022A      6.767340  1023A      6.783005  
    1024A      6.787029  1025A      6.807891  1026A      6.817601  
    1027A      6.825885  1028A      6.831585  1029A      6.844306  
    1030A      6.852162  1031A      6.854841  1032A      6.862055  
    1033A      6.871898  1034A      6.895794  1035A      6.898853  
    1036A      6.906077  1037A      6.907181  1038A      6.920537  
    1039A      6.924248  1040A      6.938871  1041A      6.939846  
    1042A      6.951815  1043A      6.957669  1044A      6.964628  
    1045A      6.970621  1046A      6.973303  1047A      6.996669  
    1048A      7.000827  1049A      7.004074  1050A      7.009367  
    1051A      7.020622  1052A      7.028103  1053A      7.035994  
    1054A      7.036964  1055A      7.048550  1056A      7.058357  
    1057A      7.069643  1058A      7.078442  1059A      7.079678  
    1060A      7.089094  1061A      7.097608  1062A      7.098889  
    1063A      7.104169  1064A      7.108526  1065A      7.121346  
    1066A      7.128975  1067A      7.140415  1068A      7.143222  
    1069A      7.147697  1070A      7.161974  1071A      7.163982  
    1072A      7.170675  1073A      7.175918  1074A      7.176356  
    1075A      7.197723  1076A      7.200243  1077A      7.219235  
    1078A      7.221036  1079A      7.223307  1080A      7.231985  
    1081A      7.239256  1082A      7.250538  1083A      7.265660  
    1084A      7.272418  1085A      7.278600  1086A      7.279281  
    1087A      7.291994  1088A      7.299292  1089A      7.301353  
    1090A      7.311515  1091A      7.316373  1092A      7.317481  
    1093A      7.329355  1094A      7.342287  1095A      7.344391  
    1096A      7.349725  1097A      7.369049  1098A      7.387284  
    1099A      7.387588  1100A      7.404921  1101A      7.407036  
    1102A      7.419130  1103A      7.425680  1104A      7.426086  
    1105A      7.436675  1106A      7.449466  1107A      7.450494  
    1108A      7.470517  1109A      7.478743  1110A      7.482831  
    1111A      7.488296  1112A      7.497854  1113A      7.498866  
    1114A      7.516965  1115A      7.533004  1116A      7.539636  
    1117A      7.545857  1118A      7.566448  1119A      7.571751  
    1120A      7.577869  1121A      7.598379  1122A      7.610308  
    1123A      7.633221  1124A      7.643637  1125A      7.657151  
    1126A      7.667880  1127A      7.677990  1128A      7.697933  
    1129A      7.713297  1130A      7.714894  1131A      7.720637  
    1132A      7.723295  1133A      7.742608  1134A      7.747392  
    1135A      7.767728  1136A      7.777136  1137A      7.783704  
    1138A      7.799301  1139A      7.822935  1140A      7.829349  
    1141A      7.833519  1142A      7.842279  1143A      7.843612  
    1144A      7.852727  1145A      7.853568  1146A      7.865067  
    1147A      7.912845  1148A      7.918122  1149A      7.918968  
    1150A      7.927280  1151A      7.935934  1152A      7.936233  
    1153A      7.953765  1154A      7.962164  1155A      8.004445  
    1156A      8.013939  1157A      8.023731  1158A      8.044985  
    1159A      8.047437  1160A      8.053363  1161A      8.071826  
    1162A      8.080866  1163A      8.084873  1164A      8.099298  
    1165A      8.106089  1166A      8.120012  1167A      8.122968  
    1168A      8.150460  1169A      8.158708  1170A      8.166279  
    1171A      8.172874  1172A      8.194458  1173A      8.194691  
    1174A      8.201539  1175A      8.205815  1176A      8.227184  
    1177A      8.233969  1178A      8.242359  1179A      8.324617  
    1180A      8.325338  1181A      8.343353  1182A      8.348035  
    1183A      8.366259  1184A      8.366462  1185A      8.399203  
    1186A      8.412817  1187A      8.427450  1188A      8.428021  
    1189A      8.440534  1190A      8.441987  1191A      8.500562  
    1192A      8.514936  1193A      8.529066  1194A      8.546669  
    1195A      8.598947  1196A      8.610013  1197A      8.624625  
    1198A      8.661301  1199A      8.695814  1200A      8.711839  
    1201A      8.712939  1202A      8.720120  1203A      8.734734  
    1204A      8.741101  1205A      8.767697  1206A      8.776270  
    1207A      8.800034  1208A      8.820062  1209A      8.829977  
    1210A      8.837695  1211A      8.859427  1212A      8.860322  
    1213A      8.878018  1214A      8.888254  1215A      8.889454  
    1216A      8.906293  1217A      8.920226  1218A      8.932668  
    1219A      8.940012  1220A      8.945580  1221A      8.952660  
    1222A      8.955103  1223A      8.969432  1224A      8.984232  
    1225A      8.986907  1226A      8.993729  1227A      9.009299  
    1228A      9.009731  1229A      9.013575  1230A      9.018182  
    1231A      9.025995  1232A      9.032081  1233A      9.036202  
    1234A      9.044601  1235A      9.057281  1236A      9.090718  
    1237A      9.118786  1238A      9.132941  1239A      9.136313  
    1240A      9.154401  1241A      9.169017  1242A      9.179474  
    1243A      9.187641  1244A      9.213556  1245A      9.224813  
    1246A      9.243122  1247A      9.256061  1248A      9.270762  
    1249A      9.271766  1250A      9.283830  1251A      9.300246  
    1252A      9.315921  1253A      9.320525  1254A      9.352378  
    1255A      9.402356  1256A      9.410241  1257A      9.429322  
    1258A      9.436618  1259A      9.453884  1260A      9.460719  
    1261A      9.473041  1262A      9.476348  1263A      9.485286  
    1264A      9.495576  1265A      9.497350  1266A      9.512735  
    1267A      9.522009  1268A      9.535088  1269A      9.581352  
    1270A      9.591328  1271A      9.610721  1272A      9.611479  
    1273A      9.624769  1274A      9.626204  1275A      9.643925  
    1276A      9.654369  1277A      9.670949  1278A      9.680558  
    1279A      9.696802  1280A      9.697837  1281A      9.705731  
    1282A      9.728515  1283A      9.744291  1284A      9.750169  
    1285A      9.764870  1286A      9.772593  1287A      9.785190  
    1288A      9.787522  1289A      9.803008  1290A      9.822475  
    1291A      9.834017  1292A      9.838352  1293A      9.868707  
    1294A      9.877496  1295A      9.900463  1296A      9.906123  
    1297A      9.967828  1298A      9.979128  1299A     10.017073  
    1300A     10.030220  1301A     10.037103  1302A     10.056224  
    1303A     10.077354  1304A     10.086458  1305A     10.099445  
    1306A     10.100498  1307A     10.104185  1308A     10.115171  
    1309A     10.135554  1310A     10.139199  1311A     10.143547  
    1312A     10.159135  1313A     10.189847  1314A     10.196945  
    1315A     10.273214  1316A     10.278451  1317A     10.284870  
    1318A     10.286694  1319A     10.291785  1320A     10.312970  
    1321A     10.314415  1322A     10.331038  1323A     10.343384  
    1324A     10.346029  1325A     10.374513  1326A     10.392683  
    1327A     10.406547  1328A     10.410674  1329A     10.428618  
    1330A     10.440719  1331A     10.452564  1332A     10.452825  
    1333A     10.513228  1334A     10.519873  1335A     10.525869  
    1336A     10.531659  1337A     10.534410  1338A     10.561813  
    1339A     10.584957  1340A     10.588265  1341A     10.592241  
    1342A     10.606726  1343A     10.627764  1344A     10.635072  
    1345A     10.703565  1346A     10.706878  1347A     10.708570  
    1348A     10.719243  1349A     10.766108  1350A     10.768794  
    1351A     10.781176  1352A     10.790209  1353A     10.804264  
    1354A     10.828141  1355A     10.869703  1356A     10.871387  
    1357A     10.902057  1358A     10.903190  1359A     10.923692  
    1360A     10.931948  1361A     10.950945  1362A     10.966828  
    1363A     11.125784  1364A     11.133070  1365A     11.135295  
    1366A     11.176098  1367A     11.236142  1368A     11.244301  
    1369A     11.271920  1370A     11.275246  1371A     11.401134  
    1372A     11.416133  1373A     11.440527  1374A     11.450552  
    1375A     11.490541  1376A     11.495248  1377A     11.542894  
    1378A     11.548038  1379A     11.629240  1380A     11.655716  
    1381A     11.720012  1382A     11.722790  1383A     11.780084  
    1384A     11.784764  1385A     11.805309  1386A     11.825025  
    1387A     11.869775  1388A     11.871056  1389A     11.990077  
    1390A     12.014410  1391A     12.299692  1392A     12.301735  
    1393A     12.574390  1394A     12.577012  1395A     12.786542  
    1396A     12.812439  1397A     12.932236  1398A     12.936794  
    1399A     13.316973  1400A     13.355153  1401A     13.478268  
    1402A     13.498907  1403A     13.508236  1404A     13.511769  
    1405A     13.597235  1406A     13.610528  1407A     13.717504  
    1408A     13.726874  1409A     26.344787  1410A     26.433772  
    1411A     26.561395  1412A     26.632513  1413A     26.649842  
    1414A     26.790322  1415A     27.115865  1416A     27.189294  
    1417A     27.282958  1418A     27.383480  1419A     34.554664  
    1420A     34.661493  

    Final Occupation by Irrep:
              A 
    DOCC [    42 ]

  @DF-RHF Final Energy:  -493.56588436331168

   => Energetics <=

    Nuclear Repulsion Energy =            660.4028101566585747
    One-Electron Energy =               -1978.6693106744437500
    Two-Electron Energy =                 824.7006161544734368
    Total Energy =                       -493.5658843633116248

Computation Completed


Properties will be evaluated at   0.000000,   0.000000,   0.000000 [a0]

Properties computed using the SCF density matrix

  Nuclear Dipole Moment: [e a0]
     X:    -1.6890      Y:     2.0156      Z:     0.0044

  Electronic Dipole Moment: [e a0]
     X:     1.0434      Y:    -1.2451      Z:    -0.0010

  Dipole Moment: [e a0]
     X:    -0.6456      Y:     0.7705      Z:     0.0034     Total:     1.0052

  Dipole Moment: [D]
     X:    -1.6410      Y:     1.9583      Z:     0.0085     Total:     2.5550


*** tstop() called on node52.bme.utexas.edu at Sat Apr 11 19:06:22 2020
Module time:
	user time   =    2657.13 seconds =      44.29 minutes
	system time =      13.45 seconds =       0.22 minutes
	total time  =        468 seconds =       7.80 minutes
Total time:
	user time   =    9557.11 seconds =     159.29 minutes
	system time =     134.69 seconds =       2.24 minutes
	total time  =       1804 seconds =      30.07 minutes

*** tstart() called on node52.bme.utexas.edu
*** at Sat Apr 11 19:06:22 2020


  //>>>>>>>>>>>>>>>>>>>>>>>>>>>>>>>>>>>//
  //               DFMP2               //
  //<<<<<<<<<<<<<<<<<<<<<<<<<<<<<<<<<<<//

   => Loading Basis Set <=

    Name: (AUG-CC-PVQZ AUX)
    Role: RIFIT
    Keyword: DF_BASIS_MP2
    atoms 1, 12                              entry N          line   258 file /home/liuchw/anaconda3/envs/psi4env/share/psi4/basis/aug-cc-pvqz-ri.gbs 
    atoms 2, 4, 6, 8, 10, 13, 15, 17, 19, 21 entry C          line   184 file /home/liuchw/anaconda3/envs/psi4env/share/psi4/basis/aug-cc-pvqz-ri.gbs 
    atoms 3, 5, 7, 9, 11, 14, 16, 18, 20, 22 entry H          line    30 file /home/liuchw/anaconda3/envs/psi4env/share/psi4/basis/aug-cc-pvqz-ri.gbs 

	 --------------------------------------------------------
	                          DF-MP2                         
	      2nd-Order Density-Fitted Moller-Plesset Theory     
	              RMP2 Wavefunction,   6 Threads             
	                                                         
	        Rob Parrish, Justin Turney, Andy Simmonett,      
	           Ed Hohenstein, and C. David Sherrill          
	 --------------------------------------------------------

   => Auxiliary Basis Set <=

  Basis Set: (AUG-CC-PVQZ AUX)
    Blend: AUG-CC-PVQZ-RI
    Number of shells: 632
    Number of basis function: 2816
    Number of Cartesian functions: 3894
    Spherical Harmonics?: true
    Max angular momentum: 5

	 --------------------------------------------------------
	                 NBF =  1420, NAUX =  2816
	 --------------------------------------------------------
	   CLASS    FOCC     OCC    AOCC    AVIR     VIR    FVIR
	   PAIRS       0      42      42    1378    1378       0
	 --------------------------------------------------------

	-----------------------------------------------------------
	 ==================> DF-MP2 Energies <==================== 
	-----------------------------------------------------------
	 Reference Energy          =    -493.5658843633116817 [Eh]
	 Singles Energy            =      -0.0000000000000000 [Eh]
	 Same-Spin Energy          =      -0.5816233341313637 [Eh]
	 Opposite-Spin Energy      =      -1.9019361171929638 [Eh]
	 Correlation Energy        =      -2.4835594513243278 [Eh]
	 Total Energy              =    -496.0494438146359926 [Eh]
	-----------------------------------------------------------
	 ================> DF-SCS-MP2 Energies <================== 
	-----------------------------------------------------------
	 SCS Same-Spin Scale       =       0.3333333333333333 [-]
	 SCS Opposite-Spin Scale   =       1.2000000000000000 [-]
	 SCS Same-Spin Energy      =      -0.1938744447104546 [Eh]
	 SCS Opposite-Spin Energy  =      -2.2823233406315566 [Eh]
	 SCS Correlation Energy    =      -2.4761977853420110 [Eh]
	 SCS Total Energy          =    -496.0420821486537193 [Eh]
	-----------------------------------------------------------


*** tstop() called on node52.bme.utexas.edu at Sat Apr 11 19:09:23 2020
Module time:
	user time   =     852.10 seconds =      14.20 minutes
	system time =      23.31 seconds =       0.39 minutes
	total time  =        181 seconds =       3.02 minutes
Total time:
	user time   =   10409.21 seconds =     173.49 minutes
	system time =     158.00 seconds =       2.63 minutes
	total time  =       1985 seconds =      33.08 minutes

  //>>>>>>>>>>>>>>>>>>>>>>>>>>>>>>>>>>>//
  //  CBS Results: mp2/aug-cc-pv[tq]z  //
  //<<<<<<<<<<<<<<<<<<<<<<<<<<<<<<<<<<<//


   ==> HF <==

   HI-zeta (4) Energy:               -493.565884363312


   ==> Helgaker 2-point correlated extrapolation for method: MP2 <==

   LO-zeta (3) Energy:               -495.786874134219
   HI-zeta (4) Energy:               -496.049443814636
   Alpha (exponent) Value:             3.000000000000
   Extrapolated Energy:              -496.241048716562

   @Extrapolated MP2/(T,Q):          -496.241048716562



   ==> Helgaker 2-point correlated extrapolation for method: HF <==

   LO-zeta (3) Energy:               -493.537941466861
   HI-zeta (4) Energy:               -493.565884363312
   Alpha (exponent) Value:             3.000000000000
   Extrapolated Energy:              -493.586275125586

   @Extrapolated HF/(T,Q):           -493.586275125586


   ==> Components <==

  ---------------------------------------------------------------------------------------------------------
                          Method / Basis                      Rqd      Energy [Eh]   Variable
  ---------------------------------------------------------------------------------------------------------
                              hf / aug-cc-pvtz                  *    -493.53794147   HF TOTAL ENERGY
                             mp2 / aug-cc-pvtz                  *    -495.78687413   MP2 TOTAL ENERGY
                              hf / aug-cc-pvqz                  *    -493.56588436   HF TOTAL ENERGY
                             mp2 / aug-cc-pvqz                  *    -496.04944381   MP2 TOTAL ENERGY
  ---------------------------------------------------------------------------------------------------------

   ==> Stages <==

  ---------------------------------------------------------------------------------------------------------
      Stage               Method / Basis                       Wt      Energy [Eh]   Scheme
  ---------------------------------------------------------------------------------------------------------
        scf                   hf / aug-cc-pvqz                  1    -493.56588436   xtpl_highest_1
       corl                  mp2 / aug-cc-pv[tq]z               1    -496.24104872   corl_xtpl_helgaker_2
       corl                   hf / aug-cc-pv[tq]z              -1    -493.58627513   corl_xtpl_helgaker_2
  ---------------------------------------------------------------------------------------------------------

   ==> CBS <==

  ---------------------------------------------------------------------------------------------------------
      Stage               Method / Basis                               Energy [Eh]   Scheme
  ---------------------------------------------------------------------------------------------------------
        scf                   hf / aug-cc-pvqz                       -493.56588436   xtpl_highest_1
       corl                  mp2 / aug-cc-pv[tq]z                      -2.65477359   corl_xtpl_helgaker_2
      total                  CBS                                     -496.22065795   
  ---------------------------------------------------------------------------------------------------------
   => Loading Basis Set <=

    Name: DEF2-SVP
    Role: ORBITAL
    Keyword: BASIS
    atoms 1, 12                              entry N          line   110 file /home/liuchw/anaconda3/envs/psi4env/share/psi4/basis/def2-svp.gbs 
    atoms 2, 4, 6, 8, 10, 13, 15, 17, 19, 21 entry C          line    90 file /home/liuchw/anaconda3/envs/psi4env/share/psi4/basis/def2-svp.gbs 
    atoms 3, 5, 7, 9, 11, 14, 16, 18, 20, 22 entry H          line    15 file /home/liuchw/anaconda3/envs/psi4env/share/psi4/basis/def2-svp.gbs 


       N-Body: Complex Energy (fragments = (1, 2), basis = (1, 2):  -496.22065795428699)

   ==> N-Body: Counterpoise Corrected (CP) energies <==

   n-Body     Total Energy [Eh]       I.E. [kcal/mol]      Delta [kcal/mol]
        1     -496.212338288326        0.000000000000        0.000000000000
        2     -496.220914360384       -5.381566463885       -5.381566463885

   => Loading Basis Set <=

    Name: DEF2-SVP
    Role: ORBITAL
    Keyword: BASIS
    atoms 1, 12                              entry N          line   110 file /home/liuchw/anaconda3/envs/psi4env/share/psi4/basis/def2-svp.gbs 
    atoms 2, 4, 6, 8, 10, 13, 15, 17, 19, 21 entry C          line    90 file /home/liuchw/anaconda3/envs/psi4env/share/psi4/basis/def2-svp.gbs 
    atoms 3, 5, 7, 9, 11, 14, 16, 18, 20, 22 entry H          line    15 file /home/liuchw/anaconda3/envs/psi4env/share/psi4/basis/def2-svp.gbs 


    Psi4 stopped on: Saturday, 11 April 2020 07:09PM
    Psi4 wall time for execution: 0:33:06.62

*** Psi4 exiting successfully. Buy a developer a beer!
