
    -----------------------------------------------------------------------
          Psi4: An Open-Source Ab Initio Electronic Structure Package
                               Psi4 1.4a2.dev224 

                         Git: Rev {master} e453b16 


    R. M. Parrish, L. A. Burns, D. G. A. Smith, A. C. Simmonett,
    A. E. DePrince III, E. G. Hohenstein, U. Bozkaya, A. Yu. Sokolov,
    R. Di Remigio, R. M. Richard, J. F. Gonthier, A. M. James,
    H. R. McAlexander, A. Kumar, M. Saitow, X. Wang, B. P. Pritchard,
    P. Verma, H. F. Schaefer III, K. Patkowski, R. A. King, E. F. Valeev,
    F. A. Evangelista, J. M. Turney, T. D. Crawford, and C. D. Sherrill,
    J. Chem. Theory Comput. 13(7) pp 3185--3197 (2017).
    (doi: 10.1021/acs.jctc.7b00174)


                         Additional Contributions by
    P. Kraus, H. Kruse, M. H. Lechner, M. C. Schieber, R. A. Shaw,
    A. Alenaizan, R. Galvelis, Z. L. Glick, S. Lehtola, and J. P. Misiewicz

    -----------------------------------------------------------------------


    Psi4 started on: Saturday, 11 April 2020 06:48PM

    Process ID: 8234
    Host:       node37.bme.utexas.edu
    PSIDATADIR: /home/liuchw/anaconda3/envs/psi4env/share/psi4
    Memory:     500.0 MiB
    Threads:    8
    
  ==> Input File <==

--------------------------------------------------------------------------
#Generated by lconvert.py for cbs job

memory 40 GB

molecule  {
0 1
  C        0.8187470     0.8641720     0.1882860
  H        1.4661140     1.7166680     0.3447210
  C        1.3689970    -0.3905240    -0.0666980
  H        2.4430360    -0.5118620    -0.1105740
  C        0.5343790    -1.4884930    -0.2718880
  H        0.9608480    -2.4615640    -0.4755070
  C       -0.8491160    -1.3305070    -0.2198960
  H       -1.4970690    -2.1818600    -0.3795530
  C       -1.3994850    -0.0760300     0.0404340
  H       -2.4726870     0.0449080     0.0933820
  C       -0.5652920     1.0214030     0.2422790
  H       -0.9925570     1.9936610     0.4462580
--
0 1
  N       -2.0817000     0.0071050     2.3682840
  C       -1.4668140     1.1647730     2.6483480
  H       -2.1144180     2.0179440     2.8108600
  C       -0.0845990     1.3056200     2.7385190
  H        0.3472500     2.2692710     2.9697350
  C        0.7163520     0.1886410     2.5243050
  H        1.7939220     0.2590250     2.5791390
  C        0.0958000    -1.0200140     2.2306450
  H        0.6715750    -1.9156360     2.0465700
  C       -1.2947140    -1.0580520     2.1651960
  H       -1.8035670    -1.9865050     1.9363530
units angstrom
no_reorient
symmetry c1
}

set {
scf_type DF
mp2_type DF
e_convergence 7
reference rhf
}

energy('mp2/aug-cc-pv[tq]z', bsse_type='cp')
--------------------------------------------------------------------------

  Memory set to  37.253 GiB by Python driver.

Scratch directory: /scratch//


   ===> N-Body Interaction Abacus <===
        BSSE Treatment:                     cp
        Number of 1-body computations:     4
        Number of 2-body computations:     1

   ==> N-Body: Now computing 1-body complexes <==


       N-Body: Computing complex (1/4) with fragments (2,) in the basis of fragments (2,).


Scratch directory: /scratch//

  //>>>>>>>>>>>>>>>>>>>>>>>>>>>>>>>>>>>//
  //   CBS Setup: mp2/aug-cc-pv[tq]z   //
  //<<<<<<<<<<<<<<<<<<<<<<<<<<<<<<<<<<<//

    Naive listing of computations required.
             hf / aug-cc-pvqz              for  HF TOTAL ENERGY
            mp2 / aug-cc-pvtz              for  MP2 TOTAL ENERGY
            mp2 / aug-cc-pvqz              for  MP2 TOTAL ENERGY
             hf / aug-cc-pvtz              for  HF TOTAL ENERGY
             hf / aug-cc-pvqz              for  HF TOTAL ENERGY

    Enlightened listing of computations required.
            mp2 / aug-cc-pvtz              for  MP2 TOTAL ENERGY
            mp2 / aug-cc-pvqz              for  MP2 TOTAL ENERGY

    Full listing of computations to be obtained (required and bonus).
             hf / aug-cc-pvtz              for  HF TOTAL ENERGY
            mp2 / aug-cc-pvtz              for  MP2 TOTAL ENERGY
             hf / aug-cc-pvqz              for  HF TOTAL ENERGY
            mp2 / aug-cc-pvqz              for  MP2 TOTAL ENERGY

  //>>>>>>>>>>>>>>>>>>>>>>>>>>>>>>>>>>>>//
  // CBS Computation: MP2 / AUG-CC-PVTZ //
  //<<<<<<<<<<<<<<<<<<<<<<<<<<<<<<<<<<<<//


Scratch directory: /scratch//

*** tstart() called on node37.bme.utexas.edu
*** at Sat Apr 11 18:48:56 2020

   => Loading Basis Set <=

    Name: AUG-CC-PVTZ
    Role: ORBITAL
    Keyword: BASIS
    atoms 1              entry N          line   285 file /home/liuchw/anaconda3/envs/psi4env/share/psi4/basis/aug-cc-pvtz.gbs 
    atoms 2, 4, 6, 8, 10 entry C          line   239 file /home/liuchw/anaconda3/envs/psi4env/share/psi4/basis/aug-cc-pvtz.gbs 
    atoms 3, 5, 7, 9, 11 entry H          line    40 file /home/liuchw/anaconda3/envs/psi4env/share/psi4/basis/aug-cc-pvtz.gbs 


         ---------------------------------------------------------
                                   SCF
               by Justin Turney, Rob Parrish, Andy Simmonett
                          and Daniel G. A. Smith
                              RHF Reference
                        8 Threads,  38146 MiB Core
         ---------------------------------------------------------

  ==> Geometry <==

    Molecular point group: c1
    Full point group: C1

    Geometry (in Angstrom), charge = 0, multiplicity = 1:

       Center              X                  Y                   Z               Mass       
    ------------   -----------------  -----------------  -----------------  -----------------
         N           -1.726067142646     0.073885586279     1.145061730196    14.003074004430
         C           -1.111181142646     1.231553586279     1.425125730196    12.000000000000
         H           -1.758785142646     2.084724586279     1.587637730196     1.007825032230
         C            0.271033857354     1.372400586279     1.515296730196    12.000000000000
         H            0.702882857354     2.336051586279     1.746512730196     1.007825032230
         C            1.071984857354     0.255421586279     1.301082730196    12.000000000000
         H            2.149554857354     0.325805586279     1.355916730196     1.007825032230
         C            0.451432857354    -0.953233413721     1.007422730196    12.000000000000
         H            1.027207857354    -1.848855413721     0.823347730196     1.007825032230
         C           -0.939081142646    -0.991271413721     0.941973730196    12.000000000000
         H           -1.447934142646    -1.919724413721     0.713130730196     1.007825032230

  Running in c1 symmetry.

  Rotational constants: A =      0.11623  B =      0.07904  C =      0.07017 [cm^-1]
  Rotational constants: A =   3484.43562  B =   2369.49766  C =   2103.74413 [MHz]
  Nuclear repulsion =  206.259554996970337

  Charge       = 0
  Multiplicity = 1
  Electrons    = 42
  Nalpha       = 21
  Nbeta        = 21

  ==> Algorithm <==

  SCF Algorithm Type is DF.
  DIIS enabled.
  MOM disabled.
  Fractional occupation disabled.
  Guess Type is SAD.
  Energy threshold   = 1.00e-07
  Density threshold  = 1.00e-08
  Integral threshold = 0.00e+00

  ==> Primary Basis <==

  Basis Set: AUG-CC-PVTZ
    Blend: AUG-CC-PVTZ
    Number of shells: 129
    Number of basis function: 391
    Number of Cartesian functions: 455
    Spherical Harmonics?: true
    Max angular momentum: 3

   => Loading Basis Set <=

    Name: (AUG-CC-PVTZ AUX)
    Role: JKFIT
    Keyword: DF_BASIS_SCF
    atoms 1              entry N          line   224 file /home/liuchw/anaconda3/envs/psi4env/share/psi4/basis/aug-cc-pvtz-jkfit.gbs 
    atoms 2, 4, 6, 8, 10 entry C          line   162 file /home/liuchw/anaconda3/envs/psi4env/share/psi4/basis/aug-cc-pvtz-jkfit.gbs 
    atoms 3, 5, 7, 9, 11 entry H          line    70 file /home/liuchw/anaconda3/envs/psi4env/share/psi4/basis/aug-cc-pvtz-jkfit.gbs 

  ==> Pre-Iterations <==

   -------------------------------------------------------
    Irrep   Nso     Nmo     Nalpha   Nbeta   Ndocc  Nsocc
   -------------------------------------------------------
     A        391     391       0       0       0       0
   -------------------------------------------------------
    Total     391     391      21      21      21       0
   -------------------------------------------------------

  ==> Integral Setup <==

  DFHelper Memory: AOs need 1.010 GiB; user supplied 27.940 GiB. Using in-core AOs.

  ==> MemDFJK: Density-Fitted J/K Matrices <==

    J tasked:                   Yes
    K tasked:                   Yes
    wK tasked:                   No
    OpenMP threads:               8
    Memory [MiB]:             28610
    Algorithm:                 Core
    Schwarz Cutoff:           1E-12
    Mask sparsity (%):       0.8373
    Fitting Condition:        1E-10

   => Auxiliary Basis Set <=

  Basis Set: (AUG-CC-PVTZ AUX)
    Blend: AUG-CC-PVTZ-JKFIT
    Number of shells: 250
    Number of basis function: 854
    Number of Cartesian functions: 1061
    Spherical Harmonics?: true
    Max angular momentum: 4

  Minimum eigenvalue in the overlap matrix is 2.3197531977E-06.
  Using Symmetric Orthogonalization.

  SCF Guess: Superposition of Atomic Densities via on-the-fly atomic UHF.

  ==> Iterations <==

                           Total Energy        Delta E     RMS |[F,P]|

   @DF-RHF iter SAD:  -246.16027285437647   -2.46160e+02   0.00000e+00 
   @DF-RHF iter   1:  -246.63317441599293   -4.72902e-01   1.26134e-03 DIIS
   @DF-RHF iter   2:  -246.75327844720002   -1.20104e-01   5.77666e-04 DIIS
   @DF-RHF iter   3:  -246.77722539660931   -2.39469e-02   1.11544e-04 DIIS
   @DF-RHF iter   4:  -246.77860304261227   -1.37765e-03   3.21050e-05 DIIS
   @DF-RHF iter   5:  -246.77868028400732   -7.72414e-05   1.07068e-05 DIIS
   @DF-RHF iter   6:  -246.77869067196042   -1.03880e-05   2.41675e-06 DIIS
   @DF-RHF iter   7:  -246.77869139762072   -7.25660e-07   8.31922e-07 DIIS
   @DF-RHF iter   8:  -246.77869148424372   -8.66230e-08   3.42493e-07 DIIS
   @DF-RHF iter   9:  -246.77869150792219   -2.36785e-08   9.29245e-08 DIIS
   @DF-RHF iter  10:  -246.77869151047105   -2.54886e-09   3.40389e-08 DIIS
   @DF-RHF iter  11:  -246.77869151095118   -4.80128e-10   2.02648e-08 DIIS
   @DF-RHF iter  12:  -246.77869151108828   -1.37106e-10   6.90366e-09 DIIS
  Energy and wave function converged.


  ==> Post-Iterations <==

    Orbital Energies [Eh]
    ---------------------

    Doubly Occupied:                                                      

       1A    -15.567537     2A    -11.275494     3A    -11.275436  
       4A    -11.260668     5A    -11.242589     6A    -11.242439  
       7A     -1.257185     8A     -1.090586     9A     -1.034025  
      10A     -0.859943    11A     -0.856243    12A     -0.722386  
      13A     -0.661059    14A     -0.654634    15A     -0.598541  
      16A     -0.577708    17A     -0.541639    18A     -0.520264  
      19A     -0.420219    20A     -0.384518    21A     -0.348172  

    Virtual:                                                              

      22A      0.026105    23A      0.033281    24A      0.037766  
      25A      0.048810    26A      0.053332    27A      0.077951  
      28A      0.090989    29A      0.100365    30A      0.102058  
      31A      0.104061    32A      0.108733    33A      0.109334  
      34A      0.110362    35A      0.116637    36A      0.118686  
      37A      0.128973    38A      0.130974    39A      0.141810  
      40A      0.148417    41A      0.150815    42A      0.152152  
      43A      0.157349    44A      0.158517    45A      0.196727  
      46A      0.223319    47A      0.241138    48A      0.242639  
      49A      0.243647    50A      0.254300    51A      0.256806  
      52A      0.270012    53A      0.272399    54A      0.285195  
      55A      0.291469    56A      0.292288    57A      0.303998  
      58A      0.306072    59A      0.322042    60A      0.326969  
      61A      0.334254    62A      0.339867    63A      0.341423  
      64A      0.352524    65A      0.354289    66A      0.373664  
      67A      0.384897    68A      0.400318    69A      0.409676  
      70A      0.419772    71A      0.429163    72A      0.432498  
      73A      0.433052    74A      0.439366    75A      0.441390  
      76A      0.451692    77A      0.460371    78A      0.464836  
      79A      0.471119    80A      0.476331    81A      0.480329  
      82A      0.490444    83A      0.494147    84A      0.497020  
      85A      0.510260    86A      0.523484    87A      0.535395  
      88A      0.541734    89A      0.541995    90A      0.543707  
      91A      0.561346    92A      0.588964    93A      0.615479  
      94A      0.615738    95A      0.621317    96A      0.625041  
      97A      0.635098    98A      0.649383    99A      0.651323  
     100A      0.651966   101A      0.672401   102A      0.695631  
     103A      0.710069   104A      0.713941   105A      0.732278  
     106A      0.740608   107A      0.767397   108A      0.770832  
     109A      0.775144   110A      0.779667   111A      0.793984  
     112A      0.800614   113A      0.816536   114A      0.834113  
     115A      0.836280   116A      0.845558   117A      0.848901  
     118A      0.863442   119A      0.882736   120A      0.883066  
     121A      0.886078   122A      0.888037   123A      0.902741  
     124A      0.924419   125A      0.931251   126A      0.937306  
     127A      0.949459   128A      0.952412   129A      0.955492  
     130A      0.959296   131A      0.986086   132A      0.989388  
     133A      1.006003   134A      1.007504   135A      1.014490  
     136A      1.042051   137A      1.044760   138A      1.063668  
     139A      1.070472   140A      1.072425   141A      1.075138  
     142A      1.081306   143A      1.086657   144A      1.088712  
     145A      1.111619   146A      1.112682   147A      1.141072  
     148A      1.152451   149A      1.167667   150A      1.170442  
     151A      1.175302   152A      1.185223   153A      1.186335  
     154A      1.187035   155A      1.194221   156A      1.197993  
     157A      1.209884   158A      1.221946   159A      1.226624  
     160A      1.239637   161A      1.267751   162A      1.274541  
     163A      1.281697   164A      1.288054   165A      1.292117  
     166A      1.297323   167A      1.351208   168A      1.374299  
     169A      1.402803   170A      1.424057   171A      1.443996  
     172A      1.447016   173A      1.460461   174A      1.496245  
     175A      1.504570   176A      1.511141   177A      1.519666  
     178A      1.536101   179A      1.540544   180A      1.588337  
     181A      1.596747   182A      1.627809   183A      1.630734  
     184A      1.667927   185A      1.687765   186A      1.693347  
     187A      1.709924   188A      1.713373   189A      1.717722  
     190A      1.742400   191A      1.757951   192A      1.778729  
     193A      1.788364   194A      1.801967   195A      1.826839  
     196A      1.835034   197A      1.845709   198A      1.856045  
     199A      1.872577   200A      1.883030   201A      1.890753  
     202A      1.912257   203A      1.948857   204A      1.959903  
     205A      1.961754   206A      1.963406   207A      2.014373  
     208A      2.023208   209A      2.026107   210A      2.039175  
     211A      2.039599   212A      2.040555   213A      2.069960  
     214A      2.083947   215A      2.095902   216A      2.130301  
     217A      2.145423   218A      2.158114   219A      2.161364  
     220A      2.162231   221A      2.214395   222A      2.217460  
     223A      2.249134   224A      2.252276   225A      2.295489  
     226A      2.313563   227A      2.360048   228A      2.374560  
     229A      2.384964   230A      2.408457   231A      2.429396  
     232A      2.435794   233A      2.449447   234A      2.509896  
     235A      2.536989   236A      2.541718   237A      2.585536  
     238A      2.650250   239A      2.656971   240A      2.671324  
     241A      2.675290   242A      2.806144   243A      2.811050  
     244A      2.820432   245A      2.912434   246A      2.922702  
     247A      2.974678   248A      2.983041   249A      3.048191  
     250A      3.049197   251A      3.136039   252A      3.160253  
     253A      3.161228   254A      3.248473   255A      3.259685  
     256A      3.303940   257A      3.310581   258A      3.317447  
     259A      3.349046   260A      3.357352   261A      3.386166  
     262A      3.405277   263A      3.408504   264A      3.429107  
     265A      3.431269   266A      3.452253   267A      3.474789  
     268A      3.493915   269A      3.533813   270A      3.540916  
     271A      3.551146   272A      3.565210   273A      3.566120  
     274A      3.580013   275A      3.637854   276A      3.653191  
     277A      3.687529   278A      3.703001   279A      3.710415  
     280A      3.730703   281A      3.762136   282A      3.773225  
     283A      3.773629   284A      3.820024   285A      3.838489  
     286A      3.859775   287A      3.863932   288A      3.876150  
     289A      3.894919   290A      3.921306   291A      3.923540  
     292A      3.954601   293A      3.972284   294A      3.991063  
     295A      3.996759   296A      4.034363   297A      4.043452  
     298A      4.067510   299A      4.088643   300A      4.098426  
     301A      4.126934   302A      4.128328   303A      4.136160  
     304A      4.144792   305A      4.170939   306A      4.205496  
     307A      4.224947   308A      4.227117   309A      4.227652  
     310A      4.266108   311A      4.274128   312A      4.331303  
     313A      4.371045   314A      4.381430   315A      4.412589  
     316A      4.427663   317A      4.438292   318A      4.441601  
     319A      4.467323   320A      4.518376   321A      4.519925  
     322A      4.525005   323A      4.562500   324A      4.646384  
     325A      4.658531   326A      4.694493   327A      4.744955  
     328A      4.755479   329A      4.789449   330A      4.839595  
     331A      4.869690   332A      4.889342   333A      4.898960  
     334A      4.936688   335A      4.958964   336A      4.968054  
     337A      4.989595   338A      5.026620   339A      5.037643  
     340A      5.060614   341A      5.077817   342A      5.106880  
     343A      5.122066   344A      5.138293   345A      5.145278  
     346A      5.195035   347A      5.224638   348A      5.226182  
     349A      5.231160   350A      5.330960   351A      5.389484  
     352A      5.394813   353A      5.403447   354A      5.426891  
     355A      5.446024   356A      5.473186   357A      5.518713  
     358A      5.527870   359A      5.589364   360A      5.604979  
     361A      5.654437   362A      5.780021   363A      5.797996  
     364A      5.814224   365A      5.853835   366A      5.866997  
     367A      5.907855   368A      5.910628   369A      5.972869  
     370A      6.080807   371A      6.118312   372A      6.193873  
     373A      6.230189   374A      6.305085   375A      6.391926  
     376A      6.510467   377A      6.667287   378A      6.680864  
     379A      6.681743   380A      6.742599   381A      6.825378  
     382A      6.882085   383A      7.073635   384A      7.090445  
     385A      7.479481   386A     15.503135   387A     16.292329  
     388A     18.246834   389A     18.578782   390A     19.187150  
     391A     19.268271  

    Final Occupation by Irrep:
              A 
    DOCC [    21 ]

  @DF-RHF Final Energy:  -246.77869151108828

   => Energetics <=

    Nuclear Repulsion Energy =            206.2595549969703370
    One-Electron Energy =                -741.2939198076387584
    Two-Electron Energy =                 288.2556732995801667
    Total Energy =                       -246.7786915110882546

Computation Completed


Properties will be evaluated at   0.000000,   0.000000,   0.000000 [a0]

Properties computed using the SCF density matrix

  Nuclear Dipole Moment: [e a0]
     X:   -24.4614      Y:    13.1987      Z:    97.1081

  Electronic Dipole Moment: [e a0]
     X:    25.3768      Y:   -13.1386      Z:   -97.0618

  Dipole Moment: [e a0]
     X:     0.9155      Y:     0.0601      Z:     0.0463     Total:     0.9186

  Dipole Moment: [D]
     X:     2.3269      Y:     0.1527      Z:     0.1176     Total:     2.3348


*** tstop() called on node37.bme.utexas.edu at Sat Apr 11 18:49:03 2020
Module time:
	user time   =      49.66 seconds =       0.83 minutes
	system time =       3.14 seconds =       0.05 minutes
	total time  =          7 seconds =       0.12 minutes
Total time:
	user time   =      49.66 seconds =       0.83 minutes
	system time =       3.14 seconds =       0.05 minutes
	total time  =          7 seconds =       0.12 minutes

*** tstart() called on node37.bme.utexas.edu
*** at Sat Apr 11 18:49:03 2020


  //>>>>>>>>>>>>>>>>>>>>>>>>>>>>>>>>>>>//
  //               DFMP2               //
  //<<<<<<<<<<<<<<<<<<<<<<<<<<<<<<<<<<<//

   => Loading Basis Set <=

    Name: (AUG-CC-PVTZ AUX)
    Role: RIFIT
    Keyword: DF_BASIS_MP2
    atoms 1              entry N          line   206 file /home/liuchw/anaconda3/envs/psi4env/share/psi4/basis/aug-cc-pvtz-ri.gbs 
    atoms 2, 4, 6, 8, 10 entry C          line   148 file /home/liuchw/anaconda3/envs/psi4env/share/psi4/basis/aug-cc-pvtz-ri.gbs 
    atoms 3, 5, 7, 9, 11 entry H          line    30 file /home/liuchw/anaconda3/envs/psi4env/share/psi4/basis/aug-cc-pvtz-ri.gbs 

	 --------------------------------------------------------
	                          DF-MP2                         
	      2nd-Order Density-Fitted Moller-Plesset Theory     
	              RMP2 Wavefunction,   8 Threads             
	                                                         
	        Rob Parrish, Justin Turney, Andy Simmonett,      
	           Ed Hohenstein, and C. David Sherrill          
	 --------------------------------------------------------

   => Auxiliary Basis Set <=

  Basis Set: (AUG-CC-PVTZ AUX)
    Blend: AUG-CC-PVTZ-RI
    Number of shells: 238
    Number of basis function: 866
    Number of Cartesian functions: 1091
    Spherical Harmonics?: true
    Max angular momentum: 4

	 --------------------------------------------------------
	                 NBF =   391, NAUX =   866
	 --------------------------------------------------------
	   CLASS    FOCC     OCC    AOCC    AVIR     VIR    FVIR
	   PAIRS       0      21      21     370     370       0
	 --------------------------------------------------------

	-----------------------------------------------------------
	 ==================> DF-MP2 Energies <==================== 
	-----------------------------------------------------------
	 Reference Energy          =    -246.7786915110882831 [Eh]
	 Singles Energy            =      -0.0000000000000000 [Eh]
	 Same-Spin Energy          =      -0.2687925996437437 [Eh]
	 Opposite-Spin Energy      =      -0.8388123837238773 [Eh]
	 Correlation Energy        =      -1.1076049833676211 [Eh]
	 Total Energy              =    -247.8862964944559053 [Eh]
	-----------------------------------------------------------
	 ================> DF-SCS-MP2 Energies <================== 
	-----------------------------------------------------------
	 SCS Same-Spin Scale       =       0.3333333333333333 [-]
	 SCS Opposite-Spin Scale   =       1.2000000000000000 [-]
	 SCS Same-Spin Energy      =      -0.0895975332145812 [Eh]
	 SCS Opposite-Spin Energy  =      -1.0065748604686529 [Eh]
	 SCS Correlation Energy    =      -1.0961723936832342 [Eh]
	 SCS Total Energy          =    -247.8748639047715301 [Eh]
	-----------------------------------------------------------


*** tstop() called on node37.bme.utexas.edu at Sat Apr 11 18:49:08 2020
Module time:
	user time   =      22.14 seconds =       0.37 minutes
	system time =       1.57 seconds =       0.03 minutes
	total time  =          5 seconds =       0.08 minutes
Total time:
	user time   =      71.81 seconds =       1.20 minutes
	system time =       4.71 seconds =       0.08 minutes
	total time  =         12 seconds =       0.20 minutes

  //>>>>>>>>>>>>>>>>>>>>>>>>>>>>>>>>>>>>//
  // CBS Computation: MP2 / AUG-CC-PVQZ //
  //<<<<<<<<<<<<<<<<<<<<<<<<<<<<<<<<<<<<//


Scratch directory: /scratch//

*** tstart() called on node37.bme.utexas.edu
*** at Sat Apr 11 18:49:08 2020

   => Loading Basis Set <=

    Name: AUG-CC-PVQZ
    Role: ORBITAL
    Keyword: BASIS
    atoms 1              entry N          line   363 file /home/liuchw/anaconda3/envs/psi4env/share/psi4/basis/aug-cc-pvqz.gbs 
    atoms 2, 4, 6, 8, 10 entry C          line   303 file /home/liuchw/anaconda3/envs/psi4env/share/psi4/basis/aug-cc-pvqz.gbs 
    atoms 3, 5, 7, 9, 11 entry H          line    40 file /home/liuchw/anaconda3/envs/psi4env/share/psi4/basis/aug-cc-pvqz.gbs 


         ---------------------------------------------------------
                                   SCF
               by Justin Turney, Rob Parrish, Andy Simmonett
                          and Daniel G. A. Smith
                              RHF Reference
                        8 Threads,  38146 MiB Core
         ---------------------------------------------------------

  ==> Geometry <==

    Molecular point group: c1
    Full point group: C1

    Geometry (in Angstrom), charge = 0, multiplicity = 1:

       Center              X                  Y                   Z               Mass       
    ------------   -----------------  -----------------  -----------------  -----------------
         N           -1.726067142646     0.073885586279     1.145061730196    14.003074004430
         C           -1.111181142646     1.231553586279     1.425125730196    12.000000000000
         H           -1.758785142646     2.084724586279     1.587637730196     1.007825032230
         C            0.271033857354     1.372400586279     1.515296730196    12.000000000000
         H            0.702882857354     2.336051586279     1.746512730196     1.007825032230
         C            1.071984857354     0.255421586279     1.301082730196    12.000000000000
         H            2.149554857354     0.325805586279     1.355916730196     1.007825032230
         C            0.451432857354    -0.953233413721     1.007422730196    12.000000000000
         H            1.027207857354    -1.848855413721     0.823347730196     1.007825032230
         C           -0.939081142646    -0.991271413721     0.941973730196    12.000000000000
         H           -1.447934142646    -1.919724413721     0.713130730196     1.007825032230

  Running in c1 symmetry.

  Rotational constants: A =      0.11623  B =      0.07904  C =      0.07017 [cm^-1]
  Rotational constants: A =   3484.43562  B =   2369.49766  C =   2103.74413 [MHz]
  Nuclear repulsion =  206.259554996970337

  Charge       = 0
  Multiplicity = 1
  Electrons    = 42
  Nalpha       = 21
  Nbeta        = 21

  ==> Algorithm <==

  SCF Algorithm Type is DF.
  DIIS enabled.
  MOM disabled.
  Fractional occupation disabled.
  Guess Type is SAD.
  Energy threshold   = 1.00e-07
  Density threshold  = 1.00e-08
  Integral threshold = 0.00e+00

  ==> Primary Basis <==

  Basis Set: AUG-CC-PVQZ
    Blend: AUG-CC-PVQZ
    Number of shells: 190
    Number of basis function: 710
    Number of Cartesian functions: 905
    Spherical Harmonics?: true
    Max angular momentum: 4

   => Loading Basis Set <=

    Name: (AUG-CC-PVQZ AUX)
    Role: JKFIT
    Keyword: DF_BASIS_SCF
    atoms 1              entry N          line   248 file /home/liuchw/anaconda3/envs/psi4env/share/psi4/basis/aug-cc-pvqz-jkfit.gbs 
    atoms 2, 4, 6, 8, 10 entry C          line   178 file /home/liuchw/anaconda3/envs/psi4env/share/psi4/basis/aug-cc-pvqz-jkfit.gbs 
    atoms 3, 5, 7, 9, 11 entry H          line    70 file /home/liuchw/anaconda3/envs/psi4env/share/psi4/basis/aug-cc-pvqz-jkfit.gbs 

  ==> Pre-Iterations <==

   -------------------------------------------------------
    Irrep   Nso     Nmo     Nalpha   Nbeta   Ndocc  Nsocc
   -------------------------------------------------------
     A        710     710       0       0       0       0
   -------------------------------------------------------
    Total     710     710      21      21      21       0
   -------------------------------------------------------

  ==> Integral Setup <==

  DFHelper Memory: AOs need 4.668 GiB; user supplied 27.940 GiB. Using in-core AOs.

  ==> MemDFJK: Density-Fitted J/K Matrices <==

    J tasked:                   Yes
    K tasked:                   Yes
    wK tasked:                   No
    OpenMP threads:               8
    Memory [MiB]:             28610
    Algorithm:                 Core
    Schwarz Cutoff:           1E-12
    Mask sparsity (%):       2.6927
    Fitting Condition:        1E-10

   => Auxiliary Basis Set <=

  Basis Set: (AUG-CC-PVQZ AUX)
    Blend: AUG-CC-PVQZ-JKFIT
    Number of shells: 294
    Number of basis function: 1232
    Number of Cartesian functions: 1693
    Spherical Harmonics?: true
    Max angular momentum: 5

  Minimum eigenvalue in the overlap matrix is 6.9014629185E-07.
  Using Symmetric Orthogonalization.

  SCF Guess: Superposition of Atomic Densities via on-the-fly atomic UHF.

  ==> Iterations <==

                           Total Energy        Delta E     RMS |[F,P]|

   @DF-RHF iter SAD:  -246.17032417723698   -2.46170e+02   0.00000e+00 
   @DF-RHF iter   1:  -246.64671224579445   -4.76388e-01   6.98954e-04 DIIS
   @DF-RHF iter   2:  -246.76718418697277   -1.20472e-01   3.20629e-04 DIIS
   @DF-RHF iter   3:  -246.79135061511363   -2.41664e-02   6.24311e-05 DIIS
   @DF-RHF iter   4:  -246.79274471733197   -1.39410e-03   1.76038e-05 DIIS
   @DF-RHF iter   5:  -246.79282186908313   -7.71518e-05   6.11073e-06 DIIS
   @DF-RHF iter   6:  -246.79283277455465   -1.09055e-05   1.36562e-06 DIIS
   @DF-RHF iter   7:  -246.79283352837149   -7.53817e-07   4.61051e-07 DIIS
   @DF-RHF iter   8:  -246.79283361561639   -8.72449e-08   1.92834e-07 DIIS
   @DF-RHF iter   9:  -246.79283363977981   -2.41634e-08   5.23831e-08 DIIS
   @DF-RHF iter  10:  -246.79283364241161   -2.63179e-09   1.90494e-08 DIIS
   @DF-RHF iter  11:  -246.79283364289435   -4.82743e-10   1.13379e-08 DIIS
   @DF-RHF iter  12:  -246.79283364303620   -1.41853e-10   3.88402e-09 DIIS
  Energy and wave function converged.


  ==> Post-Iterations <==

    Orbital Energies [Eh]
    ---------------------

    Doubly Occupied:                                                      

       1A    -15.565361     2A    -11.274441     3A    -11.274383  
       4A    -11.259608     5A    -11.241457     6A    -11.241307  
       7A     -1.256610     8A     -1.090180     9A     -1.033687  
      10A     -0.859737    11A     -0.856044    12A     -0.722422  
      13A     -0.661028    14A     -0.654619    15A     -0.598560  
      16A     -0.577750    17A     -0.541740    18A     -0.520317  
      19A     -0.420365    20A     -0.384604    21A     -0.348260  

    Virtual:                                                              

      22A      0.022983    23A      0.028863    24A      0.033247  
      25A      0.043061    26A      0.047155    27A      0.066049  
      28A      0.081756    29A      0.087667    30A      0.088987  
      31A      0.091284    32A      0.095148    33A      0.095960  
      34A      0.097225    35A      0.099929    36A      0.102400  
      37A      0.112966    38A      0.114980    39A      0.124440  
      40A      0.127447    41A      0.128225    42A      0.132083  
      43A      0.133632    44A      0.137036    45A      0.170254  
      46A      0.186469    47A      0.205048    48A      0.210287  
      49A      0.211596    50A      0.215973    51A      0.221487  
      52A      0.228825    53A      0.237156    54A      0.244881  
      55A      0.245457    56A      0.253947    57A      0.254201  
      58A      0.254272    59A      0.266520    60A      0.280477  
      61A      0.286062    62A      0.289939    63A      0.293925  
      64A      0.296511    65A      0.300381    66A      0.301106  
      67A      0.309629    68A      0.318632    69A      0.319027  
      70A      0.319906    71A      0.338396    72A      0.350112  
      73A      0.351190    74A      0.362465    75A      0.364945  
      76A      0.368515    77A      0.369102    78A      0.384228  
      79A      0.385946    80A      0.399990    81A      0.400786  
      82A      0.419872    83A      0.423590    84A      0.424760  
      85A      0.427376    86A      0.429980    87A      0.435082  
      88A      0.437275    89A      0.440352    90A      0.455824  
      91A      0.459381    92A      0.467476    93A      0.470895  
      94A      0.471365    95A      0.490431    96A      0.490998  
      97A      0.505542    98A      0.506821    99A      0.512948  
     100A      0.518248   101A      0.519037   102A      0.530624  
     103A      0.541764   104A      0.566895   105A      0.567438  
     106A      0.572373   107A      0.580164   108A      0.582327  
     109A      0.587318   110A      0.602929   111A      0.610786  
     112A      0.611014   113A      0.623193   114A      0.645254  
     115A      0.656374   116A      0.659267   117A      0.662939  
     118A      0.667887   119A      0.669164   120A      0.675065  
     121A      0.703280   122A      0.704048   123A      0.707107  
     124A      0.720158   125A      0.731333   126A      0.734734  
     127A      0.736336   128A      0.744604   129A      0.748974  
     130A      0.757789   131A      0.765167   132A      0.778106  
     133A      0.781292   134A      0.787313   135A      0.791481  
     136A      0.797772   137A      0.801362   138A      0.801813  
     139A      0.809648   140A      0.823027   141A      0.834159  
     142A      0.840045   143A      0.843171   144A      0.849307  
     145A      0.854859   146A      0.860336   147A      0.891860  
     148A      0.892313   149A      0.899025   150A      0.902726  
     151A      0.920741   152A      0.927099   153A      0.933426  
     154A      0.937511   155A      0.950661   156A      0.951681  
     157A      0.953926   158A      0.962192   159A      0.963558  
     160A      0.966771   161A      0.977129   162A      0.988556  
     163A      0.989591   164A      1.001196   165A      1.023091  
     166A      1.027405   167A      1.047347   168A      1.057481  
     169A      1.082377   170A      1.090773   171A      1.092691  
     172A      1.111334   173A      1.124439   174A      1.131227  
     175A      1.142290   176A      1.162614   177A      1.166579  
     178A      1.179140   179A      1.182190   180A      1.182586  
     181A      1.193970   182A      1.212788   183A      1.228805  
     184A      1.229448   185A      1.230495   186A      1.248921  
     187A      1.259033   188A      1.260858   189A      1.300370  
     190A      1.300704   191A      1.317742   192A      1.318000  
     193A      1.330115   194A      1.330291   195A      1.355555  
     196A      1.365551   197A      1.371289   198A      1.381584  
     199A      1.384375   200A      1.389451   201A      1.396131  
     202A      1.402901   203A      1.419611   204A      1.420658  
     205A      1.425825   206A      1.434071   207A      1.459351  
     208A      1.471584   209A      1.495513   210A      1.515702  
     211A      1.527142   212A      1.542248   213A      1.546619  
     214A      1.547893   215A      1.549030   216A      1.553247  
     217A      1.557233   218A      1.571192   219A      1.580024  
     220A      1.583861   221A      1.587708   222A      1.600965  
     223A      1.608422   224A      1.614106   225A      1.620003  
     226A      1.626396   227A      1.645124   228A      1.670727  
     229A      1.672824   230A      1.698341   231A      1.720924  
     232A      1.729445   233A      1.734312   234A      1.739609  
     235A      1.748524   236A      1.772767   237A      1.780215  
     238A      1.797986   239A      1.836311   240A      1.836564  
     241A      1.836969   242A      1.851176   243A      1.855598  
     244A      1.862273   245A      1.908584   246A      1.910613  
     247A      1.922953   248A      1.933154   249A      1.937030  
     250A      1.938298   251A      1.973682   252A      1.973922  
     253A      1.976853   254A      1.991904   255A      1.994641  
     256A      2.003335   257A      2.006982   258A      2.011013  
     259A      2.015147   260A      2.039404   261A      2.048823  
     262A      2.059960   263A      2.068789   264A      2.074296  
     265A      2.081044   266A      2.084435   267A      2.092735  
     268A      2.099543   269A      2.122343   270A      2.127682  
     271A      2.150854   272A      2.152790   273A      2.153890  
     274A      2.167706   275A      2.191332   276A      2.196873  
     277A      2.231090   278A      2.238586   279A      2.241403  
     280A      2.250348   281A      2.254868   282A      2.259701  
     283A      2.275611   284A      2.278970   285A      2.279067  
     286A      2.294498   287A      2.303048   288A      2.304913  
     289A      2.315895   290A      2.336751   291A      2.339235  
     292A      2.344164   293A      2.367233   294A      2.375989  
     295A      2.382828   296A      2.385881   297A      2.387673  
     298A      2.414658   299A      2.417107   300A      2.423794  
     301A      2.425578   302A      2.448533   303A      2.459168  
     304A      2.468740   305A      2.468906   306A      2.469972  
     307A      2.485074   308A      2.509142   309A      2.509723  
     310A      2.515113   311A      2.529131   312A      2.559134  
     313A      2.561713   314A      2.568776   315A      2.575086  
     316A      2.576395   317A      2.588587   318A      2.593895  
     319A      2.595971   320A      2.612013   321A      2.626564  
     322A      2.632073   323A      2.633316   324A      2.707406  
     325A      2.708208   326A      2.710421   327A      2.727088  
     328A      2.759970   329A      2.763501   330A      2.770110  
     331A      2.771918   332A      2.784667   333A      2.802341  
     334A      2.804312   335A      2.805042   336A      2.820180  
     337A      2.838116   338A      2.859314   339A      2.881185  
     340A      2.903897   341A      2.905898   342A      2.930819  
     343A      2.944331   344A      2.964992   345A      2.997966  
     346A      3.006627   347A      3.017912   348A      3.027811  
     349A      3.029543   350A      3.030611   351A      3.073107  
     352A      3.077323   353A      3.096907   354A      3.135246  
     355A      3.138606   356A      3.139906   357A      3.147271  
     358A      3.168685   359A      3.213032   360A      3.215328  
     361A      3.229379   362A      3.234760   363A      3.270018  
     364A      3.273995   365A      3.298867   366A      3.304241  
     367A      3.312823   368A      3.315421   369A      3.339324  
     370A      3.351993   371A      3.360805   372A      3.374238  
     373A      3.379790   374A      3.391271   375A      3.446292  
     376A      3.455564   377A      3.464611   378A      3.503007  
     379A      3.523981   380A      3.528623   381A      3.546907  
     382A      3.572356   383A      3.604214   384A      3.604806  
     385A      3.630409   386A      3.654621   387A      3.669794  
     388A      3.676279   389A      3.678735   390A      3.714115  
     391A      3.720132   392A      3.726285   393A      3.747733  
     394A      3.748061   395A      3.795657   396A      3.822420  
     397A      3.834881   398A      3.852878   399A      3.879773  
     400A      3.889384   401A      3.895941   402A      3.920210  
     403A      3.927194   404A      3.930265   405A      3.933275  
     406A      3.962885   407A      3.968255   408A      3.973497  
     409A      4.015412   410A      4.030984   411A      4.033762  
     412A      4.046454   413A      4.051698   414A      4.085082  
     415A      4.123647   416A      4.139961   417A      4.143884  
     418A      4.151804   419A      4.158118   420A      4.191990  
     421A      4.204012   422A      4.252625   423A      4.268265  
     424A      4.270409   425A      4.324437   426A      4.325061  
     427A      4.340054   428A      4.371747   429A      4.375155  
     430A      4.403954   431A      4.405941   432A      4.436581  
     433A      4.437337   434A      4.466295   435A      4.470367  
     436A      4.498949   437A      4.502870   438A      4.511096  
     439A      4.549089   440A      4.565369   441A      4.569026  
     442A      4.576067   443A      4.606944   444A      4.617501  
     445A      4.667658   446A      4.692089   447A      4.699442  
     448A      4.725052   449A      4.745439   450A      4.789244  
     451A      4.827088   452A      4.854606   453A      4.887071  
     454A      4.895241   455A      4.906866   456A      4.933401  
     457A      4.973716   458A      4.997378   459A      4.999760  
     460A      5.026467   461A      5.036237   462A      5.071006  
     463A      5.115954   464A      5.145243   465A      5.198792  
     466A      5.221689   467A      5.240433   468A      5.299534  
     469A      5.371690   470A      5.408498   471A      5.431757  
     472A      5.445637   473A      5.472286   474A      5.549914  
     475A      5.619898   476A      5.702139   477A      5.738473  
     478A      5.797781   479A      5.799461   480A      5.827925  
     481A      5.847179   482A      5.890168   483A      5.917170  
     484A      5.987007   485A      6.008953   486A      6.044003  
     487A      6.052486   488A      6.080541   489A      6.099608  
     490A      6.121467   491A      6.132312   492A      6.153787  
     493A      6.156687   494A      6.185168   495A      6.217292  
     496A      6.305768   497A      6.308967   498A      6.324394  
     499A      6.378886   500A      6.384573   501A      6.414196  
     502A      6.428587   503A      6.465648   504A      6.472065  
     505A      6.515862   506A      6.545791   507A      6.584963  
     508A      6.588177   509A      6.592750   510A      6.602340  
     511A      6.615215   512A      6.637069   513A      6.637459  
     514A      6.652592   515A      6.653264   516A      6.667558  
     517A      6.683815   518A      6.708857   519A      6.753064  
     520A      6.773465   521A      6.795184   522A      6.803710  
     523A      6.820598   524A      6.855618   525A      6.861806  
     526A      6.891985   527A      6.899442   528A      6.902413  
     529A      6.937255   530A      6.955999   531A      6.981464  
     532A      7.002331   533A      7.020842   534A      7.024691  
     535A      7.030443   536A      7.053252   537A      7.063887  
     538A      7.080983   539A      7.091667   540A      7.122680  
     541A      7.147221   542A      7.148253   543A      7.166738  
     544A      7.186115   545A      7.200545   546A      7.215388  
     547A      7.216349   548A      7.242701   549A      7.282354  
     550A      7.288566   551A      7.325134   552A      7.327778  
     553A      7.343651   554A      7.385842   555A      7.397228  
     556A      7.399287   557A      7.406926   558A      7.436584  
     559A      7.463536   560A      7.503505   561A      7.522343  
     562A      7.568937   563A      7.581803   564A      7.588507  
     565A      7.631190   566A      7.640094   567A      7.644279  
     568A      7.683718   569A      7.712996   570A      7.745100  
     571A      7.768729   572A      7.773343   573A      7.782235  
     574A      7.811092   575A      7.838389   576A      7.857458  
     577A      7.879659   578A      7.927587   579A      7.945667  
     580A      8.002370   581A      8.008555   582A      8.017976  
     583A      8.027567   584A      8.064620   585A      8.071104  
     586A      8.093446   587A      8.142848   588A      8.146983  
     589A      8.151452   590A      8.278169   591A      8.303635  
     592A      8.321884   593A      8.352525   594A      8.365124  
     595A      8.383787   596A      8.459176   597A      8.490327  
     598A      8.522582   599A      8.547686   600A      8.617594  
     601A      8.620569   602A      8.639783   603A      8.665069  
     604A      8.694348   605A      8.698242   606A      8.708101  
     607A      8.718622   608A      8.812040   609A      8.823962  
     610A      8.860953   611A      8.874470   612A      8.890426  
     613A      8.892028   614A      8.936482   615A      8.946520  
     616A      8.958324   617A      8.961504   618A      8.964374  
     619A      9.040388   620A      9.049098   621A      9.080211  
     622A      9.117783   623A      9.142450   624A      9.174237  
     625A      9.194986   626A      9.203263   627A      9.217255  
     628A      9.258432   629A      9.328812   630A      9.352645  
     631A      9.393335   632A      9.399788   633A      9.417810  
     634A      9.447675   635A      9.499609   636A      9.551022  
     637A      9.552620   638A      9.554531   639A      9.595615  
     640A      9.595840   641A      9.611149   642A      9.648485  
     643A      9.702005   644A      9.722326   645A      9.724366  
     646A      9.736828   647A      9.795577   648A      9.866795  
     649A      9.900503   650A      9.963882   651A      9.964839  
     652A      9.966776   653A      9.983293   654A     10.011004  
     655A     10.015881   656A     10.028393   657A     10.094433  
     658A     10.215529   659A     10.231339   660A     10.234934  
     661A     10.242891   662A     10.290800   663A     10.319033  
     664A     10.330066   665A     10.383092   666A     10.391986  
     667A     10.463923   668A     10.475840   669A     10.497157  
     670A     10.507514   671A     10.514495   672A     10.581455  
     673A     10.639391   674A     10.657398   675A     10.719649  
     676A     10.765088   677A     10.767939   678A     10.777103  
     679A     10.796245   680A     10.845356   681A     10.882479  
     682A     11.054626   683A     11.065532   684A     11.195900  
     685A     11.197822   686A     11.366569   687A     11.377792  
     688A     11.450798   689A     11.454928   690A     11.569272  
     691A     11.638749   692A     11.668338   693A     11.698221  
     694A     11.774034   695A     11.897579   696A     12.282758  
     697A     12.490468   698A     12.733831   699A     12.842153  
     700A     13.203711   701A     13.369091   702A     13.378137  
     703A     13.518435   704A     13.570339   705A     26.164194  
     706A     26.282480   707A     26.522293   708A     26.943823  
     709A     27.181552   710A     34.210747  

    Final Occupation by Irrep:
              A 
    DOCC [    21 ]

  @DF-RHF Final Energy:  -246.79283364303620

   => Energetics <=

    Nuclear Repulsion Energy =            206.2595549969703370
    One-Electron Energy =                -741.3398174083285994
    Two-Electron Energy =                 288.2874287683220587
    Total Energy =                       -246.7928336430362037

Computation Completed


Properties will be evaluated at   0.000000,   0.000000,   0.000000 [a0]

Properties computed using the SCF density matrix

  Nuclear Dipole Moment: [e a0]
     X:   -24.4614      Y:    13.1987      Z:    97.1081

  Electronic Dipole Moment: [e a0]
     X:    25.3761      Y:   -13.1386      Z:   -97.0618

  Dipole Moment: [e a0]
     X:     0.9147      Y:     0.0600      Z:     0.0462     Total:     0.9178

  Dipole Moment: [D]
     X:     2.3249      Y:     0.1526      Z:     0.1175     Total:     2.3329


*** tstop() called on node37.bme.utexas.edu at Sat Apr 11 18:49:39 2020
Module time:
	user time   =     189.28 seconds =       3.15 minutes
	system time =      18.97 seconds =       0.32 minutes
	total time  =         31 seconds =       0.52 minutes
Total time:
	user time   =     261.14 seconds =       4.35 minutes
	system time =      23.69 seconds =       0.39 minutes
	total time  =         43 seconds =       0.72 minutes

*** tstart() called on node37.bme.utexas.edu
*** at Sat Apr 11 18:49:39 2020


  //>>>>>>>>>>>>>>>>>>>>>>>>>>>>>>>>>>>//
  //               DFMP2               //
  //<<<<<<<<<<<<<<<<<<<<<<<<<<<<<<<<<<<//

   => Loading Basis Set <=

    Name: (AUG-CC-PVQZ AUX)
    Role: RIFIT
    Keyword: DF_BASIS_MP2
    atoms 1              entry N          line   258 file /home/liuchw/anaconda3/envs/psi4env/share/psi4/basis/aug-cc-pvqz-ri.gbs 
    atoms 2, 4, 6, 8, 10 entry C          line   184 file /home/liuchw/anaconda3/envs/psi4env/share/psi4/basis/aug-cc-pvqz-ri.gbs 
    atoms 3, 5, 7, 9, 11 entry H          line    30 file /home/liuchw/anaconda3/envs/psi4env/share/psi4/basis/aug-cc-pvqz-ri.gbs 

	 --------------------------------------------------------
	                          DF-MP2                         
	      2nd-Order Density-Fitted Moller-Plesset Theory     
	              RMP2 Wavefunction,   8 Threads             
	                                                         
	        Rob Parrish, Justin Turney, Andy Simmonett,      
	           Ed Hohenstein, and C. David Sherrill          
	 --------------------------------------------------------

   => Auxiliary Basis Set <=

  Basis Set: (AUG-CC-PVQZ AUX)
    Blend: AUG-CC-PVQZ-RI
    Number of shells: 316
    Number of basis function: 1408
    Number of Cartesian functions: 1947
    Spherical Harmonics?: true
    Max angular momentum: 5

	 --------------------------------------------------------
	                 NBF =   710, NAUX =  1408
	 --------------------------------------------------------
	   CLASS    FOCC     OCC    AOCC    AVIR     VIR    FVIR
	   PAIRS       0      21      21     689     689       0
	 --------------------------------------------------------

	-----------------------------------------------------------
	 ==================> DF-MP2 Energies <==================== 
	-----------------------------------------------------------
	 Reference Energy          =    -246.7928336430362037 [Eh]
	 Singles Energy            =      -0.0000000000000000 [Eh]
	 Same-Spin Energy          =      -0.2841681286251524 [Eh]
	 Opposite-Spin Energy      =      -0.9423872102596498 [Eh]
	 Correlation Energy        =      -1.2265553388848023 [Eh]
	 Total Energy              =    -248.0193889819209971 [Eh]
	-----------------------------------------------------------
	 ================> DF-SCS-MP2 Energies <================== 
	-----------------------------------------------------------
	 SCS Same-Spin Scale       =       0.3333333333333333 [-]
	 SCS Opposite-Spin Scale   =       1.2000000000000000 [-]
	 SCS Same-Spin Energy      =      -0.0947227095417175 [Eh]
	 SCS Opposite-Spin Energy  =      -1.1308646523115797 [Eh]
	 SCS Correlation Energy    =      -1.2255873618532971 [Eh]
	 SCS Total Energy          =    -248.0184210048894897 [Eh]
	-----------------------------------------------------------


*** tstop() called on node37.bme.utexas.edu at Sat Apr 11 18:49:56 2020
Module time:
	user time   =      82.13 seconds =       1.37 minutes
	system time =       6.38 seconds =       0.11 minutes
	total time  =         17 seconds =       0.28 minutes
Total time:
	user time   =     343.27 seconds =       5.72 minutes
	system time =      30.07 seconds =       0.50 minutes
	total time  =         60 seconds =       1.00 minutes

  //>>>>>>>>>>>>>>>>>>>>>>>>>>>>>>>>>>>//
  //  CBS Results: mp2/aug-cc-pv[tq]z  //
  //<<<<<<<<<<<<<<<<<<<<<<<<<<<<<<<<<<<//


   ==> HF <==

   HI-zeta (4) Energy:               -246.792833643036


   ==> Helgaker 2-point correlated extrapolation for method: MP2 <==

   LO-zeta (3) Energy:               -247.886296494456
   HI-zeta (4) Energy:               -248.019388981921
   Alpha (exponent) Value:             3.000000000000
   Extrapolated Energy:              -248.116510526828

   @Extrapolated MP2/(T,Q):          -248.116510526828



   ==> Helgaker 2-point correlated extrapolation for method: HF <==

   LO-zeta (3) Energy:               -246.778691511088
   HI-zeta (4) Energy:               -246.792833643036
   Alpha (exponent) Value:             3.000000000000
   Extrapolated Energy:              -246.803153577160

   @Extrapolated HF/(T,Q):           -246.803153577160


   ==> Components <==

  ---------------------------------------------------------------------------------------------------------
                          Method / Basis                      Rqd      Energy [Eh]   Variable
  ---------------------------------------------------------------------------------------------------------
                              hf / aug-cc-pvtz                  *    -246.77869151   HF TOTAL ENERGY
                             mp2 / aug-cc-pvtz                  *    -247.88629649   MP2 TOTAL ENERGY
                              hf / aug-cc-pvqz                  *    -246.79283364   HF TOTAL ENERGY
                             mp2 / aug-cc-pvqz                  *    -248.01938898   MP2 TOTAL ENERGY
  ---------------------------------------------------------------------------------------------------------

   ==> Stages <==

  ---------------------------------------------------------------------------------------------------------
      Stage               Method / Basis                       Wt      Energy [Eh]   Scheme
  ---------------------------------------------------------------------------------------------------------
        scf                   hf / aug-cc-pvqz                  1    -246.79283364   xtpl_highest_1
       corl                  mp2 / aug-cc-pv[tq]z               1    -248.11651053   corl_xtpl_helgaker_2
       corl                   hf / aug-cc-pv[tq]z              -1    -246.80315358   corl_xtpl_helgaker_2
  ---------------------------------------------------------------------------------------------------------

   ==> CBS <==

  ---------------------------------------------------------------------------------------------------------
      Stage               Method / Basis                               Energy [Eh]   Scheme
  ---------------------------------------------------------------------------------------------------------
        scf                   hf / aug-cc-pvqz                       -246.79283364   xtpl_highest_1
       corl                  mp2 / aug-cc-pv[tq]z                      -1.31335695   corl_xtpl_helgaker_2
      total                  CBS                                     -248.10619059   
  ---------------------------------------------------------------------------------------------------------
   => Loading Basis Set <=

    Name: DEF2-SVP
    Role: ORBITAL
    Keyword: BASIS
    atoms 1              entry N          line   110 file /home/liuchw/anaconda3/envs/psi4env/share/psi4/basis/def2-svp.gbs 
    atoms 2, 4, 6, 8, 10 entry C          line    90 file /home/liuchw/anaconda3/envs/psi4env/share/psi4/basis/def2-svp.gbs 
    atoms 3, 5, 7, 9, 11 entry H          line    15 file /home/liuchw/anaconda3/envs/psi4env/share/psi4/basis/def2-svp.gbs 


       N-Body: Complex Energy (fragments = (2,), basis = (2,):  -248.10619059270377)

       N-Body: Computing complex (2/4) with fragments (2,) in the basis of fragments (1, 2).


Scratch directory: /scratch//

  //>>>>>>>>>>>>>>>>>>>>>>>>>>>>>>>>>>>//
  //   CBS Setup: mp2/aug-cc-pv[tq]z   //
  //<<<<<<<<<<<<<<<<<<<<<<<<<<<<<<<<<<<//

    Naive listing of computations required.
             hf / aug-cc-pvqz              for  HF TOTAL ENERGY
            mp2 / aug-cc-pvtz              for  MP2 TOTAL ENERGY
            mp2 / aug-cc-pvqz              for  MP2 TOTAL ENERGY
             hf / aug-cc-pvtz              for  HF TOTAL ENERGY
             hf / aug-cc-pvqz              for  HF TOTAL ENERGY

    Enlightened listing of computations required.
            mp2 / aug-cc-pvtz              for  MP2 TOTAL ENERGY
            mp2 / aug-cc-pvqz              for  MP2 TOTAL ENERGY

    Full listing of computations to be obtained (required and bonus).
             hf / aug-cc-pvtz              for  HF TOTAL ENERGY
            mp2 / aug-cc-pvtz              for  MP2 TOTAL ENERGY
             hf / aug-cc-pvqz              for  HF TOTAL ENERGY
            mp2 / aug-cc-pvqz              for  MP2 TOTAL ENERGY

  //>>>>>>>>>>>>>>>>>>>>>>>>>>>>>>>>>>>>//
  // CBS Computation: MP2 / AUG-CC-PVTZ //
  //<<<<<<<<<<<<<<<<<<<<<<<<<<<<<<<<<<<<//


Scratch directory: /scratch//

*** tstart() called on node37.bme.utexas.edu
*** at Sat Apr 11 18:49:58 2020

   => Loading Basis Set <=

    Name: AUG-CC-PVTZ
    Role: ORBITAL
    Keyword: BASIS
    atoms 1, 3, 5, 7, 9, 11, 14, 16, 18, 20, 22  entry C          line   239 file /home/liuchw/anaconda3/envs/psi4env/share/psi4/basis/aug-cc-pvtz.gbs 
    atoms 2, 4, 6, 8, 10, 12, 15, 17, 19, 21, 23 entry H          line    40 file /home/liuchw/anaconda3/envs/psi4env/share/psi4/basis/aug-cc-pvtz.gbs 
    atoms 13                                     entry N          line   285 file /home/liuchw/anaconda3/envs/psi4env/share/psi4/basis/aug-cc-pvtz.gbs 


         ---------------------------------------------------------
                                   SCF
               by Justin Turney, Rob Parrish, Andy Simmonett
                          and Daniel G. A. Smith
                              RHF Reference
                        8 Threads,  38146 MiB Core
         ---------------------------------------------------------

  ==> Geometry <==

    Molecular point group: c1
    Full point group: C1

    Geometry (in Angstrom), charge = 0, multiplicity = 1:

       Center              X                  Y                   Z               Mass       
    ------------   -----------------  -----------------  -----------------  -----------------
      Gh(C)           1.174379857354     0.930952586279    -1.034936269804    12.000000000000
      Gh(H)           1.821746857354     1.783448586279    -0.878501269804     1.007825032230
      Gh(C)           1.724629857354    -0.323743413721    -1.289920269804    12.000000000000
      Gh(H)           2.798668857354    -0.445081413721    -1.333796269804     1.007825032230
      Gh(C)           0.890011857354    -1.421712413721    -1.495110269804    12.000000000000
      Gh(H)           1.316480857354    -2.394783413721    -1.698729269804     1.007825032230
      Gh(C)          -0.493483142646    -1.263726413721    -1.443118269804    12.000000000000
      Gh(H)          -1.141436142646    -2.115079413721    -1.602775269804     1.007825032230
      Gh(C)          -1.043852142646    -0.009249413721    -1.182788269804    12.000000000000
      Gh(H)          -2.117054142646     0.111688586279    -1.129840269804     1.007825032230
      Gh(C)          -0.209659142646     1.088183586279    -0.980943269804    12.000000000000
      Gh(H)          -0.636924142646     2.060441586279    -0.776964269804     1.007825032230
         N           -1.726067142646     0.073885586279     1.145061730196    14.003074004430
         C           -1.111181142646     1.231553586279     1.425125730196    12.000000000000
         H           -1.758785142646     2.084724586279     1.587637730196     1.007825032230
         C            0.271033857354     1.372400586279     1.515296730196    12.000000000000
         H            0.702882857354     2.336051586279     1.746512730196     1.007825032230
         C            1.071984857354     0.255421586279     1.301082730196    12.000000000000
         H            2.149554857354     0.325805586279     1.355916730196     1.007825032230
         C            0.451432857354    -0.953233413721     1.007422730196    12.000000000000
         H            1.027207857354    -1.848855413721     0.823347730196     1.007825032230
         C           -0.939081142646    -0.991271413721     0.941973730196    12.000000000000
         H           -1.447934142646    -1.919724413721     0.713130730196     1.007825032230

  Running in c1 symmetry.

  Rotational constants: A =      0.05744  B =      0.03894  C =      0.03458 [cm^-1]
  Rotational constants: A =   1721.99758  B =   1167.29549  C =   1036.62108 [MHz]
  Nuclear repulsion =  206.259554996970337

  Charge       = 0
  Multiplicity = 1
  Electrons    = 42
  Nalpha       = 21
  Nbeta        = 21

  ==> Algorithm <==

  SCF Algorithm Type is DF.
  DIIS enabled.
  MOM disabled.
  Fractional occupation disabled.
  Guess Type is SAD.
  Energy threshold   = 1.00e-07
  Density threshold  = 1.00e-08
  Integral threshold = 0.00e+00

  ==> Primary Basis <==

  Basis Set: AUG-CC-PVTZ
    Blend: AUG-CC-PVTZ
    Number of shells: 267
    Number of basis function: 805
    Number of Cartesian functions: 935
    Spherical Harmonics?: true
    Max angular momentum: 3

   => Loading Basis Set <=

    Name: (AUG-CC-PVTZ AUX)
    Role: JKFIT
    Keyword: DF_BASIS_SCF
    atoms 1, 3, 5, 7, 9, 11, 14, 16, 18, 20, 22  entry C          line   162 file /home/liuchw/anaconda3/envs/psi4env/share/psi4/basis/aug-cc-pvtz-jkfit.gbs 
    atoms 2, 4, 6, 8, 10, 12, 15, 17, 19, 21, 23 entry H          line    70 file /home/liuchw/anaconda3/envs/psi4env/share/psi4/basis/aug-cc-pvtz-jkfit.gbs 
    atoms 13                                     entry N          line   224 file /home/liuchw/anaconda3/envs/psi4env/share/psi4/basis/aug-cc-pvtz-jkfit.gbs 

  ==> Pre-Iterations <==

   -------------------------------------------------------
    Irrep   Nso     Nmo     Nalpha   Nbeta   Ndocc  Nsocc
   -------------------------------------------------------
     A        805     805       0       0       0       0
   -------------------------------------------------------
    Total     805     805      21      21      21       0
   -------------------------------------------------------

  ==> Integral Setup <==

  DFHelper Memory: AOs need 8.485 GiB; user supplied 27.940 GiB. Using in-core AOs.

  ==> MemDFJK: Density-Fitted J/K Matrices <==

    J tasked:                   Yes
    K tasked:                   Yes
    wK tasked:                   No
    OpenMP threads:               8
    Memory [MiB]:             28610
    Algorithm:                 Core
    Schwarz Cutoff:           1E-12
    Mask sparsity (%):       2.0749
    Fitting Condition:        1E-10

   => Auxiliary Basis Set <=

  Basis Set: (AUG-CC-PVTZ AUX)
    Blend: AUG-CC-PVTZ-JKFIT
    Number of shells: 514
    Number of basis function: 1754
    Number of Cartesian functions: 2177
    Spherical Harmonics?: true
    Max angular momentum: 4

  Minimum eigenvalue in the overlap matrix is 1.7577125963E-07.
  Using Symmetric Orthogonalization.

  SCF Guess: Superposition of Atomic Densities via on-the-fly atomic UHF.

  ==> Iterations <==

                           Total Energy        Delta E     RMS |[F,P]|

   @DF-RHF iter SAD:  -246.16027775117010   -2.46160e+02   0.00000e+00 
   @DF-RHF iter   1:  -246.63350244128853   -4.73225e-01   6.12911e-04 DIIS
   @DF-RHF iter   2:  -246.75370845393334   -1.20206e-01   2.80900e-04 DIIS
   @DF-RHF iter   3:  -246.77770800762684   -2.39996e-02   5.41984e-05 DIIS
   @DF-RHF iter   4:  -246.77908695563036   -1.37895e-03   1.55591e-05 DIIS
   @DF-RHF iter   5:  -246.77916395933303   -7.70037e-05   5.20944e-06 DIIS
   @DF-RHF iter   6:  -246.77917437308673   -1.04138e-05   1.17678e-06 DIIS
   @DF-RHF iter   7:  -246.77917510161328   -7.28527e-07   4.04012e-07 DIIS
   @DF-RHF iter   8:  -246.77917518820328   -8.65900e-08   1.66654e-07 DIIS
   @DF-RHF iter   9:  -246.77917521196537   -2.37621e-08   4.54195e-08 DIIS
   @DF-RHF iter  10:  -246.77917521455072   -2.58535e-09   1.66209e-08 DIIS
   @DF-RHF iter  11:  -246.77917521503338   -4.82657e-10   9.90021e-09 DIIS
  Energy and wave function converged.


  ==> Post-Iterations <==

    Orbital Energies [Eh]
    ---------------------

    Doubly Occupied:                                                      

       1A    -15.567459     2A    -11.275455     3A    -11.275402  
       4A    -11.260631     5A    -11.242553     6A    -11.242418  
       7A     -1.257138     8A     -1.090536     9A     -1.033977  
      10A     -0.859890    11A     -0.856188    12A     -0.722324  
      13A     -0.660995    14A     -0.654578    15A     -0.598474  
      16A     -0.577645    17A     -0.541640    18A     -0.520201  
      19A     -0.420176    20A     -0.384500    21A     -0.348155  

    Virtual:                                                              

      22A      0.021110    23A      0.029477    24A      0.033353  
      25A      0.036928    26A      0.044642    27A      0.045924  
      28A      0.048090    29A      0.050211    30A      0.064120  
      31A      0.065584    32A      0.066295    33A      0.074559  
      34A      0.087255    35A      0.090943    36A      0.097223  
      37A      0.097695    38A      0.100156    39A      0.103133  
      40A      0.107897    41A      0.113869    42A      0.116515  
      43A      0.118718    44A      0.120359    45A      0.121367  
      46A      0.124371    47A      0.126454    48A      0.132377  
      49A      0.136410    50A      0.144390    51A      0.147969  
      52A      0.150720    53A      0.151814    54A      0.153048  
      55A      0.154817    56A      0.156755    57A      0.160508  
      58A      0.161925    59A      0.166007    60A      0.177339  
      61A      0.180379    62A      0.183225    63A      0.186643  
      64A      0.189026    65A      0.192880    66A      0.194894  
      67A      0.201942    68A      0.205733    69A      0.207219  
      70A      0.214121    71A      0.229915    72A      0.235041  
      73A      0.240040    74A      0.241675    75A      0.247483  
      76A      0.253516    77A      0.255808    78A      0.261404  
      79A      0.266696    80A      0.269343    81A      0.274594  
      82A      0.277062    83A      0.286819    84A      0.288227  
      85A      0.293449    86A      0.297207    87A      0.303731  
      88A      0.309824    89A      0.317931    90A      0.326222  
      91A      0.327050    92A      0.333916    93A      0.337487  
      94A      0.339164    95A      0.347553    96A      0.352770  
      97A      0.354639    98A      0.361859    99A      0.365370  
     100A      0.365733   101A      0.373208   102A      0.375431  
     103A      0.383552   104A      0.388202   105A      0.391094  
     106A      0.395830   107A      0.397900   108A      0.404442  
     109A      0.406818   110A      0.416916   111A      0.419513  
     112A      0.426592   113A      0.432131   114A      0.435111  
     115A      0.440096   116A      0.442120   117A      0.447303  
     118A      0.450500   119A      0.453471   120A      0.458339  
     121A      0.462708   122A      0.462937   123A      0.470873  
     124A      0.476933   125A      0.482132   126A      0.491900  
     127A      0.496671   128A      0.498009   129A      0.501099  
     130A      0.504569   131A      0.507873   132A      0.509423  
     133A      0.513505   134A      0.515619   135A      0.522488  
     136A      0.528066   137A      0.531648   138A      0.533447  
     139A      0.538658   140A      0.545463   141A      0.553729  
     142A      0.555355   143A      0.557863   144A      0.566345  
     145A      0.568586   146A      0.570925   147A      0.573469  
     148A      0.578977   149A      0.584569   150A      0.586648  
     151A      0.593066   152A      0.598129   153A      0.605694  
     154A      0.611385   155A      0.615208   156A      0.621049  
     157A      0.625909   158A      0.630068   159A      0.636523  
     160A      0.638458   161A      0.646490   162A      0.649060  
     163A      0.653414   164A      0.655577   165A      0.665700  
     166A      0.670415   167A      0.676070   168A      0.676334  
     169A      0.678471   170A      0.682029   171A      0.688056  
     172A      0.694419   173A      0.698993   174A      0.702277  
     175A      0.710519   176A      0.717420   177A      0.717811  
     178A      0.729391   179A      0.733242   180A      0.737581  
     181A      0.738623   182A      0.745181   183A      0.751476  
     184A      0.762087   185A      0.763681   186A      0.764393  
     187A      0.767837   188A      0.774213   189A      0.780667  
     190A      0.782943   191A      0.788361   192A      0.794092  
     193A      0.799325   194A      0.807474   195A      0.816796  
     196A      0.819276   197A      0.825552   198A      0.830879  
     199A      0.836381   200A      0.841040   201A      0.848812  
     202A      0.850845   203A      0.865398   204A      0.872143  
     205A      0.879324   206A      0.882777   207A      0.888499  
     208A      0.895492   209A      0.904500   210A      0.909443  
     211A      0.912259   212A      0.914210   213A      0.919406  
     214A      0.924679   215A      0.930916   216A      0.939994  
     217A      0.943910   218A      0.946074   219A      0.953430  
     220A      0.968511   221A      0.969092   222A      0.978396  
     223A      0.983366   224A      0.987565   225A      0.992036  
     226A      1.004728   227A      1.006508   228A      1.011880  
     229A      1.016111   230A      1.024859   231A      1.030723  
     232A      1.039696   233A      1.042517   234A      1.058109  
     235A      1.063809   236A      1.067778   237A      1.071622  
     238A      1.078101   239A      1.086299   240A      1.096427  
     241A      1.102115   242A      1.103394   243A      1.107975  
     244A      1.114322   245A      1.115322   246A      1.122332  
     247A      1.130762   248A      1.137866   249A      1.146662  
     250A      1.151768   251A      1.162061   252A      1.162697  
     253A      1.169008   254A      1.169647   255A      1.180095  
     256A      1.184953   257A      1.186769   258A      1.191450  
     259A      1.200063   260A      1.206394   261A      1.208241  
     262A      1.216665   263A      1.230502   264A      1.231411  
     265A      1.236013   266A      1.238917   267A      1.241428  
     268A      1.249082   269A      1.253141   270A      1.265823  
     271A      1.268482   272A      1.269968   273A      1.273540  
     274A      1.277233   275A      1.282028   276A      1.285467  
     277A      1.291660   278A      1.297401   279A      1.308165  
     280A      1.311713   281A      1.316037   282A      1.321756  
     283A      1.325276   284A      1.330757   285A      1.342539  
     286A      1.347468   287A      1.354141   288A      1.355205  
     289A      1.368108   290A      1.373495   291A      1.377016  
     292A      1.385962   293A      1.388489   294A      1.398767  
     295A      1.405788   296A      1.407577   297A      1.421949  
     298A      1.427243   299A      1.432229   300A      1.439241  
     301A      1.448714   302A      1.461947   303A      1.463278  
     304A      1.475739   305A      1.476454   306A      1.485744  
     307A      1.490171   308A      1.495777   309A      1.508001  
     310A      1.512712   311A      1.519832   312A      1.524552  
     313A      1.536981   314A      1.540378   315A      1.543438  
     316A      1.550484   317A      1.557122   318A      1.563708  
     319A      1.576364   320A      1.578285   321A      1.581440  
     322A      1.593074   323A      1.594824   324A      1.605521  
     325A      1.612043   326A      1.616780   327A      1.628034  
     328A      1.630985   329A      1.635370   330A      1.639967  
     331A      1.642572   332A      1.654350   333A      1.657748  
     334A      1.665042   335A      1.674283   336A      1.681080  
     337A      1.690952   338A      1.692127   339A      1.697609  
     340A      1.706786   341A      1.714131   342A      1.714979  
     343A      1.724127   344A      1.731856   345A      1.734138  
     346A      1.745309   347A      1.749636   348A      1.755722  
     349A      1.760746   350A      1.769698   351A      1.776668  
     352A      1.789931   353A      1.797615   354A      1.801736  
     355A      1.804190   356A      1.820245   357A      1.826737  
     358A      1.836523   359A      1.851721   360A      1.854483  
     361A      1.860473   362A      1.868475   363A      1.873579  
     364A      1.878021   365A      1.888211   366A      1.893714  
     367A      1.895739   368A      1.909292   369A      1.921201  
     370A      1.928405   371A      1.933695   372A      1.940297  
     373A      1.948444   374A      1.960809   375A      1.964624  
     376A      1.973004   377A      1.977715   378A      1.990554  
     379A      2.001175   380A      2.004769   381A      2.007062  
     382A      2.012802   383A      2.021634   384A      2.035210  
     385A      2.044825   386A      2.050546   387A      2.055529  
     388A      2.058733   389A      2.066722   390A      2.073878  
     391A      2.089717   392A      2.094618   393A      2.106077  
     394A      2.115922   395A      2.129223   396A      2.131882  
     397A      2.143409   398A      2.147965   399A      2.151442  
     400A      2.162048   401A      2.178567   402A      2.179818  
     403A      2.191429   404A      2.199063   405A      2.208411  
     406A      2.213867   407A      2.229743   408A      2.243231  
     409A      2.245973   410A      2.252056   411A      2.261528  
     412A      2.272158   413A      2.293215   414A      2.298922  
     415A      2.305902   416A      2.307861   417A      2.326719  
     418A      2.334990   419A      2.337839   420A      2.345005  
     421A      2.358166   422A      2.371533   423A      2.378337  
     424A      2.378658   425A      2.395907   426A      2.403155  
     427A      2.424064   428A      2.429161   429A      2.431319  
     430A      2.448036   431A      2.455149   432A      2.456830  
     433A      2.479074   434A      2.481968   435A      2.487326  
     436A      2.490286   437A      2.496393   438A      2.506260  
     439A      2.521138   440A      2.521772   441A      2.529495  
     442A      2.543417   443A      2.554297   444A      2.558509  
     445A      2.571491   446A      2.576028   447A      2.584039  
     448A      2.585930   449A      2.594692   450A      2.601367  
     451A      2.610388   452A      2.620204   453A      2.627134  
     454A      2.634053   455A      2.642474   456A      2.648179  
     457A      2.669216   458A      2.674299   459A      2.679079  
     460A      2.698398   461A      2.700737   462A      2.710999  
     463A      2.719259   464A      2.731530   465A      2.731946  
     466A      2.743210   467A      2.757878   468A      2.771447  
     469A      2.775711   470A      2.796922   471A      2.826521  
     472A      2.837176   473A      2.843981   474A      2.858692  
     475A      2.882609   476A      2.899088   477A      2.903711  
     478A      2.915567   479A      2.936500   480A      2.937138  
     481A      2.962516   482A      2.968170   483A      2.976927  
     484A      2.984673   485A      3.004207   486A      3.011582  
     487A      3.019876   488A      3.053090   489A      3.070753  
     490A      3.103107   491A      3.124828   492A      3.150902  
     493A      3.195966   494A      3.203594   495A      3.213418  
     496A      3.255045   497A      3.266964   498A      3.316773  
     499A      3.319931   500A      3.333366   501A      3.389525  
     502A      3.399338   503A      3.421652   504A      3.449161  
     505A      3.476161   506A      3.481845   507A      3.525352  
     508A      3.530622   509A      3.543371   510A      3.563462  
     511A      3.569288   512A      3.586313   513A      3.586904  
     514A      3.622441   515A      3.632520   516A      3.640639  
     517A      3.664524   518A      3.679350   519A      3.695809  
     520A      3.701178   521A      3.717013   522A      3.730056  
     523A      3.735267   524A      3.757001   525A      3.775206  
     526A      3.785057   527A      3.808009   528A      3.815210  
     529A      3.821811   530A      3.847859   531A      3.855329  
     532A      3.857508   533A      3.867381   534A      3.889405  
     535A      3.909574   536A      3.919859   537A      3.937778  
     538A      3.946768   539A      3.964356   540A      3.969026  
     541A      3.982072   542A      3.997021   543A      4.003463  
     544A      4.019216   545A      4.029058   546A      4.039189  
     547A      4.060809   548A      4.068971   549A      4.073488  
     550A      4.080863   551A      4.100345   552A      4.117253  
     553A      4.128515   554A      4.128786   555A      4.149779  
     556A      4.163332   557A      4.169695   558A      4.176544  
     559A      4.187691   560A      4.190518   561A      4.201268  
     562A      4.209025   563A      4.233494   564A      4.233658  
     565A      4.245222   566A      4.256216   567A      4.268558  
     568A      4.273105   569A      4.281316   570A      4.290629  
     571A      4.305235   572A      4.312704   573A      4.324352  
     574A      4.335469   575A      4.340523   576A      4.353911  
     577A      4.364130   578A      4.377952   579A      4.384691  
     580A      4.390092   581A      4.409313   582A      4.416355  
     583A      4.424523   584A      4.429695   585A      4.457918  
     586A      4.462295   587A      4.463815   588A      4.481643  
     589A      4.490108   590A      4.501057   591A      4.503572  
     592A      4.513911   593A      4.522776   594A      4.545236  
     595A      4.549556   596A      4.556193   597A      4.568438  
     598A      4.589453   599A      4.601759   600A      4.615798  
     601A      4.626398   602A      4.636357   603A      4.639652  
     604A      4.647693   605A      4.657536   606A      4.676730  
     607A      4.686623   608A      4.697077   609A      4.714724  
     610A      4.721684   611A      4.735769   612A      4.745484  
     613A      4.749585   614A      4.764332   615A      4.779652  
     616A      4.795454   617A      4.803610   618A      4.833462  
     619A      4.847265   620A      4.854305   621A      4.861745  
     622A      4.871308   623A      4.897780   624A      4.904002  
     625A      4.926295   626A      4.934553   627A      4.939136  
     628A      4.954550   629A      4.969717   630A      4.979708  
     631A      4.984424   632A      4.987289   633A      4.994752  
     634A      5.008931   635A      5.014176   636A      5.034538  
     637A      5.055118   638A      5.071229   639A      5.073787  
     640A      5.079926   641A      5.086331   642A      5.101320  
     643A      5.107953   644A      5.130409   645A      5.133661  
     646A      5.143726   647A      5.151764   648A      5.160390  
     649A      5.170428   650A      5.174898   651A      5.188106  
     652A      5.197497   653A      5.204633   654A      5.206275  
     655A      5.215042   656A      5.251437   657A      5.259587  
     658A      5.270746   659A      5.279022   660A      5.290418  
     661A      5.301172   662A      5.305382   663A      5.320549  
     664A      5.331601   665A      5.339061   666A      5.347173  
     667A      5.366934   668A      5.381566   669A      5.390442  
     670A      5.409003   671A      5.426481   672A      5.429859  
     673A      5.432936   674A      5.448528   675A      5.450327  
     676A      5.460904   677A      5.471180   678A      5.493766  
     679A      5.504835   680A      5.520776   681A      5.526974  
     682A      5.552903   683A      5.555390   684A      5.565259  
     685A      5.577514   686A      5.587853   687A      5.616855  
     688A      5.636468   689A      5.639710   690A      5.663650  
     691A      5.673208   692A      5.684785   693A      5.695315  
     694A      5.709221   695A      5.712975   696A      5.738207  
     697A      5.761199   698A      5.767434   699A      5.775329  
     700A      5.791323   701A      5.796410   702A      5.813585  
     703A      5.831362   704A      5.843754   705A      5.852071  
[...]
    1006A      6.333940  1007A      6.351297  1008A      6.368838  
    1009A      6.374098  1010A      6.381764  1011A      6.395696  
    1012A      6.416138  1013A      6.430105  1014A      6.444029  
    1015A      6.449789  1016A      6.467333  1017A      6.475200  
    1018A      6.489714  1019A      6.502249  1020A      6.515202  
    1021A      6.527775  1022A      6.534786  1023A      6.544916  
    1024A      6.550431  1025A      6.562793  1026A      6.574436  
    1027A      6.584682  1028A      6.600205  1029A      6.619848  
    1030A      6.623858  1031A      6.642920  1032A      6.655936  
    1033A      6.672548  1034A      6.678904  1035A      6.689804  
    1036A      6.697368  1037A      6.710331  1038A      6.714348  
    1039A      6.725030  1040A      6.735272  1041A      6.741312  
    1042A      6.766117  1043A      6.770031  1044A      6.775885  
    1045A      6.789498  1046A      6.802497  1047A      6.804062  
    1048A      6.820105  1049A      6.824839  1050A      6.832851  
    1051A      6.841457  1052A      6.849145  1053A      6.857347  
    1054A      6.871315  1055A      6.886267  1056A      6.897718  
    1057A      6.904024  1058A      6.919893  1059A      6.922636  
    1060A      6.930721  1061A      6.940095  1062A      6.950093  
    1063A      6.964706  1064A      6.971414  1065A      6.975510  
    1066A      6.982665  1067A      6.995380  1068A      7.009178  
    1069A      7.012628  1070A      7.020139  1071A      7.028541  
    1072A      7.035291  1073A      7.041735  1074A      7.044094  
    1075A      7.052305  1076A      7.056311  1077A      7.070013  
    1078A      7.074855  1079A      7.080530  1080A      7.093334  
    1081A      7.101760  1082A      7.119988  1083A      7.126440  
    1084A      7.131946  1085A      7.139479  1086A      7.145420  
    1087A      7.150285  1088A      7.158374  1089A      7.165148  
    1090A      7.176251  1091A      7.183620  1092A      7.189395  
    1093A      7.200710  1094A      7.216611  1095A      7.218998  
    1096A      7.223130  1097A      7.229896  1098A      7.233420  
    1099A      7.239892  1100A      7.254677  1101A      7.255985  
    1102A      7.262545  1103A      7.273166  1104A      7.279059  
    1105A      7.283054  1106A      7.286963  1107A      7.296890  
    1108A      7.301908  1109A      7.316282  1110A      7.322079  
    1111A      7.331876  1112A      7.339441  1113A      7.350034  
    1114A      7.353423  1115A      7.360852  1116A      7.365490  
    1117A      7.376175  1118A      7.384383  1119A      7.393532  
    1120A      7.403080  1121A      7.405622  1122A      7.416385  
    1123A      7.421538  1124A      7.428222  1125A      7.434891  
    1126A      7.441530  1127A      7.448257  1128A      7.455721  
    1129A      7.459504  1130A      7.466222  1131A      7.479225  
    1132A      7.483249  1133A      7.492734  1134A      7.509436  
    1135A      7.511780  1136A      7.517935  1137A      7.528679  
    1138A      7.536265  1139A      7.541950  1140A      7.572457  
    1141A      7.573940  1142A      7.577238  1143A      7.597756  
    1144A      7.601074  1145A      7.603881  1146A      7.628007  
    1147A      7.638453  1148A      7.639429  1149A      7.644806  
    1150A      7.652466  1151A      7.672851  1152A      7.684381  
    1153A      7.684873  1154A      7.700295  1155A      7.708585  
    1156A      7.710849  1157A      7.716005  1158A      7.733943  
    1159A      7.738650  1160A      7.746245  1161A      7.752008  
    1162A      7.775662  1163A      7.782463  1164A      7.797953  
    1165A      7.798977  1166A      7.809471  1167A      7.820341  
    1168A      7.827211  1169A      7.843029  1170A      7.847909  
    1171A      7.857642  1172A      7.869207  1173A      7.880347  
    1174A      7.888290  1175A      7.897548  1176A      7.906415  
    1177A      7.912434  1178A      7.922518  1179A      7.925968  
    1180A      7.934890  1181A      7.940278  1182A      7.951705  
    1183A      7.966741  1184A      7.973744  1185A      7.981400  
    1186A      8.000438  1187A      8.008597  1188A      8.018117  
    1189A      8.029715  1190A      8.041520  1191A      8.056311  
    1192A      8.069332  1193A      8.084642  1194A      8.088168  
    1195A      8.098008  1196A      8.113806  1197A      8.123061  
    1198A      8.127828  1199A      8.133898  1200A      8.158011  
    1201A      8.167200  1202A      8.174260  1203A      8.184053  
    1204A      8.190967  1205A      8.198414  1206A      8.200616  
    1207A      8.222479  1208A      8.246334  1209A      8.252545  
    1210A      8.264168  1211A      8.275996  1212A      8.283547  
    1213A      8.301656  1214A      8.304245  1215A      8.311457  
    1216A      8.320262  1217A      8.327348  1218A      8.331882  
    1219A      8.338775  1220A      8.355208  1221A      8.367456  
    1222A      8.377291  1223A      8.389318  1224A      8.393676  
    1225A      8.405504  1226A      8.419122  1227A      8.435983  
    1228A      8.444189  1229A      8.468433  1230A      8.488090  
    1231A      8.492583  1232A      8.503594  1233A      8.509934  
    1234A      8.517527  1235A      8.526033  1236A      8.533241  
    1237A      8.550531  1238A      8.571682  1239A      8.589944  
    1240A      8.596564  1241A      8.634157  1242A      8.639400  
    1243A      8.660525  1244A      8.706079  1245A      8.732958  
    1246A      8.765075  1247A      8.769190  1248A      8.775193  
    1249A      8.785379  1250A      8.817107  1251A      8.855841  
    1252A      8.861745  1253A      8.878837  1254A      8.886306  
    1255A      8.892374  1256A      8.906598  1257A      8.916888  
    1258A      8.925461  1259A      8.953724  1260A      8.964224  
    1261A      8.973924  1262A      8.987587  1263A      8.999121  
    1264A      9.005335  1265A      9.010863  1266A      9.017942  
    1267A      9.030538  1268A      9.046288  1269A      9.054202  
    1270A      9.071396  1271A      9.074979  1272A      9.079436  
    1273A      9.083961  1274A      9.093771  1275A      9.102174  
    1276A      9.111691  1277A      9.130459  1278A      9.141808  
    1279A      9.154176  1280A      9.175380  1281A      9.177609  
    1282A      9.184608  1283A      9.202335  1284A      9.210777  
    1285A      9.218681  1286A      9.234515  1287A      9.241137  
    1288A      9.251116  1289A      9.258686  1290A      9.278748  
    1291A      9.296690  1292A      9.299692  1293A      9.312564  
    1294A      9.330453  1295A      9.341072  1296A      9.351069  
    1297A      9.371361  1298A      9.376288  1299A      9.395887  
    1300A      9.417768  1301A      9.433251  1302A      9.456378  
    1303A      9.474623  1304A      9.484102  1305A      9.497970  
    1306A      9.506400  1307A      9.534289  1308A      9.558445  
    1309A      9.564356  1310A      9.589747  1311A      9.595198  
    1312A      9.601795  1313A      9.607465  1314A      9.625537  
    1315A      9.645712  1316A      9.657725  1317A      9.672515  
    1318A      9.682263  1319A      9.689138  1320A      9.700167  
    1321A      9.712294  1322A      9.729818  1323A      9.740763  
    1324A      9.765081  1325A      9.767063  1326A      9.783196  
    1327A      9.796933  1328A      9.799983  1329A      9.812381  
    1330A      9.828233  1331A      9.833737  1332A      9.852472  
    1333A      9.858264  1334A      9.874630  1335A      9.894400  
    1336A      9.908562  1337A      9.918394  1338A      9.925913  
    1339A      9.945440  1340A      9.960818  1341A      9.985999  
    1342A      9.998710  1343A     10.037778  1344A     10.046215  
    1345A     10.054395  1346A     10.072191  1347A     10.084520  
    1348A     10.098403  1349A     10.124215  1350A     10.156564  
    1351A     10.172698  1352A     10.181659  1353A     10.194662  
    1354A     10.196951  1355A     10.212701  1356A     10.219419  
    1357A     10.232330  1358A     10.256638  1359A     10.272149  
    1360A     10.289377  1361A     10.318978  1362A     10.343979  
    1363A     10.350626  1364A     10.364269  1365A     10.373435  
    1366A     10.385936  1367A     10.398384  1368A     10.399859  
    1369A     10.428383  1370A     10.429587  1371A     10.450866  
    1372A     10.461216  1373A     10.477690  1374A     10.490972  
    1375A     10.494059  1376A     10.508188  1377A     10.523074  
    1378A     10.533128  1379A     10.538032  1380A     10.563117  
    1381A     10.570401  1382A     10.583077  1383A     10.590936  
    1384A     10.610396  1385A     10.615970  1386A     10.626923  
    1387A     10.634989  1388A     10.655792  1389A     10.663165  
    1390A     10.679047  1391A     10.703064  1392A     10.743951  
    1393A     10.768390  1394A     10.797298  1395A     10.833187  
    1396A     10.854679  1397A     10.862386  1398A     10.874964  
    1399A     10.883996  1400A     10.906523  1401A     10.932120  
    1402A     10.946638  1403A     10.959088  1404A     10.967030  
    1405A     10.995361  1406A     11.010601  1407A     11.030561  
    1408A     11.047800  1409A     11.058811  1410A     11.071603  
    1411A     11.129908  1412A     11.147127  1413A     11.204521  
    1414A     11.215629  1415A     11.251881  1416A     11.310597  
    1417A     11.321776  1418A     11.345748  1419A     11.496393  
    1420A     11.530580  1421A     11.541538  1422A     11.546888  
    1423A     11.554349  1424A     11.573558  1425A     11.584783  
    1426A     11.665024  1427A     11.735152  1428A     11.767537  
    1429A     11.836224  1430A     11.856226  1431A     11.902558  
    1432A     11.913903  1433A     11.953528  1434A     11.965111  
    1435A     11.984977  1436A     12.010497  1437A     12.109008  
    1438A     12.331262  1439A     12.523349  1440A     12.693326  
    1441A     12.891244  1442A     13.038884  1443A     13.384584  
    1444A     13.452489  1445A     13.520477  1446A     13.574319  
    1447A     13.607944  1448A     13.662726  1449A     13.700659  
    1450A     13.726193  1451A     13.736129  1452A     13.898237  
    1453A     13.936092  1454A     26.594080  1455A     26.692239  
    1456A     26.775810  1457A     26.923165  1458A     26.993504  
    1459A     27.235320  1460A     27.332710  1461A     27.510190  
    1462A     27.523767  1463A     27.550851  1464A     27.668355  
    1465A     35.202179  

    Final Occupation by Irrep:
              A 
    DOCC [    42 ]

  @DF-RHF Final Energy:  -477.43783751859473

   => Energetics <=

    Nuclear Repulsion Energy =            703.5020281864174194
    One-Electron Energy =               -2042.4394597810282903
    Two-Electron Energy =                 861.4995940760161375
    Total Energy =                       -477.4378375185947334

Computation Completed


Properties will be evaluated at   0.000000,   0.000000,   0.000000 [a0]

Properties computed using the SCF density matrix

  Nuclear Dipole Moment: [e a0]
     X:     2.5497      Y:    -0.0202      Z:    -1.1227

  Electronic Dipole Moment: [e a0]
     X:    -1.7382      Y:     0.0402      Z:     1.0941

  Dipole Moment: [e a0]
     X:     0.8115      Y:     0.0199      Z:    -0.0286     Total:     0.8123

  Dipole Moment: [D]
     X:     2.0627      Y:     0.0506      Z:    -0.0728     Total:     2.0646


*** tstop() called on node37.bme.utexas.edu at Sat Apr 11 19:38:59 2020
Module time:
	user time   =    5935.38 seconds =      98.92 minutes
	system time =     254.37 seconds =       4.24 minutes
	total time  =        818 seconds =      13.63 minutes
Total time:
	user time   =   19417.98 seconds =     323.63 minutes
	system time =    1909.70 seconds =      31.83 minutes
	total time  =       3003 seconds =      50.05 minutes

*** tstart() called on node37.bme.utexas.edu
*** at Sat Apr 11 19:38:59 2020


  //>>>>>>>>>>>>>>>>>>>>>>>>>>>>>>>>>>>//
  //               DFMP2               //
  //<<<<<<<<<<<<<<<<<<<<<<<<<<<<<<<<<<<//

   => Loading Basis Set <=

    Name: (AUG-CC-PVQZ AUX)
    Role: RIFIT
    Keyword: DF_BASIS_MP2
    atoms 1, 3, 5, 7, 9, 11, 14, 16, 18, 20, 22  entry C          line   184 file /home/liuchw/anaconda3/envs/psi4env/share/psi4/basis/aug-cc-pvqz-ri.gbs 
    atoms 2, 4, 6, 8, 10, 12, 15, 17, 19, 21, 23 entry H          line    30 file /home/liuchw/anaconda3/envs/psi4env/share/psi4/basis/aug-cc-pvqz-ri.gbs 
    atoms 13                                     entry N          line   258 file /home/liuchw/anaconda3/envs/psi4env/share/psi4/basis/aug-cc-pvqz-ri.gbs 

	 --------------------------------------------------------
	                          DF-MP2                         
	      2nd-Order Density-Fitted Moller-Plesset Theory     
	              RMP2 Wavefunction,   8 Threads             
	                                                         
	        Rob Parrish, Justin Turney, Andy Simmonett,      
	           Ed Hohenstein, and C. David Sherrill          
	 --------------------------------------------------------

   => Auxiliary Basis Set <=

  Basis Set: (AUG-CC-PVQZ AUX)
    Blend: AUG-CC-PVQZ-RI
    Number of shells: 652
    Number of basis function: 2896
    Number of Cartesian functions: 3999
    Spherical Harmonics?: true
    Max angular momentum: 5

	 --------------------------------------------------------
	                 NBF =  1466, NAUX =  2896
	 --------------------------------------------------------
	   CLASS    FOCC     OCC    AOCC    AVIR     VIR    FVIR
	   PAIRS       0      42      42    1423    1423       0
	 --------------------------------------------------------

	-----------------------------------------------------------
	 ==================> DF-MP2 Energies <==================== 
	-----------------------------------------------------------
	 Reference Energy          =    -477.4378375185947334 [Eh]
	 Singles Energy            =      -0.0000000000000000 [Eh]
	 Same-Spin Energy          =      -0.5921157168027495 [Eh]
	 Opposite-Spin Energy      =      -1.9107639615633660 [Eh]
	 Correlation Energy        =      -2.5028796783661154 [Eh]
	 Total Energy              =    -479.9407171969608612 [Eh]
	-----------------------------------------------------------
	 ================> DF-SCS-MP2 Energies <================== 
	-----------------------------------------------------------
	 SCS Same-Spin Scale       =       0.3333333333333333 [-]
	 SCS Opposite-Spin Scale   =       1.2000000000000000 [-]
	 SCS Same-Spin Energy      =      -0.1973719056009165 [Eh]
	 SCS Opposite-Spin Energy  =      -2.2929167538760393 [Eh]
	 SCS Correlation Energy    =      -2.4902886594769558 [Eh]
	 SCS Total Energy          =    -479.9281261780716932 [Eh]
	-----------------------------------------------------------


*** tstop() called on node37.bme.utexas.edu at Sat Apr 11 19:42:10 2020
Module time:
	user time   =    1084.00 seconds =      18.07 minutes
	system time =      76.66 seconds =       1.28 minutes
	total time  =        191 seconds =       3.18 minutes
Total time:
	user time   =   20501.98 seconds =     341.70 minutes
	system time =    1986.36 seconds =      33.11 minutes
	total time  =       3194 seconds =      53.23 minutes

  //>>>>>>>>>>>>>>>>>>>>>>>>>>>>>>>>>>>//
  //  CBS Results: mp2/aug-cc-pv[tq]z  //
  //<<<<<<<<<<<<<<<<<<<<<<<<<<<<<<<<<<<//


   ==> HF <==

   HI-zeta (4) Energy:               -477.437837518595


   ==> Helgaker 2-point correlated extrapolation for method: MP2 <==

   LO-zeta (3) Energy:               -479.688447324930
   HI-zeta (4) Energy:               -479.940717196961
   Alpha (exponent) Value:             3.000000000000
   Extrapolated Energy:              -480.124806022497

   @Extrapolated MP2/(T,Q):          -480.124806022497



   ==> Helgaker 2-point correlated extrapolation for method: HF <==

   LO-zeta (3) Energy:               -477.411189596235
   HI-zeta (4) Energy:               -477.437837518595
   Alpha (exponent) Value:             3.000000000000
   Extrapolated Energy:              -477.457283299776

   @Extrapolated HF/(T,Q):           -477.457283299776


   ==> Components <==

  ---------------------------------------------------------------------------------------------------------
                          Method / Basis                      Rqd      Energy [Eh]   Variable
  ---------------------------------------------------------------------------------------------------------
                              hf / aug-cc-pvtz                  *    -477.41118960   HF TOTAL ENERGY
                             mp2 / aug-cc-pvtz                  *    -479.68844732   MP2 TOTAL ENERGY
                              hf / aug-cc-pvqz                  *    -477.43783752   HF TOTAL ENERGY
                             mp2 / aug-cc-pvqz                  *    -479.94071720   MP2 TOTAL ENERGY
  ---------------------------------------------------------------------------------------------------------

   ==> Stages <==

  ---------------------------------------------------------------------------------------------------------
      Stage               Method / Basis                       Wt      Energy [Eh]   Scheme
  ---------------------------------------------------------------------------------------------------------
        scf                   hf / aug-cc-pvqz                  1    -477.43783752   xtpl_highest_1
       corl                  mp2 / aug-cc-pv[tq]z               1    -480.12480602   corl_xtpl_helgaker_2
       corl                   hf / aug-cc-pv[tq]z              -1    -477.45728330   corl_xtpl_helgaker_2
  ---------------------------------------------------------------------------------------------------------

   ==> CBS <==

  ---------------------------------------------------------------------------------------------------------
      Stage               Method / Basis                               Energy [Eh]   Scheme
  ---------------------------------------------------------------------------------------------------------
        scf                   hf / aug-cc-pvqz                       -477.43783752   xtpl_highest_1
       corl                  mp2 / aug-cc-pv[tq]z                      -2.66752272   corl_xtpl_helgaker_2
      total                  CBS                                     -480.10536024   
  ---------------------------------------------------------------------------------------------------------
   => Loading Basis Set <=

    Name: DEF2-SVP
    Role: ORBITAL
    Keyword: BASIS
    atoms 1, 3, 5, 7, 9, 11, 14, 16, 18, 20, 22  entry C          line    90 file /home/liuchw/anaconda3/envs/psi4env/share/psi4/basis/def2-svp.gbs 
    atoms 2, 4, 6, 8, 10, 12, 15, 17, 19, 21, 23 entry H          line    15 file /home/liuchw/anaconda3/envs/psi4env/share/psi4/basis/def2-svp.gbs 
    atoms 13                                     entry N          line   110 file /home/liuchw/anaconda3/envs/psi4env/share/psi4/basis/def2-svp.gbs 


       N-Body: Complex Energy (fragments = (1, 2), basis = (1, 2):  -480.10536024131540)

   ==> N-Body: Counterpoise Corrected (CP) energies <==

   n-Body     Total Energy [Eh]       I.E. [kcal/mol]      Delta [kcal/mol]
        1     -480.172184331271        0.000000000000        0.000000000000
        2     -480.107341820155       40.689290028752       40.689290028752

   => Loading Basis Set <=

    Name: DEF2-SVP
    Role: ORBITAL
    Keyword: BASIS
    atoms 1, 3, 5, 7, 9, 11, 14, 16, 18, 20, 22  entry C          line    90 file /home/liuchw/anaconda3/envs/psi4env/share/psi4/basis/def2-svp.gbs 
    atoms 2, 4, 6, 8, 10, 12, 15, 17, 19, 21, 23 entry H          line    15 file /home/liuchw/anaconda3/envs/psi4env/share/psi4/basis/def2-svp.gbs 
    atoms 13                                     entry N          line   110 file /home/liuchw/anaconda3/envs/psi4env/share/psi4/basis/def2-svp.gbs 


    Psi4 stopped on: Saturday, 11 April 2020 07:42PM
    Psi4 wall time for execution: 0:53:15.68

*** Psi4 exiting successfully. Buy a developer a beer!
