
    -----------------------------------------------------------------------
          Psi4: An Open-Source Ab Initio Electronic Structure Package
                               Psi4 1.4a2.dev224 

                         Git: Rev {master} e453b16 


    R. M. Parrish, L. A. Burns, D. G. A. Smith, A. C. Simmonett,
    A. E. DePrince III, E. G. Hohenstein, U. Bozkaya, A. Yu. Sokolov,
    R. Di Remigio, R. M. Richard, J. F. Gonthier, A. M. James,
    H. R. McAlexander, A. Kumar, M. Saitow, X. Wang, B. P. Pritchard,
    P. Verma, H. F. Schaefer III, K. Patkowski, R. A. King, E. F. Valeev,
    F. A. Evangelista, J. M. Turney, T. D. Crawford, and C. D. Sherrill,
    J. Chem. Theory Comput. 13(7) pp 3185--3197 (2017).
    (doi: 10.1021/acs.jctc.7b00174)


                         Additional Contributions by
    P. Kraus, H. Kruse, M. H. Lechner, M. C. Schieber, R. A. Shaw,
    A. Alenaizan, R. Galvelis, Z. L. Glick, S. Lehtola, and J. P. Misiewicz

    -----------------------------------------------------------------------


    Psi4 started on: Thursday, 23 April 2020 07:13PM

    Process ID: 38789
    Host:       node37.bme.utexas.edu
    PSIDATADIR: /home/liuchw/anaconda3/envs/psi4env/share/psi4
    Memory:     500.0 MiB
    Threads:    8
    
  ==> Input File <==

--------------------------------------------------------------------------
#Generated by lconvert.py for cbs job

memory 20 GB

molecule  {
0 1
  N       1.210760    0.028680    0.329710
  C       0.611940   -1.158450    0.153450
  H       1.251480   -2.029520    0.219290
  C      -0.751310   -1.308650   -0.088830
  H      -1.170420   -2.296870   -0.213380
  C      -1.547870   -0.169940   -0.156470
  H      -2.611010   -0.245960   -0.338760
  C      -0.943620    1.070640    0.019820
  H      -1.518810    1.984500   -0.011640
  C       0.427720    1.116110    0.257350
  H       0.924700    2.068050    0.397550
--
0 1
  N      -0.453650   -0.135330    6.206630
  H      -1.348540   -0.567190    6.022030
  C      -0.453390    1.262490    6.299640
  O      -1.493270    1.890680    6.184790
  C       0.866100    1.821570    6.527200
  H       0.967420    2.888790    6.623070
  C       1.935980    1.002870    6.598720
  H       2.939860    1.371540    6.747150
  N       1.817910   -0.354420    6.486170
  H       2.631350   -0.946610    6.478000
  C       0.617470   -1.001650    6.259790
  O       0.525330   -2.207070    6.126210
units angstrom
no_reorient
symmetry c1
}

set {
scf_type DF
mp2_type DF
e_convergence 7
reference rhf
}

energy('mp2/aug-cc-pv[tq]z', bsse_type='cp')
--------------------------------------------------------------------------

  Memory set to  18.626 GiB by Python driver.

Scratch directory: /scratch/liuchw/


   ===> N-Body Interaction Abacus <===
        BSSE Treatment:                     cp
        Number of 1-body computations:     4
        Number of 2-body computations:     1

   ==> N-Body: Now computing 1-body complexes <==


       N-Body: Computing complex (1/4) with fragments (2,) in the basis of fragments (2,).


Scratch directory: /scratch/liuchw/

  //>>>>>>>>>>>>>>>>>>>>>>>>>>>>>>>>>>>//
  //   CBS Setup: mp2/aug-cc-pv[tq]z   //
  //<<<<<<<<<<<<<<<<<<<<<<<<<<<<<<<<<<<//

    Naive listing of computations required.
             hf / aug-cc-pvqz              for  HF TOTAL ENERGY
            mp2 / aug-cc-pvtz              for  MP2 TOTAL ENERGY
            mp2 / aug-cc-pvqz              for  MP2 TOTAL ENERGY
             hf / aug-cc-pvtz              for  HF TOTAL ENERGY
             hf / aug-cc-pvqz              for  HF TOTAL ENERGY

    Enlightened listing of computations required.
            mp2 / aug-cc-pvtz              for  MP2 TOTAL ENERGY
            mp2 / aug-cc-pvqz              for  MP2 TOTAL ENERGY

    Full listing of computations to be obtained (required and bonus).
             hf / aug-cc-pvtz              for  HF TOTAL ENERGY
            mp2 / aug-cc-pvtz              for  MP2 TOTAL ENERGY
             hf / aug-cc-pvqz              for  HF TOTAL ENERGY
            mp2 / aug-cc-pvqz              for  MP2 TOTAL ENERGY

  //>>>>>>>>>>>>>>>>>>>>>>>>>>>>>>>>>>>>//
  // CBS Computation: MP2 / AUG-CC-PVTZ //
  //<<<<<<<<<<<<<<<<<<<<<<<<<<<<<<<<<<<<//


Scratch directory: /scratch/liuchw/

*** tstart() called on node37.bme.utexas.edu
*** at Thu Apr 23 19:13:12 2020

   => Loading Basis Set <=

    Name: AUG-CC-PVTZ
    Role: ORBITAL
    Keyword: BASIS
    atoms 1, 9        entry N          line   285 file /home/liuchw/anaconda3/envs/psi4env/share/psi4/basis/aug-cc-pvtz.gbs 
    atoms 2, 6, 8, 10 entry H          line    40 file /home/liuchw/anaconda3/envs/psi4env/share/psi4/basis/aug-cc-pvtz.gbs 
    atoms 3, 5, 7, 11 entry C          line   239 file /home/liuchw/anaconda3/envs/psi4env/share/psi4/basis/aug-cc-pvtz.gbs 
    atoms 4, 12       entry O          line   331 file /home/liuchw/anaconda3/envs/psi4env/share/psi4/basis/aug-cc-pvtz.gbs 


         ---------------------------------------------------------
                                   SCF
               by Justin Turney, Rob Parrish, Andy Simmonett
                          and Daniel G. A. Smith
                              RHF Reference
                        8 Threads,  19073 MiB Core
         ---------------------------------------------------------

  ==> Geometry <==

    Molecular point group: c1
    Full point group: C1

    Geometry (in Angstrom), charge = 0, multiplicity = 1:

       Center              X                  Y                   Z               Mass       
    ------------   -----------------  -----------------  -----------------  -----------------
         N           -0.620157572497    -0.252287487249     2.460124912820    14.003074004430
         H           -1.515047572497    -0.684147487249     2.275524912820     1.007825032230
         C           -0.619897572497     1.145532512751     2.553134912820    12.000000000000
         O           -1.659777572497     1.773722512751     2.438284912820    15.994914619570
         C            0.699592427503     1.704612512751     2.780694912820    12.000000000000
         H            0.800912427503     2.771832512751     2.876564912820     1.007825032230
         C            1.769472427503     0.885912512751     2.852214912820    12.000000000000
         H            2.773352427503     1.254582512751     3.000644912820     1.007825032230
         N            1.651402427503    -0.471377487249     2.739664912820    14.003074004430
         H            2.464842427503    -1.063567487249     2.731494912820     1.007825032230
         C            0.450962427503    -1.118607487249     2.513284912820    12.000000000000
         O            0.358822427503    -2.324027487249     2.379704912820    15.994914619570

  Running in c1 symmetry.

  Rotational constants: A =      0.04572  B =      0.01907  C =      0.01661 [cm^-1]
  Rotational constants: A =   1370.52570  B =    571.69098  C =    497.94680 [MHz]
  Nuclear repulsion =  357.235756378416340

  Charge       = 0
  Multiplicity = 1
  Electrons    = 58
  Nalpha       = 29
  Nbeta        = 29

  ==> Algorithm <==

  SCF Algorithm Type is DF.
  DIIS enabled.
  MOM disabled.
  Fractional occupation disabled.
  Guess Type is SAD.
  Energy threshold   = 1.00e-07
  Density threshold  = 1.00e-08
  Integral threshold = 0.00e+00

  ==> Primary Basis <==

  Basis Set: AUG-CC-PVTZ
    Blend: AUG-CC-PVTZ
    Number of shells: 148
    Number of basis function: 460
    Number of Cartesian functions: 540
    Spherical Harmonics?: true
    Max angular momentum: 3

   => Loading Basis Set <=

    Name: (AUG-CC-PVTZ AUX)
    Role: JKFIT
    Keyword: DF_BASIS_SCF
    atoms 1, 9        entry N          line   224 file /home/liuchw/anaconda3/envs/psi4env/share/psi4/basis/aug-cc-pvtz-jkfit.gbs 
    atoms 2, 6, 8, 10 entry H          line    70 file /home/liuchw/anaconda3/envs/psi4env/share/psi4/basis/aug-cc-pvtz-jkfit.gbs 
    atoms 3, 5, 7, 11 entry C          line   162 file /home/liuchw/anaconda3/envs/psi4env/share/psi4/basis/aug-cc-pvtz-jkfit.gbs 
    atoms 4, 12       entry O          line   286 file /home/liuchw/anaconda3/envs/psi4env/share/psi4/basis/aug-cc-pvtz-jkfit.gbs 

  ==> Pre-Iterations <==

   -------------------------------------------------------
    Irrep   Nso     Nmo     Nalpha   Nbeta   Ndocc  Nsocc
   -------------------------------------------------------
     A        460     460       0       0       0       0
   -------------------------------------------------------
    Total     460     460      29      29      29       0
   -------------------------------------------------------

  ==> Integral Setup <==

  DFHelper Memory: AOs need 1.626 GiB; user supplied 13.970 GiB. Using in-core AOs.

  ==> MemDFJK: Density-Fitted J/K Matrices <==

    J tasked:                   Yes
    K tasked:                   Yes
    wK tasked:                   No
    OpenMP threads:               8
    Memory [MiB]:             14305
    Algorithm:                 Core
    Schwarz Cutoff:           1E-12
    Mask sparsity (%):       2.4168
    Fitting Condition:        1E-10

   => Auxiliary Basis Set <=

  Basis Set: (AUG-CC-PVTZ AUX)
    Blend: AUG-CC-PVTZ-JKFIT
    Number of shells: 296
    Number of basis function: 1016
    Number of Cartesian functions: 1268
    Spherical Harmonics?: true
    Max angular momentum: 4

  Minimum eigenvalue in the overlap matrix is 4.2133491474E-06.
  Using Symmetric Orthogonalization.

  SCF Guess: Superposition of Atomic Densities via on-the-fly atomic UHF.

  ==> Iterations <==

                           Total Energy        Delta E     RMS |[F,P]|

   @DF-RHF iter SAD:  -411.98019268887157   -4.11980e+02   0.00000e+00 
   @DF-RHF iter   1:  -412.37879561865429   -3.98603e-01   1.61917e-03 DIIS
   @DF-RHF iter   2:  -412.54189255827191   -1.63097e-01   1.06567e-03 DIIS
   @DF-RHF iter   3:  -412.61920564210391   -7.73131e-02   1.92871e-04 DIIS
   @DF-RHF iter   4:  -412.62338394140085   -4.17830e-03   7.98202e-05 DIIS
   @DF-RHF iter   5:  -412.62426244472346   -8.78503e-04   1.62124e-05 DIIS
   @DF-RHF iter   6:  -412.62436608434717   -1.03640e-04   8.14349e-06 DIIS
   @DF-RHF iter   7:  -412.62438468129164   -1.85969e-05   3.32409e-06 DIIS
   @DF-RHF iter   8:  -412.62438795642584   -3.27513e-06   1.10722e-06 DIIS
   @DF-RHF iter   9:  -412.62438820259496   -2.46169e-07   4.63164e-07 DIIS
   @DF-RHF iter  10:  -412.62438826157023   -5.89753e-08   1.53564e-07 DIIS
   @DF-RHF iter  11:  -412.62438826902559   -7.45536e-09   5.03574e-08 DIIS
   @DF-RHF iter  12:  -412.62438826962483   -5.99243e-10   1.69402e-08 DIIS
   @DF-RHF iter  13:  -412.62438826969696   -7.21343e-11   5.88563e-09 DIIS
  Energy and wave function converged.


  ==> Post-Iterations <==

    Orbital Energies [Eh]
    ---------------------

    Doubly Occupied:                                                      

       1A    -20.547996     2A    -20.542132     3A    -15.645855  
       4A    -15.628293     5A    -11.419699     6A    -11.381438  
       7A    -11.341645     8A    -11.256265     9A     -1.437265  
      10A     -1.398113    11A     -1.315564    12A     -1.247366  
      13A     -1.089623    14A     -0.935471    15A     -0.903082  
      16A     -0.808518    17A     -0.766585    18A     -0.715620  
      19A     -0.678246    20A     -0.670533    21A     -0.653612  
      22A     -0.615369    23A     -0.602523    24A     -0.571484  
      25A     -0.527150    26A     -0.484700    27A     -0.450084  
      28A     -0.437612    29A     -0.369878  

    Virtual:                                                              

      30A      0.014145    31A      0.033666    32A      0.040920  
      33A      0.050831    34A      0.057004    35A      0.077406  
      36A      0.079773    37A      0.087053    38A      0.093252  
      39A      0.099794    40A      0.106161    41A      0.107391  
      42A      0.115444    43A      0.122321    44A      0.124128  
      45A      0.134259    46A      0.138809    47A      0.145732  
      48A      0.156950    49A      0.159428    50A      0.163394  
      51A      0.164211    52A      0.175821    53A      0.200250  
      54A      0.210642    55A      0.214513    56A      0.219810  
      57A      0.228915    58A      0.241433    59A      0.248843  
      60A      0.261699    61A      0.263275    62A      0.268137  
      63A      0.269231    64A      0.271908    65A      0.277134  
      66A      0.285574    67A      0.294213    68A      0.295726  
      69A      0.310424    70A      0.313658    71A      0.328647  
      72A      0.333536    73A      0.344698    74A      0.349776  
      75A      0.350584    76A      0.360741    77A      0.366308  
      78A      0.373492    79A      0.376716    80A      0.392566  
      81A      0.397537    82A      0.414716    83A      0.416733  
      84A      0.422744    85A      0.433560    86A      0.434999  
      87A      0.448446    88A      0.455379    89A      0.459277  
      90A      0.463649    91A      0.469321    92A      0.471895  
      93A      0.482906    94A      0.495199    95A      0.500335  
      96A      0.512405    97A      0.521620    98A      0.522286  
      99A      0.525526   100A      0.539594   101A      0.562808  
     102A      0.573092   103A      0.595643   104A      0.598194  
     105A      0.600430   106A      0.612055   107A      0.620255  
     108A      0.627958   109A      0.637379   110A      0.645473  
     111A      0.661906   112A      0.671818   113A      0.679569  
     114A      0.682932   115A      0.694857   116A      0.710349  
     117A      0.714299   118A      0.733689   119A      0.737759  
     120A      0.747693   121A      0.753561   122A      0.757292  
     123A      0.772079   124A      0.776419   125A      0.803507  
     126A      0.809427   127A      0.826993   128A      0.840530  
     129A      0.846599   130A      0.849691   131A      0.870167  
     132A      0.876923   133A      0.881538   134A      0.892979  
     135A      0.893735   136A      0.909950   137A      0.916695  
     138A      0.919678   139A      0.930931   140A      0.935245  
     141A      0.938814   142A      0.948951   143A      0.954164  
     144A      0.960933   145A      0.973890   146A      0.980004  
     147A      0.988290   148A      1.001876   149A      1.008275  
     150A      1.017428   151A      1.035668   152A      1.050389  
     153A      1.053548   154A      1.073876   155A      1.083257  
     156A      1.089849   157A      1.102126   158A      1.111892  
     159A      1.118478   160A      1.129653   161A      1.132734  
     162A      1.139941   163A      1.147421   164A      1.154501  
     165A      1.168927   166A      1.177270   167A      1.182611  
     168A      1.184757   169A      1.191746   170A      1.210418  
     171A      1.217505   172A      1.228844   173A      1.232274  
     174A      1.242964   175A      1.262264   176A      1.278264  
     177A      1.290170   178A      1.301041   179A      1.324096  
     180A      1.332261   181A      1.346804   182A      1.362999  
     183A      1.365784   184A      1.375203   185A      1.393291  
     186A      1.406038   187A      1.412135   188A      1.418696  
     189A      1.434449   190A      1.435965   191A      1.458380  
     192A      1.467609   193A      1.480740   194A      1.487744  
     195A      1.495344   196A      1.512510   197A      1.516076  
     198A      1.526367   199A      1.549240   200A      1.557013  
     201A      1.576994   202A      1.579107   203A      1.595945  
     204A      1.620008   205A      1.636861   206A      1.643104  
     207A      1.652727   208A      1.669458   209A      1.688783  
     210A      1.701201   211A      1.709606   212A      1.735310  
     213A      1.739436   214A      1.761329   215A      1.798357  
     216A      1.824463   217A      1.838375   218A      1.860189  
     219A      1.865285   220A      1.877251   221A      1.881292  
     222A      1.918207   223A      1.922575   224A      1.930428  
     225A      1.933399   226A      1.984983   227A      2.005616  
     228A      2.013935   229A      2.024722   230A      2.093664  
     231A      2.106876   232A      2.118131   233A      2.119900  
     234A      2.139898   235A      2.145733   236A      2.153046  
     237A      2.160635   238A      2.188856   239A      2.202273  
     240A      2.209982   241A      2.228276   242A      2.261895  
     243A      2.272772   244A      2.285220   245A      2.302292  
     246A      2.325198   247A      2.351018   248A      2.363080  
     249A      2.400934   250A      2.405511   251A      2.408505  
     252A      2.432938   253A      2.450104   254A      2.471834  
     255A      2.481994   256A      2.488285   257A      2.504196  
     258A      2.510803   259A      2.532566   260A      2.538664  
     261A      2.563629   262A      2.574516   263A      2.577245  
     264A      2.588943   265A      2.607009   266A      2.608914  
     267A      2.639232   268A      2.667185   269A      2.686345  
     270A      2.698584   271A      2.704980   272A      2.760299  
     273A      2.764283   274A      2.768581   275A      2.779593  
     276A      2.820421   277A      2.827030   278A      2.852123  
     279A      2.872116   280A      2.912297   281A      2.931496  
     282A      2.964879   283A      2.974568   284A      2.997785  
     285A      3.010562   286A      3.014760   287A      3.046121  
     288A      3.117798   289A      3.125709   290A      3.173869  
     291A      3.190290   292A      3.202293   293A      3.240760  
     294A      3.253210   295A      3.260929   296A      3.286990  
     297A      3.293369   298A      3.338256   299A      3.364776  
     300A      3.422363   301A      3.426100   302A      3.439717  
     303A      3.466643   304A      3.478579   305A      3.507845  
     306A      3.527931   307A      3.539706   308A      3.580714  
     309A      3.603935   310A      3.616233   311A      3.643232  
     312A      3.645660   313A      3.679157   314A      3.694058  
     315A      3.719070   316A      3.746953   317A      3.755187  
     318A      3.764821   319A      3.775585   320A      3.810098  
     321A      3.828585   322A      3.848637   323A      3.886613  
     324A      3.891837   325A      3.921332   326A      3.947460  
     327A      3.948987   328A      3.985849   329A      3.997548  
     330A      4.053499   331A      4.065883   332A      4.079868  
     333A      4.115185   334A      4.124009   335A      4.148195  
     336A      4.169888   337A      4.195291   338A      4.203652  
     339A      4.229787   340A      4.244237   341A      4.256426  
     342A      4.276707   343A      4.286617   344A      4.310623  
     345A      4.335357   346A      4.338698   347A      4.365758  
     348A      4.378074   349A      4.418778   350A      4.429929  
     351A      4.435872   352A      4.442253   353A      4.464476  
     354A      4.504344   355A      4.562126   356A      4.605557  
     357A      4.616545   358A      4.640437   359A      4.666970  
     360A      4.684603   361A      4.698185   362A      4.741198  
     363A      4.758534   364A      4.765281   365A      4.816138  
     366A      4.853730   367A      4.861402   368A      4.890173  
     369A      4.908489   370A      4.930488   371A      4.953866  
     372A      5.009672   373A      5.026678   374A      5.041421  
     375A      5.075496   376A      5.090951   377A      5.105658  
     378A      5.115901   379A      5.123094   380A      5.149425  
     381A      5.203613   382A      5.241048   383A      5.262251  
     384A      5.317846   385A      5.360574   386A      5.408716  
     387A      5.419553   388A      5.472603   389A      5.479165  
     390A      5.504987   391A      5.518698   392A      5.527091  
     393A      5.552000   394A      5.598913   395A      5.617915  
     396A      5.659750   397A      5.693289   398A      5.761055  
     399A      5.776066   400A      5.787365   401A      5.803454  
     402A      5.815780   403A      5.852248   404A      5.907363  
     405A      5.983266   406A      6.002698   407A      6.027759  
     408A      6.036977   409A      6.087177   410A      6.100059  
     411A      6.155790   412A      6.204043   413A      6.257869  
     414A      6.267124   415A      6.464650   416A      6.550335  
     417A      6.580818   418A      6.627621   419A      6.655862  
     420A      6.666906   421A      6.706728   422A      6.735643  
     423A      6.742151   424A      6.807320   425A      6.835313  
     426A      6.850247   427A      6.859924   428A      6.936137  
     429A      6.953559   430A      6.991163   431A      7.003312  
     432A      7.108907   433A      7.145971   434A      7.181487  
     435A      7.257902   436A      7.346595   437A      7.369350  
     438A      7.372993   439A      7.388979   440A      7.397698  
     441A      7.461455   442A      7.637054   443A      7.648902  
     444A      7.681926   445A      7.712044   446A      7.807369  
     447A      7.858536   448A      7.902630   449A      7.937861  
     450A      7.979884   451A      8.026315   452A      8.112013  
     453A     15.995882   454A     16.061207   455A     16.368867  
     456A     16.953019   457A     18.279407   458A     19.413440  
     459A     19.725855   460A     20.487992  

    Final Occupation by Irrep:
              A 
    DOCC [    29 ]

  @DF-RHF Final Energy:  -412.62438826969696

   => Energetics <=

    Nuclear Repulsion Energy =            357.2357563784163403
    One-Electron Energy =               -1270.8368460470135233
    Two-Electron Energy =                 500.9767013989002180
    Total Energy =                       -412.6243882696969649

Computation Completed


Properties will be evaluated at   0.000000,   0.000000,   0.000000 [a0]

Properties computed using the SCF density matrix

  Nuclear Dipole Moment: [e a0]
     X:    28.6027      Y:    16.0916      Z:   283.5017

  Electronic Dipole Moment: [e a0]
     X:   -26.6641      Y:   -15.7393      Z:  -283.2366

  Dipole Moment: [e a0]
     X:     1.9386      Y:     0.3523      Z:     0.2651     Total:     1.9881

  Dipole Moment: [D]
     X:     4.9274      Y:     0.8954      Z:     0.6738     Total:     5.0532


*** tstop() called on node37.bme.utexas.edu at Thu Apr 23 19:13:27 2020
Module time:
	user time   =      87.11 seconds =       1.45 minutes
	system time =       4.16 seconds =       0.07 minutes
	total time  =         15 seconds =       0.25 minutes
Total time:
	user time   =      87.11 seconds =       1.45 minutes
	system time =       4.16 seconds =       0.07 minutes
	total time  =         15 seconds =       0.25 minutes

*** tstart() called on node37.bme.utexas.edu
*** at Thu Apr 23 19:13:27 2020


  //>>>>>>>>>>>>>>>>>>>>>>>>>>>>>>>>>>>//
  //               DFMP2               //
  //<<<<<<<<<<<<<<<<<<<<<<<<<<<<<<<<<<<//

   => Loading Basis Set <=

    Name: (AUG-CC-PVTZ AUX)
    Role: RIFIT
    Keyword: DF_BASIS_MP2
    atoms 1, 9        entry N          line   206 file /home/liuchw/anaconda3/envs/psi4env/share/psi4/basis/aug-cc-pvtz-ri.gbs 
    atoms 2, 6, 8, 10 entry H          line    30 file /home/liuchw/anaconda3/envs/psi4env/share/psi4/basis/aug-cc-pvtz-ri.gbs 
    atoms 3, 5, 7, 11 entry C          line   148 file /home/liuchw/anaconda3/envs/psi4env/share/psi4/basis/aug-cc-pvtz-ri.gbs 
    atoms 4, 12       entry O          line   264 file /home/liuchw/anaconda3/envs/psi4env/share/psi4/basis/aug-cc-pvtz-ri.gbs 

	 --------------------------------------------------------
	                          DF-MP2                         
	      2nd-Order Density-Fitted Moller-Plesset Theory     
	              RMP2 Wavefunction,   8 Threads             
	                                                         
	        Rob Parrish, Justin Turney, Andy Simmonett,      
	           Ed Hohenstein, and C. David Sherrill          
	 --------------------------------------------------------

   => Auxiliary Basis Set <=

  Basis Set: (AUG-CC-PVTZ AUX)
    Blend: AUG-CC-PVTZ-RI
    Number of shells: 280
    Number of basis function: 1032
    Number of Cartesian functions: 1308
    Spherical Harmonics?: true
    Max angular momentum: 4

	 --------------------------------------------------------
	                 NBF =   460, NAUX =  1032
	 --------------------------------------------------------
	   CLASS    FOCC     OCC    AOCC    AVIR     VIR    FVIR
	   PAIRS       0      29      29     431     431       0
	 --------------------------------------------------------

	-----------------------------------------------------------
	 ==================> DF-MP2 Energies <==================== 
	-----------------------------------------------------------
	 Reference Energy          =    -412.6243882696969649 [Eh]
	 Singles Energy            =      -0.0000000000000000 [Eh]
	 Same-Spin Energy          =      -0.4141916825311576 [Eh]
	 Opposite-Spin Energy      =      -1.2264695969283523 [Eh]
	 Correlation Energy        =      -1.6406612794595099 [Eh]
	 Total Energy              =    -414.2650495491564584 [Eh]
	-----------------------------------------------------------
	 ================> DF-SCS-MP2 Energies <================== 
	-----------------------------------------------------------
	 SCS Same-Spin Scale       =       0.3333333333333333 [-]
	 SCS Opposite-Spin Scale   =       1.2000000000000000 [-]
	 SCS Same-Spin Energy      =      -0.1380638941770525 [Eh]
	 SCS Opposite-Spin Energy  =      -1.4717635163140228 [Eh]
	 SCS Correlation Energy    =      -1.6098274104910753 [Eh]
	 SCS Total Energy          =    -414.2342156801880151 [Eh]
	-----------------------------------------------------------


*** tstop() called on node37.bme.utexas.edu at Thu Apr 23 19:13:33 2020
Module time:
	user time   =      37.85 seconds =       0.63 minutes
	system time =       1.47 seconds =       0.02 minutes
	total time  =          6 seconds =       0.10 minutes
Total time:
	user time   =     124.96 seconds =       2.08 minutes
	system time =       5.63 seconds =       0.09 minutes
	total time  =         21 seconds =       0.35 minutes

  //>>>>>>>>>>>>>>>>>>>>>>>>>>>>>>>>>>>>//
  // CBS Computation: MP2 / AUG-CC-PVQZ //
  //<<<<<<<<<<<<<<<<<<<<<<<<<<<<<<<<<<<<//


Scratch directory: /scratch/liuchw/

*** tstart() called on node37.bme.utexas.edu
*** at Thu Apr 23 19:13:33 2020

   => Loading Basis Set <=

    Name: AUG-CC-PVQZ
    Role: ORBITAL
    Keyword: BASIS
    atoms 1, 9        entry N          line   363 file /home/liuchw/anaconda3/envs/psi4env/share/psi4/basis/aug-cc-pvqz.gbs 
    atoms 2, 6, 8, 10 entry H          line    40 file /home/liuchw/anaconda3/envs/psi4env/share/psi4/basis/aug-cc-pvqz.gbs 
    atoms 3, 5, 7, 11 entry C          line   303 file /home/liuchw/anaconda3/envs/psi4env/share/psi4/basis/aug-cc-pvqz.gbs 
    atoms 4, 12       entry O          line   423 file /home/liuchw/anaconda3/envs/psi4env/share/psi4/basis/aug-cc-pvqz.gbs 


         ---------------------------------------------------------
                                   SCF
               by Justin Turney, Rob Parrish, Andy Simmonett
                          and Daniel G. A. Smith
                              RHF Reference
                        8 Threads,  19073 MiB Core
         ---------------------------------------------------------

  ==> Geometry <==

    Molecular point group: c1
    Full point group: C1

    Geometry (in Angstrom), charge = 0, multiplicity = 1:

       Center              X                  Y                   Z               Mass       
    ------------   -----------------  -----------------  -----------------  -----------------
         N           -0.620157572497    -0.252287487249     2.460124912820    14.003074004430
         H           -1.515047572497    -0.684147487249     2.275524912820     1.007825032230
         C           -0.619897572497     1.145532512751     2.553134912820    12.000000000000
         O           -1.659777572497     1.773722512751     2.438284912820    15.994914619570
         C            0.699592427503     1.704612512751     2.780694912820    12.000000000000
         H            0.800912427503     2.771832512751     2.876564912820     1.007825032230
         C            1.769472427503     0.885912512751     2.852214912820    12.000000000000
         H            2.773352427503     1.254582512751     3.000644912820     1.007825032230
         N            1.651402427503    -0.471377487249     2.739664912820    14.003074004430
         H            2.464842427503    -1.063567487249     2.731494912820     1.007825032230
         C            0.450962427503    -1.118607487249     2.513284912820    12.000000000000
         O            0.358822427503    -2.324027487249     2.379704912820    15.994914619570

  Running in c1 symmetry.

  Rotational constants: A =      0.04572  B =      0.01907  C =      0.01661 [cm^-1]
  Rotational constants: A =   1370.52570  B =    571.69098  C =    497.94680 [MHz]
  Nuclear repulsion =  357.235756378416340

  Charge       = 0
  Multiplicity = 1
  Electrons    = 58
  Nalpha       = 29
  Nbeta        = 29

  ==> Algorithm <==

  SCF Algorithm Type is DF.
  DIIS enabled.
  MOM disabled.
  Fractional occupation disabled.
  Guess Type is SAD.
  Energy threshold   = 1.00e-07
  Density threshold  = 1.00e-08
  Integral threshold = 0.00e+00

  ==> Primary Basis <==

  Basis Set: AUG-CC-PVQZ
    Blend: AUG-CC-PVQZ
    Number of shells: 216
    Number of basis function: 824
    Number of Cartesian functions: 1060
    Spherical Harmonics?: true
    Max angular momentum: 4

   => Loading Basis Set <=

    Name: (AUG-CC-PVQZ AUX)
    Role: JKFIT
    Keyword: DF_BASIS_SCF
    atoms 1, 9        entry N          line   248 file /home/liuchw/anaconda3/envs/psi4env/share/psi4/basis/aug-cc-pvqz-jkfit.gbs 
    atoms 2, 6, 8, 10 entry H          line    70 file /home/liuchw/anaconda3/envs/psi4env/share/psi4/basis/aug-cc-pvqz-jkfit.gbs 
    atoms 3, 5, 7, 11 entry C          line   178 file /home/liuchw/anaconda3/envs/psi4env/share/psi4/basis/aug-cc-pvqz-jkfit.gbs 
    atoms 4, 12       entry O          line   318 file /home/liuchw/anaconda3/envs/psi4env/share/psi4/basis/aug-cc-pvqz-jkfit.gbs 

  ==> Pre-Iterations <==

   -------------------------------------------------------
    Irrep   Nso     Nmo     Nalpha   Nbeta   Ndocc  Nsocc
   -------------------------------------------------------
     A        824     824       0       0       0       0
   -------------------------------------------------------
    Total     824     824      29      29      29       0
   -------------------------------------------------------

  ==> Integral Setup <==

  DFHelper Memory: AOs need 7.130 GiB; user supplied 13.970 GiB. Using in-core AOs.

  ==> MemDFJK: Density-Fitted J/K Matrices <==

    J tasked:                   Yes
    K tasked:                   Yes
    wK tasked:                   No
    OpenMP threads:               8
    Memory [MiB]:             14305
    Algorithm:                 Core
    Schwarz Cutoff:           1E-12
    Mask sparsity (%):       5.1849
    Fitting Condition:        1E-10

   => Auxiliary Basis Set <=

  Basis Set: (AUG-CC-PVQZ AUX)
    Blend: AUG-CC-PVQZ-JKFIT
    Number of shells: 344
    Number of basis function: 1440
    Number of Cartesian functions: 1988
    Spherical Harmonics?: true
    Max angular momentum: 5

  Minimum eigenvalue in the overlap matrix is 9.9432273840E-07.
  Using Symmetric Orthogonalization.

  SCF Guess: Superposition of Atomic Densities via on-the-fly atomic UHF.

  ==> Iterations <==

                           Total Energy        Delta E     RMS |[F,P]|

   @DF-RHF iter SAD:  -412.00349378926308   -4.12003e+02   0.00000e+00 
   @DF-RHF iter   1:  -412.40372730739085   -4.00234e-01   9.06583e-04 DIIS
   @DF-RHF iter   2:  -412.56713806495679   -1.63411e-01   5.96916e-04 DIIS
   @DF-RHF iter   3:  -412.64471253140749   -7.75745e-02   1.08214e-04 DIIS
   @DF-RHF iter   4:  -412.64890733365843   -4.19480e-03   4.49253e-05 DIIS
   @DF-RHF iter   5:  -412.64979091588623   -8.83582e-04   9.13331e-06 DIIS
   @DF-RHF iter   6:  -412.64989540865884   -1.04493e-04   4.56947e-06 DIIS
   @DF-RHF iter   7:  -412.64991433244472   -1.89238e-05   1.89077e-06 DIIS
   @DF-RHF iter   8:  -412.64991771135215   -3.37891e-06   6.26811e-07 DIIS
   @DF-RHF iter   9:  -412.64991796877143   -2.57419e-07   2.65912e-07 DIIS
   @DF-RHF iter  10:  -412.64991802896441   -6.01930e-08   8.83519e-08 DIIS
   @DF-RHF iter  11:  -412.64991803683620   -7.87179e-09   2.85651e-08 DIIS
   @DF-RHF iter  12:  -412.64991803746102   -6.24823e-10   9.79271e-09 DIIS
  Energy and wave function converged.


  ==> Post-Iterations <==

    Orbital Energies [Eh]
    ---------------------

    Doubly Occupied:                                                      

       1A    -20.545258     2A    -20.539414     3A    -15.643617  
       4A    -15.626065     5A    -11.418536     6A    -11.380257  
       7A    -11.340567     8A    -11.255074     9A     -1.436475  
      10A     -1.397227    11A     -1.314898    12A     -1.246777  
      13A     -1.089236    14A     -0.935249    15A     -0.902805  
      16A     -0.808463    17A     -0.766531    18A     -0.715586  
      19A     -0.678189    20A     -0.670579    21A     -0.653606  
      22A     -0.615385    23A     -0.602579    24A     -0.571532  
      25A     -0.527247    26A     -0.484767    27A     -0.450171  
      28A     -0.437742    29A     -0.370019  

    Virtual:                                                              

      30A      0.011745    31A      0.029959    32A      0.036590  
      33A      0.045960    34A      0.048064    35A      0.068377  
      36A      0.072994    37A      0.076448    38A      0.079334  
      39A      0.085539    40A      0.091295    41A      0.092539  
      42A      0.099768    43A      0.106070    44A      0.109648  
      45A      0.116475    46A      0.120511    47A      0.127254  
      48A      0.135854    49A      0.136571    50A      0.141344  
      51A      0.153907    52A      0.155867    53A      0.168154  
      54A      0.179521    55A      0.183160    56A      0.187640  
      57A      0.195615    58A      0.206462    59A      0.208649  
      60A      0.219820    61A      0.222192    62A      0.227108  
      63A      0.227777    64A      0.228485    65A      0.236413  
      66A      0.242320    67A      0.251568    68A      0.257646  
      69A      0.263930    70A      0.268619    71A      0.273294  
      72A      0.280562    73A      0.282040    74A      0.292023  
      75A      0.295077    76A      0.297688    77A      0.308758  
      78A      0.318629    79A      0.321014    80A      0.330092  
      81A      0.332936    82A      0.336131    83A      0.342999  
      84A      0.353921    85A      0.355727    86A      0.359630  
      87A      0.362654    88A      0.368725    89A      0.374533  
      90A      0.390091    91A      0.392362    92A      0.406894  
      93A      0.413745    94A      0.417441    95A      0.422990  
      96A      0.428943    97A      0.436722    98A      0.440924  
      99A      0.453038   100A      0.458384   101A      0.461105  
     102A      0.465419   103A      0.471366   104A      0.475732  
     105A      0.481783   106A      0.487981   107A      0.498080  
     108A      0.504327   109A      0.507637   110A      0.520739  
     111A      0.533046   112A      0.537282   113A      0.540534  
     114A      0.543503   115A      0.556805   116A      0.563353  
     117A      0.567207   118A      0.576645   119A      0.579956  
     120A      0.596303   121A      0.596726   122A      0.605715  
     123A      0.606660   124A      0.625461   125A      0.629033  
     126A      0.639089   127A      0.645971   128A      0.654341  
     129A      0.660279   130A      0.666290   131A      0.675530  
     132A      0.679569   133A      0.683551   134A      0.698835  
     135A      0.702952   136A      0.708949   137A      0.712694  
     138A      0.714734   139A      0.720221   140A      0.721485  
     141A      0.722829   142A      0.732619   143A      0.744647  
     144A      0.750279   145A      0.756434   146A      0.762068  
     147A      0.770839   148A      0.778704   149A      0.786214  
     150A      0.792361   151A      0.793776   152A      0.808573  
     153A      0.809280   154A      0.834839   155A      0.842497  
     156A      0.848859   157A      0.857698   158A      0.865666  
     159A      0.867133   160A      0.873308   161A      0.878654  
     162A      0.885635   163A      0.886641   164A      0.889885  
     165A      0.894370   166A      0.910741   167A      0.930011  
     168A      0.932756   169A      0.936256   170A      0.943791  
     171A      0.944939   172A      0.950724   173A      0.957759  
     174A      0.970448   175A      0.975152   176A      0.977508  
     177A      0.984532   178A      0.992084   179A      1.004495  
     180A      1.013679   181A      1.015743   182A      1.026755  
     183A      1.035673   184A      1.048176   185A      1.063511  
     186A      1.076674   187A      1.081565   188A      1.086696  
     189A      1.092245   190A      1.102000   191A      1.107924  
     192A      1.118903   193A      1.130216   194A      1.144062  
     195A      1.149207   196A      1.156493   197A      1.161864  
     198A      1.173505   199A      1.180255   200A      1.192297  
     201A      1.203605   202A      1.215503   203A      1.219253  
     204A      1.225991   205A      1.234244   206A      1.239041  
     207A      1.255649   208A      1.260275   209A      1.273187  
     210A      1.290057   211A      1.301322   212A      1.302889  
     213A      1.322550   214A      1.330017   215A      1.352375  
     216A      1.365002   217A      1.377696   218A      1.388918  
     219A      1.402086   220A      1.409870   221A      1.418687  
     222A      1.429780   223A      1.434597   224A      1.450384  
     225A      1.472061   226A      1.490951   227A      1.495397  
     228A      1.505176   229A      1.515673   230A      1.519102  
     231A      1.531519   232A      1.541229   233A      1.550132  
     234A      1.561528   235A      1.566554   236A      1.569694  
     237A      1.583667   238A      1.591357   239A      1.602544  
     240A      1.618698   241A      1.635819   242A      1.640744  
     243A      1.650877   244A      1.664788   245A      1.669258  
     246A      1.688541   247A      1.692864   248A      1.699477  
     249A      1.702819   250A      1.713148   251A      1.726296  
     252A      1.734754   253A      1.737146   254A      1.748522  
     255A      1.763042   256A      1.766810   257A      1.774853  
     258A      1.778283   259A      1.783201   260A      1.798102  
     261A      1.810053   262A      1.816810   263A      1.831621  
     264A      1.836002   265A      1.841929   266A      1.850049  
     267A      1.862086   268A      1.874085   269A      1.888268  
     270A      1.892643   271A      1.898795   272A      1.910759  
     273A      1.914522   274A      1.929432   275A      1.930930  
     276A      1.944363   277A      1.947472   278A      1.953937  
     279A      1.961437   280A      1.967946   281A      1.976296  
     282A      1.987176   283A      1.989493   284A      2.001615  
     285A      2.015443   286A      2.018736   287A      2.027349  
     288A      2.038208   289A      2.043515   290A      2.050453  
     291A      2.058606   292A      2.069244   293A      2.073615  
     294A      2.080385   295A      2.085986   296A      2.104419  
     297A      2.119322   298A      2.129653   299A      2.130618  
     300A      2.136284   301A      2.142789   302A      2.147948  
     303A      2.157519   304A      2.166636   305A      2.189022  
     306A      2.195654   307A      2.203401   308A      2.207482  
     309A      2.221917   310A      2.230572   311A      2.238389  
     312A      2.244600   313A      2.259384   314A      2.261131  
     315A      2.273608   316A      2.281155   317A      2.297861  
     318A      2.303853   319A      2.332403   320A      2.334910  
     321A      2.341111   322A      2.361306   323A      2.368732  
     324A      2.379342   325A      2.390927   326A      2.397392  
     327A      2.398996   328A      2.408981   329A      2.421131  
     330A      2.430129   331A      2.448260   332A      2.467490  
     333A      2.472793   334A      2.478206   335A      2.484193  
     336A      2.508982   337A      2.532602   338A      2.535655  
     339A      2.540305   340A      2.548643   341A      2.565743  
     342A      2.569250   343A      2.589620   344A      2.618980  
     345A      2.646564   346A      2.650269   347A      2.687392  
     348A      2.694628   349A      2.701959   350A      2.717773  
     351A      2.725977   352A      2.735325   353A      2.739191  
     354A      2.761971   355A      2.771258   356A      2.773834  
     357A      2.781949   358A      2.791057   359A      2.798770  
     360A      2.821637   361A      2.835912   362A      2.849983  
     363A      2.870461   364A      2.877476   365A      2.882343  
     366A      2.916248   367A      2.919763   368A      2.931418  
     369A      2.942394   370A      2.948283   371A      2.958334  
     372A      2.966355   373A      2.973572   374A      2.984868  
     375A      3.007345   376A      3.014292   377A      3.049035  
     378A      3.063613   379A      3.067945   380A      3.081340  
     381A      3.102543   382A      3.106428   383A      3.127961  
     384A      3.134284   385A      3.147921   386A      3.156478  
     387A      3.171119   388A      3.188827   389A      3.198599  
     390A      3.223901   391A      3.225428   392A      3.249311  
     393A      3.258331   394A      3.271254   395A      3.276188  
     396A      3.279090   397A      3.300190   398A      3.315049  
     399A      3.325760   400A      3.346896   401A      3.376130  
     402A      3.383210   403A      3.402035   404A      3.411472  
     405A      3.423177   406A      3.442134   407A      3.448088  
     408A      3.456357   409A      3.464735   410A      3.502359  
     411A      3.508879   412A      3.523334   413A      3.551692  
     414A      3.561364   415A      3.564441   416A      3.590013  
     417A      3.600882   418A      3.606706   419A      3.612628  
     420A      3.645453   421A      3.679193   422A      3.698291  
     423A      3.717527   424A      3.734998   425A      3.748315  
     426A      3.755788   427A      3.780237   428A      3.789524  
     429A      3.808283   430A      3.828122   431A      3.850944  
     432A      3.858660   433A      3.881427   434A      3.887149  
     435A      3.891094   436A      3.912741   437A      3.930298  
     438A      3.948518   439A      3.964887   440A      3.974992  
     441A      3.985299   442A      3.990332   443A      4.000846  
     444A      4.010038   445A      4.014881   446A      4.037427  
     447A      4.053220   448A      4.065101   449A      4.071474  
     450A      4.094592   451A      4.115691   452A      4.126855  
     453A      4.131704   454A      4.159361   455A      4.196122  
     456A      4.199772   457A      4.230943   458A      4.257930  
     459A      4.269512   460A      4.276323   461A      4.284800  
     462A      4.293910   463A      4.312423   464A      4.327677  
     465A      4.341777   466A      4.345454   467A      4.362114  
     468A      4.368229   469A      4.380906   470A      4.397267  
     471A      4.403231   472A      4.406443   473A      4.415766  
     474A      4.428957   475A      4.451351   476A      4.467880  
     477A      4.469643   478A      4.470443   479A      4.490234  
     480A      4.511668   481A      4.518111   482A      4.522769  
     483A      4.533765   484A      4.537794   485A      4.557594  
     486A      4.566989   487A      4.580692   488A      4.607110  
     489A      4.638169   490A      4.665858   491A      4.684971  
     492A      4.688263   493A      4.690922   494A      4.700995  
     495A      4.724530   496A      4.754317   497A      4.761811  
     498A      4.763325   499A      4.798302   500A      4.816919  
     501A      4.829872   502A      4.843169   503A      4.857775  
     504A      4.875854   505A      4.898252   506A      4.928103  
     507A      4.932001   508A      4.944928   509A      4.953859  
     510A      4.998379   511A      5.003784   512A      5.017392  
     513A      5.029847   514A      5.068039   515A      5.070647  
     516A      5.097266   517A      5.104739   518A      5.130509  
     519A      5.156890   520A      5.200535   521A      5.221341  
     522A      5.230933   523A      5.286943   524A      5.297873  
     525A      5.329867   526A      5.334045   527A      5.356941  
     528A      5.360564   529A      5.393333   530A      5.428750  
     531A      5.451577   532A      5.500881   533A      5.540747  
     534A      5.553773   535A      5.572307   536A      5.620423  
     537A      5.631627   538A      5.651503   539A      5.670062  
     540A      5.683044   541A      5.734920   542A      5.759672  
     543A      5.776614   544A      5.811784   545A      5.870985  
     546A      5.905043   547A      5.919644   548A      5.936195  
     549A      5.962400   550A      5.978934   551A      5.999107  
     552A      6.032198   553A      6.045196   554A      6.068255  
     555A      6.114794   556A      6.129581   557A      6.147863  
     558A      6.189028   559A      6.208129   560A      6.243542  
     561A      6.277896   562A      6.291300   563A      6.350532  
     564A      6.377078   565A      6.398445   566A      6.427543  
     567A      6.452585   568A      6.467233   569A      6.501485  
     570A      6.513178   571A      6.521644   572A      6.528241  
     573A      6.556178   574A      6.568544   575A      6.588823  
     576A      6.602244   577A      6.634621   578A      6.653030  
     579A      6.658269   580A      6.667781   581A      6.690687  
     582A      6.711993   583A      6.726113   584A      6.748256  
     585A      6.779306   586A      6.825329   587A      6.850766  
     588A      6.875730   589A      6.882665   590A      6.912315  
     591A      6.921119   592A      6.954326   593A      6.962489  
     594A      6.966417   595A      6.979189   596A      7.003910  
     597A      7.013370   598A      7.041273   599A      7.059023  
     600A      7.083830   601A      7.134145   602A      7.136616  
     603A      7.149103   604A      7.197011   605A      7.227857  
     606A      7.235333   607A      7.252118   608A      7.255924  
     609A      7.289104   610A      7.308766   611A      7.331846  
     612A      7.358194   613A      7.365956   614A      7.397329  
     615A      7.401537   616A      7.454845   617A      7.468263  
     618A      7.473034   619A      7.509391   620A      7.526555  
     621A      7.561067   622A      7.579622   623A      7.616781  
     624A      7.648350   625A      7.661866   626A      7.695418  
     627A      7.724081   628A      7.735509   629A      7.756914  
     630A      7.772810   631A      7.798869   632A      7.832225  
     633A      7.850623   634A      7.859119   635A      7.901892  
     636A      7.904393   637A      7.943590   638A      7.952212  
     639A      8.001376   640A      8.007678   641A      8.029755  
     642A      8.055881   643A      8.103519   644A      8.132374  
     645A      8.175457   646A      8.222835   647A      8.227688  
     648A      8.275990   649A      8.327915   650A      8.351328  
     651A      8.383663   652A      8.439412   653A      8.449138  
     654A      8.460608   655A      8.503851   656A      8.515123  
     657A      8.562428   658A      8.565742   659A      8.577084  
     660A      8.581334   661A      8.594907   662A      8.634416  
     663A      8.647783   664A      8.658561   665A      8.703049  
     666A      8.722058   667A      8.734929   668A      8.785489  
     669A      8.809263   670A      8.824307   671A      8.843929  
     672A      8.862670   673A      8.878315   674A      8.915811  
     675A      8.943528   676A      8.962397   677A      9.000744  
     678A      9.044649   679A      9.065678   680A      9.086055  
     681A      9.123664   682A      9.127013   683A      9.138456  
     684A      9.174495   685A      9.179521   686A      9.245139  
     687A      9.273968   688A      9.283729   689A      9.298728  
     690A      9.311116   691A      9.345724   692A      9.380204  
     693A      9.401851   694A      9.410801   695A      9.479594  
     696A      9.498357   697A      9.510532   698A      9.547799  
     699A      9.580389   700A      9.591763   701A      9.642848  
     702A      9.671175   703A      9.683565   704A      9.686316  
     705A      9.778897   706A      9.802990   707A      9.841212  
     708A      9.852589   709A      9.917520   710A      9.938922  
     711A      9.943653   712A      9.966744   713A      9.998457  
     714A     10.025963   715A     10.032435   716A     10.058265  
     717A     10.070565   718A     10.136884   719A     10.172183  
     720A     10.180907   721A     10.220792   722A     10.254221  
     723A     10.263128   724A     10.279708   725A     10.285704  
     726A     10.351190   727A     10.433309   728A     10.511996  
     729A     10.578168   730A     10.631478   731A     10.649443  
     732A     10.667049   733A     10.686529   734A     10.703800  
     735A     10.728068   736A     10.771571   737A     10.800925  
     738A     10.818538   739A     10.847708   740A     10.867318  
     741A     10.880271   742A     10.888414   743A     10.900607  
     744A     11.050366   745A     11.122245   746A     11.139836  
     747A     11.162093   748A     11.178083   749A     11.189063  
     750A     11.216341   751A     11.248243   752A     11.262061  
     753A     11.333627   754A     11.358562   755A     11.362188  
     756A     11.405415   757A     11.423343   758A     11.450460  
     759A     11.456358   760A     11.488430   761A     11.512447  
     762A     11.552075   763A     11.555306   764A     11.599460  
     765A     11.606524   766A     11.647747   767A     11.725092  
     768A     11.793265   769A     11.876852   770A     11.905757  
     771A     11.941797   772A     11.994688   773A     12.000062  
     774A     12.116504   775A     12.163259   776A     12.168448  
     777A     12.197092   778A     12.214173   779A     12.240281  
     780A     12.273253   781A     12.303880   782A     12.349843  
     783A     12.459073   784A     12.520212   785A     12.531467  
     786A     12.569823   787A     12.612091   788A     12.704556  
     789A     12.806134   790A     12.814171   791A     12.857690  
     792A     12.881072   793A     12.935135   794A     12.972162  
     795A     13.233998   796A     13.241057   797A     13.310056  
     798A     13.312724   799A     13.356648   800A     13.415834  
     801A     13.454880   802A     13.486570   803A     13.509702  
     804A     13.578093   805A     13.609752   806A     13.939214  
     807A     14.058235   808A     14.113652   809A     14.276912  
     810A     14.328577   811A     14.785305   812A     14.923789  
     813A     15.110967   814A     15.173648   815A     15.266164  
     816A     15.328570   817A     26.414453   818A     26.639011  
     819A     26.795560   820A     27.170733   821A     35.124472  
     822A     35.301863   823A     44.366270   824A     44.515460  

    Final Occupation by Irrep:
              A 
    DOCC [    29 ]

  @DF-RHF Final Energy:  -412.64991803746102

   => Energetics <=

    Nuclear Repulsion Energy =            357.2357563784163403
    One-Electron Energy =               -1270.9236296642457091
    Two-Electron Energy =                 501.0379552483683483
    Total Energy =                       -412.6499180374610205

Computation Completed


Properties will be evaluated at   0.000000,   0.000000,   0.000000 [a0]

Properties computed using the SCF density matrix

  Nuclear Dipole Moment: [e a0]
     X:    28.6027      Y:    16.0916      Z:   283.5017

  Electronic Dipole Moment: [e a0]
     X:   -26.6654      Y:   -15.7399      Z:  -283.2369

  Dipole Moment: [e a0]
     X:     1.9373      Y:     0.3517      Z:     0.2648     Total:     1.9867

  Dipole Moment: [D]
     X:     4.9242      Y:     0.8940      Z:     0.6732     Total:     5.0497


*** tstop() called on node37.bme.utexas.edu at Thu Apr 23 19:14:19 2020
Module time:
	user time   =     322.78 seconds =       5.38 minutes
	system time =      14.47 seconds =       0.24 minutes
	total time  =         46 seconds =       0.77 minutes
Total time:
	user time   =     447.82 seconds =       7.46 minutes
	system time =      20.11 seconds =       0.34 minutes
	total time  =         67 seconds =       1.12 minutes

*** tstart() called on node37.bme.utexas.edu
*** at Thu Apr 23 19:14:19 2020


  //>>>>>>>>>>>>>>>>>>>>>>>>>>>>>>>>>>>//
  //               DFMP2               //
  //<<<<<<<<<<<<<<<<<<<<<<<<<<<<<<<<<<<//

   => Loading Basis Set <=

    Name: (AUG-CC-PVQZ AUX)
    Role: RIFIT
    Keyword: DF_BASIS_MP2
    atoms 1, 9        entry N          line   258 file /home/liuchw/anaconda3/envs/psi4env/share/psi4/basis/aug-cc-pvqz-ri.gbs 
    atoms 2, 6, 8, 10 entry H          line    30 file /home/liuchw/anaconda3/envs/psi4env/share/psi4/basis/aug-cc-pvqz-ri.gbs 
    atoms 3, 5, 7, 11 entry C          line   184 file /home/liuchw/anaconda3/envs/psi4env/share/psi4/basis/aug-cc-pvqz-ri.gbs 
    atoms 4, 12       entry O          line   332 file /home/liuchw/anaconda3/envs/psi4env/share/psi4/basis/aug-cc-pvqz-ri.gbs 

	 --------------------------------------------------------
	                          DF-MP2                         
	      2nd-Order Density-Fitted Moller-Plesset Theory     
	              RMP2 Wavefunction,   8 Threads             
	                                                         
	        Rob Parrish, Justin Turney, Andy Simmonett,      
	           Ed Hohenstein, and C. David Sherrill          
	 --------------------------------------------------------

   => Auxiliary Basis Set <=

  Basis Set: (AUG-CC-PVQZ AUX)
    Blend: AUG-CC-PVQZ-RI
    Number of shells: 368
    Number of basis function: 1664
    Number of Cartesian functions: 2316
    Spherical Harmonics?: true
    Max angular momentum: 5

	 --------------------------------------------------------
	                 NBF =   824, NAUX =  1664
	 --------------------------------------------------------
	   CLASS    FOCC     OCC    AOCC    AVIR     VIR    FVIR
	   PAIRS       0      29      29     795     795       0
	 --------------------------------------------------------

	-----------------------------------------------------------
	 ==================> DF-MP2 Energies <==================== 
	-----------------------------------------------------------
	 Reference Energy          =    -412.6499180374610205 [Eh]
	 Singles Energy            =      -0.0000000000000000 [Eh]
	 Same-Spin Energy          =      -0.4392713834141223 [Eh]
	 Opposite-Spin Energy      =      -1.3883906063249492 [Eh]
	 Correlation Energy        =      -1.8276619897390716 [Eh]
	 Total Energy              =    -414.4775800272000765 [Eh]
	-----------------------------------------------------------
	 ================> DF-SCS-MP2 Energies <================== 
	-----------------------------------------------------------
	 SCS Same-Spin Scale       =       0.3333333333333333 [-]
	 SCS Opposite-Spin Scale   =       1.2000000000000000 [-]
	 SCS Same-Spin Energy      =      -0.1464237944713741 [Eh]
	 SCS Opposite-Spin Energy  =      -1.6660687275899388 [Eh]
	 SCS Correlation Energy    =      -1.8124925220613131 [Eh]
	 SCS Total Energy          =    -414.4624105595223114 [Eh]
	-----------------------------------------------------------


*** tstop() called on node37.bme.utexas.edu at Thu Apr 23 19:14:46 2020
Module time:
	user time   =     156.87 seconds =       2.61 minutes
	system time =       4.40 seconds =       0.07 minutes
	total time  =         27 seconds =       0.45 minutes
Total time:
	user time   =     604.70 seconds =      10.08 minutes
	system time =      24.51 seconds =       0.41 minutes
	total time  =         94 seconds =       1.57 minutes

  //>>>>>>>>>>>>>>>>>>>>>>>>>>>>>>>>>>>//
  //  CBS Results: mp2/aug-cc-pv[tq]z  //
  //<<<<<<<<<<<<<<<<<<<<<<<<<<<<<<<<<<<//


   ==> HF <==

   HI-zeta (4) Energy:               -412.649918037461


   ==> Helgaker 2-point correlated extrapolation for method: MP2 <==

   LO-zeta (3) Energy:               -414.265049549156
   HI-zeta (4) Energy:               -414.477580027200
   Alpha (exponent) Value:             3.000000000000
   Extrapolated Energy:              -414.632669835502

   @Extrapolated MP2/(T,Q):          -414.632669835502



   ==> Helgaker 2-point correlated extrapolation for method: HF <==

   LO-zeta (3) Energy:               -412.624388269697
   HI-zeta (4) Energy:               -412.649918037461
   Alpha (exponent) Value:             3.000000000000
   Extrapolated Energy:              -412.668547867992

   @Extrapolated HF/(T,Q):           -412.668547867992


   ==> Components <==

  ---------------------------------------------------------------------------------------------------------
                          Method / Basis                      Rqd      Energy [Eh]   Variable
  ---------------------------------------------------------------------------------------------------------
                              hf / aug-cc-pvtz                  *    -412.62438827   HF TOTAL ENERGY
                             mp2 / aug-cc-pvtz                  *    -414.26504955   MP2 TOTAL ENERGY
                              hf / aug-cc-pvqz                  *    -412.64991804   HF TOTAL ENERGY
                             mp2 / aug-cc-pvqz                  *    -414.47758003   MP2 TOTAL ENERGY
  ---------------------------------------------------------------------------------------------------------

   ==> Stages <==

  ---------------------------------------------------------------------------------------------------------
      Stage               Method / Basis                       Wt      Energy [Eh]   Scheme
  ---------------------------------------------------------------------------------------------------------
        scf                   hf / aug-cc-pvqz                  1    -412.64991804   xtpl_highest_1
       corl                  mp2 / aug-cc-pv[tq]z               1    -414.63266984   corl_xtpl_helgaker_2
       corl                   hf / aug-cc-pv[tq]z              -1    -412.66854787   corl_xtpl_helgaker_2
  ---------------------------------------------------------------------------------------------------------

   ==> CBS <==

  ---------------------------------------------------------------------------------------------------------
      Stage               Method / Basis                               Energy [Eh]   Scheme
  ---------------------------------------------------------------------------------------------------------
        scf                   hf / aug-cc-pvqz                       -412.64991804   xtpl_highest_1
       corl                  mp2 / aug-cc-pv[tq]z                      -1.96412197   corl_xtpl_helgaker_2
      total                  CBS                                     -414.61404000   
  ---------------------------------------------------------------------------------------------------------
   => Loading Basis Set <=

    Name: DEF2-SVP
    Role: ORBITAL
    Keyword: BASIS
    atoms 1, 9        entry N          line   110 file /home/liuchw/anaconda3/envs/psi4env/share/psi4/basis/def2-svp.gbs 
    atoms 2, 6, 8, 10 entry H          line    15 file /home/liuchw/anaconda3/envs/psi4env/share/psi4/basis/def2-svp.gbs 
    atoms 3, 5, 7, 11 entry C          line    90 file /home/liuchw/anaconda3/envs/psi4env/share/psi4/basis/def2-svp.gbs 
    atoms 4, 12       entry O          line   130 file /home/liuchw/anaconda3/envs/psi4env/share/psi4/basis/def2-svp.gbs 


       N-Body: Complex Energy (fragments = (2,), basis = (2,):  -414.61404000497163)

       N-Body: Computing complex (2/4) with fragments (2,) in the basis of fragments (1, 2).


Scratch directory: /scratch/liuchw/

  //>>>>>>>>>>>>>>>>>>>>>>>>>>>>>>>>>>>//
  //   CBS Setup: mp2/aug-cc-pv[tq]z   //
  //<<<<<<<<<<<<<<<<<<<<<<<<<<<<<<<<<<<//

    Naive listing of computations required.
             hf / aug-cc-pvqz              for  HF TOTAL ENERGY
            mp2 / aug-cc-pvtz              for  MP2 TOTAL ENERGY
            mp2 / aug-cc-pvqz              for  MP2 TOTAL ENERGY
             hf / aug-cc-pvtz              for  HF TOTAL ENERGY
             hf / aug-cc-pvqz              for  HF TOTAL ENERGY

    Enlightened listing of computations required.
            mp2 / aug-cc-pvtz              for  MP2 TOTAL ENERGY
            mp2 / aug-cc-pvqz              for  MP2 TOTAL ENERGY

    Full listing of computations to be obtained (required and bonus).
             hf / aug-cc-pvtz              for  HF TOTAL ENERGY
            mp2 / aug-cc-pvtz              for  MP2 TOTAL ENERGY
             hf / aug-cc-pvqz              for  HF TOTAL ENERGY
            mp2 / aug-cc-pvqz              for  MP2 TOTAL ENERGY

  //>>>>>>>>>>>>>>>>>>>>>>>>>>>>>>>>>>>>//
  // CBS Computation: MP2 / AUG-CC-PVTZ //
  //<<<<<<<<<<<<<<<<<<<<<<<<<<<<<<<<<<<<//


Scratch directory: /scratch/liuchw/

*** tstart() called on node37.bme.utexas.edu
*** at Thu Apr 23 19:14:48 2020

   => Loading Basis Set <=

    Name: AUG-CC-PVTZ
    Role: ORBITAL
    Keyword: BASIS
    atoms 1, 12, 20                      entry N          line   285 file /home/liuchw/anaconda3/envs/psi4env/share/psi4/basis/aug-cc-pvtz.gbs 
    atoms 2, 4, 6, 8, 10, 14, 16, 18, 22 entry C          line   239 file /home/liuchw/anaconda3/envs/psi4env/share/psi4/basis/aug-cc-pvtz.gbs 
    atoms 3, 5, 7, 9, 11, 13, 17, 19, 21 entry H          line    40 file /home/liuchw/anaconda3/envs/psi4env/share/psi4/basis/aug-cc-pvtz.gbs 
    atoms 15, 23                         entry O          line   331 file /home/liuchw/anaconda3/envs/psi4env/share/psi4/basis/aug-cc-pvtz.gbs 


         ---------------------------------------------------------
                                   SCF
               by Justin Turney, Rob Parrish, Andy Simmonett
                          and Daniel G. A. Smith
                              RHF Reference
                        8 Threads,  19073 MiB Core
         ---------------------------------------------------------

  ==> Geometry <==

    Molecular point group: c1
    Full point group: C1

    Geometry (in Angstrom), charge = 0, multiplicity = 1:

       Center              X                  Y                   Z               Mass       
    ------------   -----------------  -----------------  -----------------  -----------------
      Gh(N)           1.044252427503    -0.088277487249    -3.416795087180    14.003074004430
      Gh(C)           0.445432427503    -1.275407487249    -3.593055087180    12.000000000000
      Gh(H)           1.084972427503    -2.146477487249    -3.527215087180     1.007825032230
      Gh(C)          -0.917817572497    -1.425607487249    -3.835335087180    12.000000000000
      Gh(H)          -1.336927572497    -2.413827487249    -3.959885087180     1.007825032230
      Gh(C)          -1.714377572497    -0.286897487249    -3.902975087180    12.000000000000
      Gh(H)          -2.777517572497    -0.362917487249    -4.085265087180     1.007825032230
      Gh(C)          -1.110127572497     0.953682512751    -3.726685087180    12.000000000000
      Gh(H)          -1.685317572497     1.867542512751    -3.758145087180     1.007825032230
      Gh(C)           0.261212427503     0.999152512751    -3.489155087180    12.000000000000
      Gh(H)           0.758192427503     1.951092512751    -3.348955087180     1.007825032230
         N           -0.620157572497    -0.252287487249     2.460124912820    14.003074004430
         H           -1.515047572497    -0.684147487249     2.275524912820     1.007825032230
         C           -0.619897572497     1.145532512751     2.553134912820    12.000000000000
         O           -1.659777572497     1.773722512751     2.438284912820    15.994914619570
         C            0.699592427503     1.704612512751     2.780694912820    12.000000000000
         H            0.800912427503     2.771832512751     2.876564912820     1.007825032230
         C            1.769472427503     0.885912512751     2.852214912820    12.000000000000
         H            2.773352427503     1.254582512751     3.000644912820     1.007825032230
         N            1.651402427503    -0.471377487249     2.739664912820    14.003074004430
         H            2.464842427503    -1.063567487249     2.731494912820     1.007825032230
         C            0.450962427503    -1.118607487249     2.513284912820    12.000000000000
         O            0.358822427503    -2.324027487249     2.379704912820    15.994914619570

  Running in c1 symmetry.

  Rotational constants: A =      0.03167  B =      0.00826  C =      0.00775 [cm^-1]
  Rotational constants: A =    949.56595  B =    247.74445  C =    232.32132 [MHz]
  Nuclear repulsion =  357.235756378416340

  Charge       = 0
  Multiplicity = 1
  Electrons    = 58
  Nalpha       = 29
  Nbeta        = 29

  ==> Algorithm <==

  SCF Algorithm Type is DF.
  DIIS enabled.
  MOM disabled.
  Fractional occupation disabled.
  Guess Type is SAD.
  Energy threshold   = 1.00e-07
  Density threshold  = 1.00e-08
  Integral threshold = 0.00e+00

  ==> Primary Basis <==

  Basis Set: AUG-CC-PVTZ
    Blend: AUG-CC-PVTZ
    Number of shells: 277
    Number of basis function: 851
    Number of Cartesian functions: 995
    Spherical Harmonics?: true
    Max angular momentum: 3

   => Loading Basis Set <=

    Name: (AUG-CC-PVTZ AUX)
    Role: JKFIT
    Keyword: DF_BASIS_SCF
    atoms 1, 12, 20                      entry N          line   224 file /home/liuchw/anaconda3/envs/psi4env/share/psi4/basis/aug-cc-pvtz-jkfit.gbs 
    atoms 2, 4, 6, 8, 10, 14, 16, 18, 22 entry C          line   162 file /home/liuchw/anaconda3/envs/psi4env/share/psi4/basis/aug-cc-pvtz-jkfit.gbs 
    atoms 3, 5, 7, 9, 11, 13, 17, 19, 21 entry H          line    70 file /home/liuchw/anaconda3/envs/psi4env/share/psi4/basis/aug-cc-pvtz-jkfit.gbs 
    atoms 15, 23                         entry O          line   286 file /home/liuchw/anaconda3/envs/psi4env/share/psi4/basis/aug-cc-pvtz-jkfit.gbs 

  ==> Pre-Iterations <==

   -------------------------------------------------------
    Irrep   Nso     Nmo     Nalpha   Nbeta   Ndocc  Nsocc
   -------------------------------------------------------
     A        851     851       0       0       0       0
   -------------------------------------------------------
    Total     851     851      29      29      29       0
   -------------------------------------------------------

  ==> Integral Setup <==

  DFHelper Memory: AOs need 8.103 GiB; user supplied 13.970 GiB. Using in-core AOs.

  ==> MemDFJK: Density-Fitted J/K Matrices <==

    J tasked:                   Yes
    K tasked:                   Yes
    wK tasked:                   No
    OpenMP threads:               8
    Memory [MiB]:             14305
    Algorithm:                 Core
    Schwarz Cutoff:           1E-12
    Mask sparsity (%):      21.8268
    Fitting Condition:        1E-10

   => Auxiliary Basis Set <=

  Basis Set: (AUG-CC-PVTZ AUX)
    Blend: AUG-CC-PVTZ-JKFIT
    Number of shells: 546
    Number of basis function: 1870
    Number of Cartesian functions: 2329
    Spherical Harmonics?: true
    Max angular momentum: 4

  Minimum eigenvalue in the overlap matrix is 2.2623724007E-06.
  Using Symmetric Orthogonalization.

  SCF Guess: Superposition of Atomic Densities via on-the-fly atomic UHF.

  ==> Iterations <==

                           Total Energy        Delta E     RMS |[F,P]|

   @DF-RHF iter SAD:  -411.98019290666105   -4.11980e+02   0.00000e+00 
   @DF-RHF iter   1:  -412.37881207284482   -3.98619e-01   8.75232e-04 DIIS
   @DF-RHF iter   2:  -412.54191019274322   -1.63098e-01   5.76044e-04 DIIS
   @DF-RHF iter   3:  -412.61922502141982   -7.73148e-02   1.04255e-04 DIIS
   @DF-RHF iter   4:  -412.62340339499423   -4.17837e-03   4.31468e-05 DIIS
   @DF-RHF iter   5:  -412.62428191997196   -8.78525e-04   8.76344e-06 DIIS
   @DF-RHF iter   6:  -412.62438555768665   -1.03638e-04   4.40182e-06 DIIS
   @DF-RHF iter   7:  -412.62440415452073   -1.85968e-05   1.79682e-06 DIIS
   @DF-RHF iter   8:  -412.62440743000127   -3.27548e-06   5.98503e-07 DIIS
   @DF-RHF iter   9:  -412.62440767621143   -2.46210e-07   2.50361e-07 DIIS
   @DF-RHF iter  10:  -412.62440773518250   -5.89711e-08   8.30105e-08 DIIS
   @DF-RHF iter  11:  -412.62440774263717   -7.45467e-09   2.72229e-08 DIIS
   @DF-RHF iter  12:  -412.62440774324034   -6.03166e-10   9.15763e-09 DIIS
  Energy and wave function converged.


  ==> Post-Iterations <==

    Orbital Energies [Eh]
    ---------------------

    Doubly Occupied:                                                      

       1A    -20.547993     2A    -20.542130     3A    -15.645851  
       4A    -15.628290     5A    -11.419697     6A    -11.381433  
       7A    -11.341640     8A    -11.256260     9A     -1.437263  
      10A     -1.398110    11A     -1.315561    12A     -1.247363  
      13A     -1.089620    14A     -0.935468    15A     -0.903079  
      16A     -0.808514    17A     -0.766581    18A     -0.715616  
      19A     -0.678244    20A     -0.670531    21A     -0.653609  
      22A     -0.615366    23A     -0.602520    24A     -0.571482  
      25A     -0.527147    26A     -0.484698    27A     -0.450081  
      28A     -0.437610    29A     -0.369879  

    Virtual:                                                              

      30A      0.012675    31A      0.021913    32A      0.030239  
      33A      0.034385    34A      0.039137    35A      0.043561  
      36A      0.049390    37A      0.054323    38A      0.056655  
      39A      0.060958    40A      0.070716    41A      0.077866  
      42A      0.079543    43A      0.080660    44A      0.087371  
      45A      0.091939    46A      0.095001    47A      0.097006  
      48A      0.101108    49A      0.106618    50A      0.108724  
      51A      0.110371    52A      0.112532    53A      0.115534  
      54A      0.120223    55A      0.121736    56A      0.123819  
      57A      0.127385    58A      0.131514    59A      0.137466  
      60A      0.139985    61A      0.145999    62A      0.146887  
      63A      0.153354    64A      0.154546    65A      0.156125  
      66A      0.159007    67A      0.160549    68A      0.164218  
      69A      0.167248    70A      0.171378    71A      0.175250  
      72A      0.184014    73A      0.187004    74A      0.191108  
      75A      0.198401    76A      0.199663    77A      0.201948  
      78A      0.209564    79A      0.214324    80A      0.216406  
      81A      0.226848    82A      0.231510    83A      0.234216  
      84A      0.241884    85A      0.248582    86A      0.258015  
      87A      0.262211    88A      0.262724    89A      0.266350  
      90A      0.268883    91A      0.270397    92A      0.274777  
      93A      0.283027    94A      0.287686    95A      0.294294  
      96A      0.294974    97A      0.298791    98A      0.304063  
      99A      0.306231   100A      0.310241   101A      0.313032  
     102A      0.315734   103A      0.319620   104A      0.324326  
     105A      0.328593   106A      0.335333   107A      0.338030  
     108A      0.345078   109A      0.348061   110A      0.349682  
     111A      0.352789   112A      0.356057   113A      0.359487  
     114A      0.363545   115A      0.365579   116A      0.370190  
     117A      0.371771   118A      0.372772   119A      0.378118  
     120A      0.383014   121A      0.385413   122A      0.389852  
     123A      0.391603   124A      0.396239   125A      0.401422  
     126A      0.401563   127A      0.404864   128A      0.414115  
     129A      0.418699   130A      0.419371   131A      0.421570  
     132A      0.427411   133A      0.430463   134A      0.432813  
     135A      0.436424   136A      0.438712   137A      0.441719  
     138A      0.443638   139A      0.445272   140A      0.448841  
     141A      0.452384   142A      0.454459   143A      0.459221  
     144A      0.468281   145A      0.471224   146A      0.478470  
     147A      0.480046   148A      0.482832   149A      0.484846  
     150A      0.491013   151A      0.502096   152A      0.506865  
     153A      0.508563   154A      0.515153   155A      0.518352  
     156A      0.522972   157A      0.527361   158A      0.533002  
     159A      0.536081   160A      0.537754   161A      0.549567  
     162A      0.552935   163A      0.554767   164A      0.563627  
     165A      0.567913   166A      0.573854   167A      0.580867  
     168A      0.589293   169A      0.598498   170A      0.600489  
     171A      0.607320   172A      0.609467   173A      0.613097  
     174A      0.617627   175A      0.619747   176A      0.626221  
     177A      0.628060   178A      0.631652   179A      0.638625  
     180A      0.641715   181A      0.645459   182A      0.651101  
     183A      0.652534   184A      0.663141   185A      0.671107  
     186A      0.672547   187A      0.673864   188A      0.683487  
     189A      0.689056   190A      0.691574   191A      0.695351  
     192A      0.700235   193A      0.707937   194A      0.711517  
     195A      0.716179   196A      0.719173   197A      0.721477  
     198A      0.725868   199A      0.729619   200A      0.739074  
     201A      0.741540   202A      0.746132   203A      0.753851  
     204A      0.761598   205A      0.762577   206A      0.765218  
     207A      0.769116   208A      0.771275   209A      0.776222  
     210A      0.782177   211A      0.785563   212A      0.791181  
     213A      0.800593   214A      0.803649   215A      0.806892  
     216A      0.810534   217A      0.815299   218A      0.830600  
     219A      0.843814   220A      0.847695   221A      0.852929  
     222A      0.855068   223A      0.860451   224A      0.865321  
     225A      0.868558   226A      0.875913   227A      0.880562  
     228A      0.883574   229A      0.889629   230A      0.899635  
     231A      0.904097   232A      0.908033   233A      0.915140  
     234A      0.917063   235A      0.922288   236A      0.929334  
     237A      0.936190   238A      0.940786   239A      0.949277  
     240A      0.951104   241A      0.954259   242A      0.958895  
     243A      0.962922   244A      0.966417   245A      0.975948  
     246A      0.979222   247A      0.988452   248A      0.989558  
     249A      0.996007   250A      1.002172   251A      1.007295  
     252A      1.012263   253A      1.015631   254A      1.017067  
     255A      1.037264   256A      1.043450   257A      1.047801  
     258A      1.054116   259A      1.066925   260A      1.074971  
     261A      1.076220   262A      1.082645   263A      1.086814  
     264A      1.088827   265A      1.092785   266A      1.095555  
     267A      1.098332   268A      1.101237   269A      1.107844  
     270A      1.110717   271A      1.119025   272A      1.123946  
     273A      1.127463   274A      1.129630   275A      1.134413  
     276A      1.136644   277A      1.140897   278A      1.145847  
     279A      1.148841   280A      1.150939   281A      1.156463  
     282A      1.158872   283A      1.164628   284A      1.172338  
     285A      1.173750   286A      1.177070   287A      1.181698  
     288A      1.184211   289A      1.187393   290A      1.196891  
     291A      1.199616   292A      1.204142   293A      1.209936  
     294A      1.214386   295A      1.218863   296A      1.232113  
     297A      1.233349   298A      1.238636   299A      1.244729  
     300A      1.250147   301A      1.255123   302A      1.264628  
     303A      1.268601   304A      1.270829   305A      1.274962  
     306A      1.282747   307A      1.286864   308A      1.297726  
     309A      1.305385   310A      1.306853   311A      1.311224  
     312A      1.321762   313A      1.325424   314A      1.328030  
     315A      1.339422   316A      1.341730   317A      1.349111  
     318A      1.351093   319A      1.358291   320A      1.368952  
     321A      1.372724   322A      1.374948   323A      1.375966  
     324A      1.384374   325A      1.391387   326A      1.397611  
     327A      1.406162   328A      1.409860   329A      1.417533  
     330A      1.418856   331A      1.428276   332A      1.431738  
     333A      1.434408   334A      1.438758   335A      1.445022  
     336A      1.453580   337A      1.469454   338A      1.476335  
     339A      1.482494   340A      1.485819   341A      1.494674  
     342A      1.498445   343A      1.504849   344A      1.511955  
     345A      1.517624   346A      1.524296   347A      1.530932  
     348A      1.534492   349A      1.549424   350A      1.553929  
     351A      1.557868   352A      1.559125   353A      1.562119  
     354A      1.565890   355A      1.580280   356A      1.582333  
     357A      1.587427   358A      1.588867   359A      1.603682  
     360A      1.615844   361A      1.620454   362A      1.626497  
     363A      1.634048   364A      1.643587   365A      1.645414  
     366A      1.652668   367A      1.655540   368A      1.671173  
     369A      1.673049   370A      1.687387   371A      1.698184  
     372A      1.700548   373A      1.709361   374A      1.712948  
     375A      1.715340   376A      1.736225   377A      1.742582  
     378A      1.747997   379A      1.765522   380A      1.768105  
     381A      1.798485   382A      1.800772   383A      1.805157  
     384A      1.820636   385A      1.834436   386A      1.842502  
     387A      1.850147   388A      1.865889   389A      1.868900  
     390A      1.877315   391A      1.881472   392A      1.895143  
     393A      1.895773   394A      1.906295   395A      1.918024  
     396A      1.921722   397A      1.924478   398A      1.934978  
     399A      1.936971   400A      1.938433   401A      1.952448  
     402A      1.957003   403A      1.970879   404A      1.978039  
     405A      1.989321   406A      2.008276   407A      2.018061  
     408A      2.020072   409A      2.034030   410A      2.046902  
     411A      2.059786   412A      2.080145   413A      2.100586  
     414A      2.106041   415A      2.114191   416A      2.123558  
     417A      2.130098   418A      2.142053   419A      2.144464  
     420A      2.152003   421A      2.155554   422A      2.163189  
     423A      2.167486   424A      2.176653   425A      2.194433  
     426A      2.198780   427A      2.200766   428A      2.203323  
     429A      2.204264   430A      2.209362   431A      2.215470  
     432A      2.218273   433A      2.223786   434A      2.232291  
     435A      2.262294   436A      2.270503   437A      2.274503  
     438A      2.280376   439A      2.288235   440A      2.298025  
     441A      2.307120   442A      2.313856   443A      2.317646  
     444A      2.327718   445A      2.331186   446A      2.338041  
     447A      2.340672   448A      2.348977   449A      2.356523  
     450A      2.366762   451A      2.377254   452A      2.386729  
     453A      2.403660   454A      2.405673   455A      2.408881  
     456A      2.411674   457A      2.415955   458A      2.430493  
     459A      2.441541   460A      2.454229   461A      2.461373  
     462A      2.477220   463A      2.478723   464A      2.490070  
[...]
    1092A      6.657668  1093A      6.659524  1094A      6.668949  
    1095A      6.672953  1096A      6.675934  1097A      6.696409  
    1098A      6.707892  1099A      6.715585  1100A      6.719529  
    1101A      6.735325  1102A      6.753965  1103A      6.756065  
    1104A      6.782076  1105A      6.787387  1106A      6.801475  
    1107A      6.809352  1108A      6.825278  1109A      6.830451  
    1110A      6.857504  1111A      6.859712  1112A      6.867927  
    1113A      6.883923  1114A      6.890617  1115A      6.894120  
    1116A      6.903543  1117A      6.905643  1118A      6.918353  
    1119A      6.926343  1120A      6.939295  1121A      6.958465  
    1122A      6.959824  1123A      6.969056  1124A      6.972377  
    1125A      6.986167  1126A      6.987531  1127A      7.003653  
    1128A      7.010207  1129A      7.019955  1130A      7.024365  
    1131A      7.027610  1132A      7.037190  1133A      7.045996  
    1134A      7.055510  1135A      7.063152  1136A      7.070505  
    1137A      7.084448  1138A      7.089727  1139A      7.095090  
    1140A      7.123770  1141A      7.141082  1142A      7.143572  
    1143A      7.149416  1144A      7.153220  1145A      7.154298  
    1146A      7.171042  1147A      7.187147  1148A      7.203026  
    1149A      7.208038  1150A      7.220017  1151A      7.223298  
    1152A      7.233643  1153A      7.239722  1154A      7.246206  
    1155A      7.256399  1156A      7.260448  1157A      7.286685  
    1158A      7.291153  1159A      7.295383  1160A      7.314428  
    1161A      7.327171  1162A      7.330612  1163A      7.337209  
    1164A      7.346262  1165A      7.365181  1166A      7.372885  
    1167A      7.389282  1168A      7.399957  1169A      7.402230  
    1170A      7.403986  1171A      7.408161  1172A      7.409388  
    1173A      7.440189  1174A      7.461446  1175A      7.469824  
    1176A      7.476565  1177A      7.479809  1178A      7.505936  
    1179A      7.515178  1180A      7.523906  1181A      7.533223  
    1182A      7.567004  1183A      7.577931  1184A      7.586276  
    1185A      7.589437  1186A      7.591481  1187A      7.622573  
    1188A      7.632448  1189A      7.649868  1190A      7.651188  
    1191A      7.655960  1192A      7.668013  1193A      7.682978  
    1194A      7.702718  1195A      7.715190  1196A      7.731661  
    1197A      7.744132  1198A      7.750029  1199A      7.763349  
    1200A      7.771481  1201A      7.777687  1202A      7.779812  
    1203A      7.784873  1204A      7.807143  1205A      7.812734  
    1206A      7.838299  1207A      7.842529  1208A      7.859524  
    1209A      7.861485  1210A      7.868920  1211A      7.883719  
    1212A      7.910491  1213A      7.911934  1214A      7.930418  
    1215A      7.951773  1216A      7.954586  1217A      7.959247  
    1218A      8.005381  1219A      8.005879  1220A      8.010297  
    1221A      8.014711  1222A      8.019515  1223A      8.035631  
    1224A      8.039269  1225A      8.061171  1226A      8.067441  
    1227A      8.071760  1228A      8.095513  1229A      8.108820  
    1230A      8.139199  1231A      8.145355  1232A      8.149820  
    1233A      8.153261  1234A      8.180028  1235A      8.227268  
    1236A      8.232332  1237A      8.282237  1238A      8.283193  
    1239A      8.306359  1240A      8.324867  1241A      8.332867  
    1242A      8.356888  1243A      8.359416  1244A      8.368754  
    1245A      8.385092  1246A      8.405118  1247A      8.447076  
    1248A      8.457609  1249A      8.462685  1250A      8.473786  
    1251A      8.494136  1252A      8.514850  1253A      8.525384  
    1254A      8.535265  1255A      8.552717  1256A      8.570950  
    1257A      8.576110  1258A      8.583577  1259A      8.592598  
    1260A      8.606513  1261A      8.625113  1262A      8.633368  
    1263A      8.644017  1264A      8.653274  1265A      8.655786  
    1266A      8.666593  1267A      8.675272  1268A      8.698490  
    1269A      8.706388  1270A      8.715414  1271A      8.716755  
    1272A      8.728387  1273A      8.736039  1274A      8.743174  
    1275A      8.790606  1276A      8.815220  1277A      8.817159  
    1278A      8.824521  1279A      8.831478  1280A      8.849610  
    1281A      8.864884  1282A      8.871781  1283A      8.877424  
    1284A      8.886364  1285A      8.896955  1286A      8.900674  
    1287A      8.922151  1288A      8.937046  1289A      8.950495  
    1290A      8.950761  1291A      8.960109  1292A      8.964387  
    1293A      8.967632  1294A      8.971466  1295A      9.005482  
    1296A      9.049478  1297A      9.049691  1298A      9.055171  
    1299A      9.072441  1300A      9.083756  1301A      9.093423  
    1302A      9.122263  1303A      9.131660  1304A      9.134688  
    1305A      9.143235  1306A      9.146146  1307A      9.178762  
    1308A      9.179756  1309A      9.187355  1310A      9.204395  
    1311A      9.213805  1312A      9.220684  1313A      9.255687  
    1314A      9.259826  1315A      9.278308  1316A      9.293011  
    1317A      9.305556  1318A      9.318741  1319A      9.331221  
    1320A      9.350131  1321A      9.356656  1322A      9.386041  
    1323A      9.397543  1324A      9.405285  1325A      9.408792  
    1326A      9.417322  1327A      9.420914  1328A      9.450414  
    1329A      9.488335  1330A      9.502277  1331A      9.504957  
    1332A      9.516203  1333A      9.553045  1334A      9.554247  
    1335A      9.558624  1336A      9.562077  1337A      9.585599  
    1338A      9.597449  1339A      9.599389  1340A      9.603550  
    1341A      9.626867  1342A      9.650516  1343A      9.651473  
    1344A      9.680062  1345A      9.689487  1346A      9.695646  
    1347A      9.705619  1348A      9.726628  1349A      9.731772  
    1350A      9.738370  1351A      9.786218  1352A      9.797430  
    1353A      9.806645  1354A      9.848198  1355A      9.859181  
    1356A      9.870155  1357A      9.908728  1358A      9.926567  
    1359A      9.947869  1360A      9.950363  1361A      9.967709  
    1362A      9.970265  1363A      9.972086  1364A      9.981345  
    1365A     10.004362  1366A     10.007024  1367A     10.025141  
    1368A     10.028115  1369A     10.031850  1370A     10.038923  
    1371A     10.040663  1372A     10.067715  1373A     10.078968  
    1374A     10.100394  1375A     10.143247  1376A     10.180358  
    1377A     10.189072  1378A     10.222581  1379A     10.226392  
    1380A     10.236313  1381A     10.239052  1382A     10.248781  
    1383A     10.260958  1384A     10.267690  1385A     10.287154  
    1386A     10.292554  1387A     10.295131  1388A     10.325850  
    1389A     10.334429  1390A     10.357734  1391A     10.385391  
    1392A     10.394299  1393A     10.437963  1394A     10.472987  
    1395A     10.481675  1396A     10.499828  1397A     10.511062  
    1398A     10.520293  1399A     10.520957  1400A     10.582978  
    1401A     10.585311  1402A     10.636733  1403A     10.645083  
    1404A     10.654723  1405A     10.659030  1406A     10.677732  
    1407A     10.695505  1408A     10.709913  1409A     10.721675  
    1410A     10.736700  1411A     10.767978  1412A     10.772728  
    1413A     10.777315  1414A     10.778661  1415A     10.800256  
    1416A     10.809258  1417A     10.826913  1418A     10.849975  
    1419A     10.855589  1420A     10.874293  1421A     10.882621  
    1422A     10.885392  1423A     10.892042  1424A     10.908401  
    1425A     11.055651  1426A     11.058427  1427A     11.074427  
    1428A     11.127531  1429A     11.146614  1430A     11.167592  
    1431A     11.183118  1432A     11.194388  1433A     11.198004  
    1434A     11.199155  1435A     11.222169  1436A     11.252576  
    1437A     11.267910  1438A     11.341044  1439A     11.364071  
    1440A     11.370180  1441A     11.370754  1442A     11.375045  
    1443A     11.414521  1444A     11.430086  1445A     11.451145  
    1446A     11.458126  1447A     11.462296  1448A     11.463797  
    1449A     11.506551  1450A     11.528319  1451A     11.557647  
    1452A     11.561897  1453A     11.573023  1454A     11.611083  
    1455A     11.616193  1456A     11.652694  1457A     11.661003  
    1458A     11.675678  1459A     11.698256  1460A     11.732364  
    1461A     11.775789  1462A     11.804814  1463A     11.882256  
    1464A     11.902085  1465A     11.910537  1466A     11.955953  
    1467A     12.003225  1468A     12.007702  1469A     12.123545  
    1470A     12.169461  1471A     12.173512  1472A     12.201835  
    1473A     12.218135  1474A     12.246235  1475A     12.278782  
    1476A     12.284322  1477A     12.310441  1478A     12.354841  
    1479A     12.463503  1480A     12.495226  1481A     12.524693  
    1482A     12.538681  1483A     12.580881  1484A     12.619423  
    1485A     12.710259  1486A     12.728744  1487A     12.812700  
    1488A     12.820502  1489A     12.844048  1490A     12.863596  
    1491A     12.885489  1492A     12.954779  1493A     12.994194  
    1494A     13.215714  1495A     13.238993  1496A     13.247328  
    1497A     13.315769  1498A     13.317612  1499A     13.365479  
    1500A     13.378254  1501A     13.390849  1502A     13.422003  
    1503A     13.460214  1504A     13.490975  1505A     13.513935  
    1506A     13.530922  1507A     13.583970  1508A     13.585626  
    1509A     13.616429  1510A     13.947564  1511A     14.062818  
    1512A     14.119731  1513A     14.283242  1514A     14.337757  
    1515A     14.793562  1516A     14.929956  1517A     15.134536  
    1518A     15.201360  1519A     15.283279  1520A     15.348218  
    1521A     26.169306  1522A     26.292122  1523A     26.441010  
    1524A     26.536531  1525A     26.661359  1526A     26.811004  
    1527A     26.951264  1528A     27.187394  1529A     27.194532  
    1530A     34.231244  1531A     35.187213  1532A     35.335044  
    1533A     44.381940  1534A     44.527013  

    Final Occupation by Irrep:
              A 
    DOCC [    50 ]

  @DF-RHF Final Energy:  -659.44337743505662

   => Energetics <=

    Nuclear Repulsion Energy =            756.2771908146494297
    One-Electron Energy =               -2398.0229523241032439
    Two-Electron Energy =                 982.3023840743971959
    Total Energy =                       -659.4433774350566182

Computation Completed


Properties will be evaluated at   0.000000,   0.000000,   0.000000 [a0]

Properties computed using the SCF density matrix

  Nuclear Dipole Moment: [e a0]
     X:     0.5197      Y:     1.1004      Z:    -7.2898

  Electronic Dipole Moment: [e a0]
     X:     0.4949      Y:    -0.8281      Z:     7.3818

  Dipole Moment: [e a0]
     X:     1.0146      Y:     0.2723      Z:     0.0920     Total:     1.0545

  Dipole Moment: [D]
     X:     2.5789      Y:     0.6920      Z:     0.2338     Total:     2.6804


*** tstop() called on node37.bme.utexas.edu at Thu Apr 23 20:39:03 2020
Module time:
	user time   =    3021.14 seconds =      50.35 minutes
	system time =     148.99 seconds =       2.48 minutes
	total time  =       1893 seconds =      31.55 minutes
Total time:
	user time   =   14593.19 seconds =     243.22 minutes
	system time =    1015.15 seconds =      16.92 minutes
	total time  =       5151 seconds =      85.85 minutes

*** tstart() called on node37.bme.utexas.edu
*** at Thu Apr 23 20:39:03 2020


  //>>>>>>>>>>>>>>>>>>>>>>>>>>>>>>>>>>>//
  //               DFMP2               //
  //<<<<<<<<<<<<<<<<<<<<<<<<<<<<<<<<<<<//

   => Loading Basis Set <=

    Name: (AUG-CC-PVQZ AUX)
    Role: RIFIT
    Keyword: DF_BASIS_MP2
    atoms 1, 12, 20                      entry N          line   258 file /home/liuchw/anaconda3/envs/psi4env/share/psi4/basis/aug-cc-pvqz-ri.gbs 
    atoms 2, 4, 6, 8, 10, 14, 16, 18, 22 entry C          line   184 file /home/liuchw/anaconda3/envs/psi4env/share/psi4/basis/aug-cc-pvqz-ri.gbs 
    atoms 3, 5, 7, 9, 11, 13, 17, 19, 21 entry H          line    30 file /home/liuchw/anaconda3/envs/psi4env/share/psi4/basis/aug-cc-pvqz-ri.gbs 
    atoms 15, 23                         entry O          line   332 file /home/liuchw/anaconda3/envs/psi4env/share/psi4/basis/aug-cc-pvqz-ri.gbs 

	 --------------------------------------------------------
	                          DF-MP2                         
	      2nd-Order Density-Fitted Moller-Plesset Theory     
	              RMP2 Wavefunction,   8 Threads             
	                                                         
	        Rob Parrish, Justin Turney, Andy Simmonett,      
	           Ed Hohenstein, and C. David Sherrill          
	 --------------------------------------------------------

   => Auxiliary Basis Set <=

  Basis Set: (AUG-CC-PVQZ AUX)
    Blend: AUG-CC-PVQZ-RI
    Number of shells: 684
    Number of basis function: 3072
    Number of Cartesian functions: 4263
    Spherical Harmonics?: true
    Max angular momentum: 5

	 --------------------------------------------------------
	                 NBF =  1534, NAUX =  3072
	 --------------------------------------------------------
	   CLASS    FOCC     OCC    AOCC    AVIR     VIR    FVIR
	   PAIRS       0      50      50    1484    1484       0
	 --------------------------------------------------------

	-----------------------------------------------------------
	 ==================> DF-MP2 Energies <==================== 
	-----------------------------------------------------------
	 Reference Energy          =    -659.4433774350566182 [Eh]
	 Singles Energy            =      -0.0000000000000000 [Eh]
	 Same-Spin Energy          =      -0.7236914426732689 [Eh]
	 Opposite-Spin Energy      =      -2.3311720566377114 [Eh]
	 Correlation Energy        =      -3.0548634993109802 [Eh]
	 Total Energy              =    -662.4982409343675727 [Eh]
	-----------------------------------------------------------
	 ================> DF-SCS-MP2 Energies <================== 
	-----------------------------------------------------------
	 SCS Same-Spin Scale       =       0.3333333333333333 [-]
	 SCS Opposite-Spin Scale   =       1.2000000000000000 [-]
	 SCS Same-Spin Energy      =      -0.2412304808910896 [Eh]
	 SCS Opposite-Spin Energy  =      -2.7974064679652537 [Eh]
	 SCS Correlation Energy    =      -3.0386369488563432 [Eh]
	 SCS Total Energy          =    -662.4820143839129969 [Eh]
	-----------------------------------------------------------


*** tstop() called on node37.bme.utexas.edu at Thu Apr 23 20:42:43 2020
Module time:
	user time   =    1495.72 seconds =      24.93 minutes
	system time =      15.51 seconds =       0.26 minutes
	total time  =        220 seconds =       3.67 minutes
Total time:
	user time   =   16088.91 seconds =     268.15 minutes
	system time =    1030.66 seconds =      17.18 minutes
	total time  =       5371 seconds =      89.52 minutes

  //>>>>>>>>>>>>>>>>>>>>>>>>>>>>>>>>>>>//
  //  CBS Results: mp2/aug-cc-pv[tq]z  //
  //<<<<<<<<<<<<<<<<<<<<<<<<<<<<<<<<<<<//


   ==> HF <==

   HI-zeta (4) Energy:               -659.443377435057


   ==> Helgaker 2-point correlated extrapolation for method: MP2 <==

   LO-zeta (3) Energy:               -662.152887078770
   HI-zeta (4) Energy:               -662.498240934368
   Alpha (exponent) Value:             3.000000000000
   Extrapolated Energy:              -662.750255910074

   @Extrapolated MP2/(T,Q):          -662.750255910074



   ==> Helgaker 2-point correlated extrapolation for method: HF <==

   LO-zeta (3) Energy:               -659.403736492176
   HI-zeta (4) Energy:               -659.443377435057
   Alpha (exponent) Value:             3.000000000000
   Extrapolated Energy:              -659.472304609591

   @Extrapolated HF/(T,Q):           -659.472304609591


   ==> Components <==

  ---------------------------------------------------------------------------------------------------------
                          Method / Basis                      Rqd      Energy [Eh]   Variable
  ---------------------------------------------------------------------------------------------------------
                              hf / aug-cc-pvtz                  *    -659.40373649   HF TOTAL ENERGY
                             mp2 / aug-cc-pvtz                  *    -662.15288708   MP2 TOTAL ENERGY
                              hf / aug-cc-pvqz                  *    -659.44337744   HF TOTAL ENERGY
                             mp2 / aug-cc-pvqz                  *    -662.49824093   MP2 TOTAL ENERGY
  ---------------------------------------------------------------------------------------------------------

   ==> Stages <==

  ---------------------------------------------------------------------------------------------------------
      Stage               Method / Basis                       Wt      Energy [Eh]   Scheme
  ---------------------------------------------------------------------------------------------------------
        scf                   hf / aug-cc-pvqz                  1    -659.44337744   xtpl_highest_1
       corl                  mp2 / aug-cc-pv[tq]z               1    -662.75025591   corl_xtpl_helgaker_2
       corl                   hf / aug-cc-pv[tq]z              -1    -659.47230461   corl_xtpl_helgaker_2
  ---------------------------------------------------------------------------------------------------------

   ==> CBS <==

  ---------------------------------------------------------------------------------------------------------
      Stage               Method / Basis                               Energy [Eh]   Scheme
  ---------------------------------------------------------------------------------------------------------
        scf                   hf / aug-cc-pvqz                       -659.44337744   xtpl_highest_1
       corl                  mp2 / aug-cc-pv[tq]z                      -3.27795130   corl_xtpl_helgaker_2
      total                  CBS                                     -662.72132874   
  ---------------------------------------------------------------------------------------------------------
   => Loading Basis Set <=

    Name: DEF2-SVP
    Role: ORBITAL
    Keyword: BASIS
    atoms 1, 12, 20                      entry N          line   110 file /home/liuchw/anaconda3/envs/psi4env/share/psi4/basis/def2-svp.gbs 
    atoms 2, 4, 6, 8, 10, 14, 16, 18, 22 entry C          line    90 file /home/liuchw/anaconda3/envs/psi4env/share/psi4/basis/def2-svp.gbs 
    atoms 3, 5, 7, 9, 11, 13, 17, 19, 21 entry H          line    15 file /home/liuchw/anaconda3/envs/psi4env/share/psi4/basis/def2-svp.gbs 
    atoms 15, 23                         entry O          line   130 file /home/liuchw/anaconda3/envs/psi4env/share/psi4/basis/def2-svp.gbs 


       N-Body: Complex Energy (fragments = (1, 2), basis = (1, 2):  -662.72132873553937)

   ==> N-Body: Counterpoise Corrected (CP) energies <==

   n-Body     Total Energy [Eh]       I.E. [kcal/mol]      Delta [kcal/mol]
        1     -662.720166953230        0.000000000000        0.000000000000
        2     -662.721337870231       -0.734761511343       -0.734761511343

   => Loading Basis Set <=

    Name: DEF2-SVP
    Role: ORBITAL
    Keyword: BASIS
    atoms 1, 12, 20                      entry N          line   110 file /home/liuchw/anaconda3/envs/psi4env/share/psi4/basis/def2-svp.gbs 
    atoms 2, 4, 6, 8, 10, 14, 16, 18, 22 entry C          line    90 file /home/liuchw/anaconda3/envs/psi4env/share/psi4/basis/def2-svp.gbs 
    atoms 3, 5, 7, 9, 11, 13, 17, 19, 21 entry H          line    15 file /home/liuchw/anaconda3/envs/psi4env/share/psi4/basis/def2-svp.gbs 
    atoms 15, 23                         entry O          line   130 file /home/liuchw/anaconda3/envs/psi4env/share/psi4/basis/def2-svp.gbs 


    Psi4 stopped on: Thursday, 23 April 2020 08:42PM
    Psi4 wall time for execution: 1:29:35.85

*** Psi4 exiting successfully. Buy a developer a beer!
