
    -----------------------------------------------------------------------
          Psi4: An Open-Source Ab Initio Electronic Structure Package
                               Psi4 1.4a2.dev224 

                         Git: Rev {master} e453b16 


    R. M. Parrish, L. A. Burns, D. G. A. Smith, A. C. Simmonett,
    A. E. DePrince III, E. G. Hohenstein, U. Bozkaya, A. Yu. Sokolov,
    R. Di Remigio, R. M. Richard, J. F. Gonthier, A. M. James,
    H. R. McAlexander, A. Kumar, M. Saitow, X. Wang, B. P. Pritchard,
    P. Verma, H. F. Schaefer III, K. Patkowski, R. A. King, E. F. Valeev,
    F. A. Evangelista, J. M. Turney, T. D. Crawford, and C. D. Sherrill,
    J. Chem. Theory Comput. 13(7) pp 3185--3197 (2017).
    (doi: 10.1021/acs.jctc.7b00174)


                         Additional Contributions by
    P. Kraus, H. Kruse, M. H. Lechner, M. C. Schieber, R. A. Shaw,
    A. Alenaizan, R. Galvelis, Z. L. Glick, S. Lehtola, and J. P. Misiewicz

    -----------------------------------------------------------------------


    Psi4 started on: Saturday, 11 April 2020 05:43PM

    Process ID: 31700
    Host:       node36.bme.utexas.edu
    PSIDATADIR: /home/liuchw/anaconda3/envs/psi4env/share/psi4
    Memory:     500.0 MiB
    Threads:    6
    
  ==> Input File <==

--------------------------------------------------------------------------
#Generated by lconvert.py for cbs job

memory 40 GB

molecule  {
0 1
  C        0.8355170     1.1151670     0.0214010
  H        1.4843240     1.9806090     0.0195340
  C        1.3832750    -0.1661470     0.0237650
  H        2.4571490    -0.2952050     0.0227710
  C        0.5475550    -1.2813160     0.0216860
  H        0.9729360    -2.2758050     0.0197790
  C       -0.8355230    -1.1151620     0.0213990
  H       -1.4843340    -1.9806060     0.0195300
  C       -1.3832840     0.1661540     0.0237580
  H       -2.4571560     0.2952090     0.0227570
  C       -0.5475660     1.2813230     0.0216800
  H       -0.9729430     2.2758050     0.0197690
--
0 1
  C        0.6557790    -0.1167900     2.7540530
  H        1.0472400    -1.1239090     2.7495850
  H        1.3708530     0.6932740     2.7495520
  C       -0.6557770     0.1167930     2.7540620
  H       -1.3708490    -0.6932720     2.7495660
  H       -1.0472400     1.1239120     2.7496040
units angstrom
no_reorient
symmetry c1
}

set {
scf_type DF
mp2_type DF
e_convergence 7
reference rhf
}

energy('mp2/aug-cc-pv[tq]z', bsse_type='cp')
--------------------------------------------------------------------------

  Memory set to  37.253 GiB by Python driver.

Scratch directory: /scratch//


   ===> N-Body Interaction Abacus <===
        BSSE Treatment:                     cp
        Number of 1-body computations:     4
        Number of 2-body computations:     1

   ==> N-Body: Now computing 1-body complexes <==


       N-Body: Computing complex (1/4) with fragments (2,) in the basis of fragments (2,).


Scratch directory: /scratch//

  //>>>>>>>>>>>>>>>>>>>>>>>>>>>>>>>>>>>//
  //   CBS Setup: mp2/aug-cc-pv[tq]z   //
  //<<<<<<<<<<<<<<<<<<<<<<<<<<<<<<<<<<<//

    Naive listing of computations required.
             hf / aug-cc-pvqz              for  HF TOTAL ENERGY
            mp2 / aug-cc-pvtz              for  MP2 TOTAL ENERGY
            mp2 / aug-cc-pvqz              for  MP2 TOTAL ENERGY
             hf / aug-cc-pvtz              for  HF TOTAL ENERGY
             hf / aug-cc-pvqz              for  HF TOTAL ENERGY

    Enlightened listing of computations required.
            mp2 / aug-cc-pvtz              for  MP2 TOTAL ENERGY
            mp2 / aug-cc-pvqz              for  MP2 TOTAL ENERGY

    Full listing of computations to be obtained (required and bonus).
             hf / aug-cc-pvtz              for  HF TOTAL ENERGY
            mp2 / aug-cc-pvtz              for  MP2 TOTAL ENERGY
             hf / aug-cc-pvqz              for  HF TOTAL ENERGY
            mp2 / aug-cc-pvqz              for  MP2 TOTAL ENERGY

  //>>>>>>>>>>>>>>>>>>>>>>>>>>>>>>>>>>>>//
  // CBS Computation: MP2 / AUG-CC-PVTZ //
  //<<<<<<<<<<<<<<<<<<<<<<<<<<<<<<<<<<<<//


Scratch directory: /scratch//

*** tstart() called on node36.bme.utexas.edu
*** at Sat Apr 11 17:43:26 2020

   => Loading Basis Set <=

    Name: AUG-CC-PVTZ
    Role: ORBITAL
    Keyword: BASIS
    atoms 1, 4     entry C          line   239 file /home/liuchw/anaconda3/envs/psi4env/share/psi4/basis/aug-cc-pvtz.gbs 
    atoms 2-3, 5-6 entry H          line    40 file /home/liuchw/anaconda3/envs/psi4env/share/psi4/basis/aug-cc-pvtz.gbs 


         ---------------------------------------------------------
                                   SCF
               by Justin Turney, Rob Parrish, Andy Simmonett
                          and Daniel G. A. Smith
                              RHF Reference
                        6 Threads,  38146 MiB Core
         ---------------------------------------------------------

  ==> Geometry <==

    Molecular point group: c1
    Full point group: C1

    Geometry (in Angstrom), charge = 0, multiplicity = 1:

       Center              X                  Y                   Z               Mass       
    ------------   -----------------  -----------------  -----------------  -----------------
         C            0.655781904992    -0.116792602738     2.010157542953    12.000000000000
         H            1.047242904992    -1.123911602738     2.005689542953     1.007825032230
         H            1.370855904992     0.693271397262     2.005656542953     1.007825032230
         C           -0.655774095008     0.116790397262     2.010166542953    12.000000000000
         H           -1.370846095008    -0.693274602738     2.005670542953     1.007825032230
         H           -1.047237095008     1.123909397262     2.005708542953     1.007825032230

  Running in c1 symmetry.

  Rotational constants: A =      0.83612  B =      0.14454  C =      0.12975 [cm^-1]
  Rotational constants: A =  25066.16768  B =   4333.23707  C =   3889.82774 [MHz]
  Nuclear repulsion =   33.430006272509992

  Charge       = 0
  Multiplicity = 1
  Electrons    = 16
  Nalpha       = 8
  Nbeta        = 8

  ==> Algorithm <==

  SCF Algorithm Type is DF.
  DIIS enabled.
  MOM disabled.
  Fractional occupation disabled.
  Guess Type is SAD.
  Energy threshold   = 1.00e-07
  Density threshold  = 1.00e-08
  Integral threshold = 0.00e+00

  ==> Primary Basis <==

  Basis Set: AUG-CC-PVTZ
    Blend: AUG-CC-PVTZ
    Number of shells: 64
    Number of basis function: 184
    Number of Cartesian functions: 210
    Spherical Harmonics?: true
    Max angular momentum: 3

   => Loading Basis Set <=

    Name: (AUG-CC-PVTZ AUX)
    Role: JKFIT
    Keyword: DF_BASIS_SCF
    atoms 1, 4     entry C          line   162 file /home/liuchw/anaconda3/envs/psi4env/share/psi4/basis/aug-cc-pvtz-jkfit.gbs 
    atoms 2-3, 5-6 entry H          line    70 file /home/liuchw/anaconda3/envs/psi4env/share/psi4/basis/aug-cc-pvtz-jkfit.gbs 

  ==> Pre-Iterations <==

   -------------------------------------------------------
    Irrep   Nso     Nmo     Nalpha   Nbeta   Ndocc  Nsocc
   -------------------------------------------------------
     A        184     184       0       0       0       0
   -------------------------------------------------------
    Total     184     184       8       8       8       0
   -------------------------------------------------------

  ==> Integral Setup <==

  DFHelper Memory: AOs need 0.108 GiB; user supplied 27.940 GiB. Using in-core AOs.

  ==> MemDFJK: Density-Fitted J/K Matrices <==

    J tasked:                   Yes
    K tasked:                   Yes
    wK tasked:                   No
    OpenMP threads:               6
    Memory [MiB]:             28610
    Algorithm:                 Core
    Schwarz Cutoff:           1E-12
    Mask sparsity (%):       0.0000
    Fitting Condition:        1E-10

   => Auxiliary Basis Set <=

  Basis Set: (AUG-CC-PVTZ AUX)
    Blend: AUG-CC-PVTZ-JKFIT
    Number of shells: 116
    Number of basis function: 392
    Number of Cartesian functions: 482
    Spherical Harmonics?: true
    Max angular momentum: 4

  Minimum eigenvalue in the overlap matrix is 4.7905925326E-06.
  Using Symmetric Orthogonalization.

  SCF Guess: Superposition of Atomic Densities via on-the-fly atomic UHF.

  ==> Iterations <==

                           Total Energy        Delta E     RMS |[F,P]|

   @DF-RHF iter SAD:   -77.27107703406712   -7.72711e+01   0.00000e+00 
   @DF-RHF iter   1:   -77.98488995908251   -7.13813e-01   2.02078e-03 DIIS
   @DF-RHF iter   2:   -78.05245021120700   -6.75603e-02   8.27954e-04 DIIS
   @DF-RHF iter   3:   -78.06415834060644   -1.17081e-02   1.25031e-04 DIIS
   @DF-RHF iter   4:   -78.06472349021425   -5.65150e-04   1.24521e-05 DIIS
   @DF-RHF iter   5:   -78.06472978355569   -6.29334e-06   1.48665e-06 DIIS
   @DF-RHF iter   6:   -78.06472988358003   -1.00024e-07   1.78908e-07 DIIS
   @DF-RHF iter   7:   -78.06472988484350   -1.26347e-09   3.01712e-08 DIIS
   @DF-RHF iter   8:   -78.06472988488326   -3.97620e-11   4.24698e-09 DIIS
  Energy and wave function converged.


  ==> Post-Iterations <==

    Orbital Energies [Eh]
    ---------------------

    Doubly Occupied:                                                      

       1A    -11.231210     2A    -11.229485     3A     -1.034876  
       4A     -0.793576     5A     -0.645098     6A     -0.587924  
       7A     -0.508672     8A     -0.377249  

    Virtual:                                                              

       9A      0.032476    10A      0.040667    11A      0.042353  
      12A      0.060351    13A      0.092059    14A      0.096644  
      15A      0.104958    16A      0.120181    17A      0.145848  
      18A      0.146974    19A      0.174154    20A      0.174709  
      21A      0.185963    22A      0.198847    23A      0.239743  
      24A      0.242268    25A      0.269138    26A      0.292370  
      27A      0.300698    28A      0.314595    29A      0.319069  
      30A      0.335695    31A      0.359768    32A      0.372741  
      33A      0.389295    34A      0.400316    35A      0.401385  
      36A      0.401676    37A      0.410806    38A      0.439107  
      39A      0.444273    40A      0.450127    41A      0.451390  
      42A      0.451550    43A      0.453170    44A      0.500981  
      45A      0.529992    46A      0.594558    47A      0.599892  
      48A      0.615986    49A      0.656476    50A      0.700716  
      51A      0.756600    52A      0.792692    53A      0.800471  
      54A      0.824320    55A      0.825881    56A      0.862277  
      57A      0.892501    58A      0.902687    59A      0.911678  
      60A      0.925621    61A      0.926374    62A      0.934607  
      63A      0.940337    64A      0.942192    65A      0.959395  
      66A      0.968232    67A      1.007636    68A      1.010640  
      69A      1.022694    70A      1.054849    71A      1.069765  
      72A      1.070826    73A      1.090846    74A      1.092695  
      75A      1.101476    76A      1.117997    77A      1.131849  
      78A      1.138044    79A      1.156568    80A      1.173926  
      81A      1.272248    82A      1.296518    83A      1.317728  
      84A      1.357435    85A      1.403002    86A      1.455581  
      87A      1.470653    88A      1.488537    89A      1.570198  
      90A      1.598585    91A      1.609864    92A      1.623405  
      93A      1.668995    94A      1.693160    95A      1.729363  
      96A      1.763397    97A      1.777756    98A      1.788733  
      99A      1.812049   100A      1.821406   101A      1.854132  
     102A      1.932297   103A      1.965154   104A      2.040182  
     105A      2.062391   106A      2.075471   107A      2.098911  
     108A      2.119905   109A      2.120724   110A      2.218040  
     111A      2.254558   112A      2.305872   113A      2.341512  
     114A      2.436066   115A      2.552868   116A      2.636536  
     117A      2.875384   118A      3.010885   119A      3.028386  
     120A      3.234881   121A      3.243435   122A      3.262763  
     123A      3.278800   124A      3.291705   125A      3.331827  
     126A      3.427545   127A      3.460315   128A      3.478077  
     129A      3.490801   130A      3.567961   131A      3.604081  
     132A      3.616927   133A      3.702466   134A      3.718659  
     135A      3.733177   136A      3.758792   137A      3.791406  
     138A      3.844763   139A      3.852359   140A      3.880353  
     141A      3.981840   142A      4.020901   143A      4.094020  
     144A      4.099554   145A      4.105323   146A      4.163784  
     147A      4.233761   148A      4.293682   149A      4.334563  
     150A      4.379266   151A      4.389540   152A      4.513343  
     153A      4.564246   154A      4.584259   155A      4.585969  
     156A      4.696921   157A      4.705119   158A      4.841065  
     159A      4.914373   160A      4.940595   161A      4.949377  
     162A      4.956257   163A      4.971733   164A      5.059322  
     165A      5.163900   166A      5.259445   167A      5.273031  
     168A      5.291720   169A      5.291823   170A      5.344361  
     171A      5.506346   172A      5.585315   173A      5.591085  
     174A      5.616773   175A      5.621623   176A      6.000074  
     177A      6.094804   178A      6.471966   179A      6.571873  
     180A      6.668627   181A      6.730691   182A      6.989128  
     183A     16.884801   184A     17.282177  

    Final Occupation by Irrep:
              A 
    DOCC [     8 ]

  @DF-RHF Final Energy:   -78.06472988488326

   => Energetics <=

    Nuclear Repulsion Energy =             33.4300062725099920
    One-Electron Energy =                -170.1732951115104413
    Two-Electron Energy =                  58.6785589541172001
    Total Energy =                        -78.0647298848832634

Computation Completed


Properties will be evaluated at   0.000000,   0.000000,   0.000000 [a0]

Properties computed using the SCF density matrix

  Nuclear Dipole Moment: [e a0]
     X:     0.0001      Y:    -0.0000      Z:    60.7446

  Electronic Dipole Moment: [e a0]
     X:    -0.0001      Y:     0.0000      Z:   -60.7501

  Dipole Moment: [e a0]
     X:    -0.0000      Y:    -0.0000      Z:    -0.0055     Total:     0.0055

  Dipole Moment: [D]
     X:    -0.0000      Y:    -0.0000      Z:    -0.0140     Total:     0.0140


*** tstop() called on node36.bme.utexas.edu at Sat Apr 11 17:43:28 2020
Module time:
	user time   =       8.42 seconds =       0.14 minutes
	system time =       0.48 seconds =       0.01 minutes
	total time  =          2 seconds =       0.03 minutes
Total time:
	user time   =       8.42 seconds =       0.14 minutes
	system time =       0.48 seconds =       0.01 minutes
	total time  =          2 seconds =       0.03 minutes

*** tstart() called on node36.bme.utexas.edu
*** at Sat Apr 11 17:43:28 2020


  //>>>>>>>>>>>>>>>>>>>>>>>>>>>>>>>>>>>//
  //               DFMP2               //
  //<<<<<<<<<<<<<<<<<<<<<<<<<<<<<<<<<<<//

   => Loading Basis Set <=

    Name: (AUG-CC-PVTZ AUX)
    Role: RIFIT
    Keyword: DF_BASIS_MP2
    atoms 1, 4     entry C          line   148 file /home/liuchw/anaconda3/envs/psi4env/share/psi4/basis/aug-cc-pvtz-ri.gbs 
    atoms 2-3, 5-6 entry H          line    30 file /home/liuchw/anaconda3/envs/psi4env/share/psi4/basis/aug-cc-pvtz-ri.gbs 

	 --------------------------------------------------------
	                          DF-MP2                         
	      2nd-Order Density-Fitted Moller-Plesset Theory     
	              RMP2 Wavefunction,   6 Threads             
	                                                         
	        Rob Parrish, Justin Turney, Andy Simmonett,      
	           Ed Hohenstein, and C. David Sherrill          
	 --------------------------------------------------------

   => Auxiliary Basis Set <=

  Basis Set: (AUG-CC-PVTZ AUX)
    Blend: AUG-CC-PVTZ-RI
    Number of shells: 112
    Number of basis function: 396
    Number of Cartesian functions: 492
    Spherical Harmonics?: true
    Max angular momentum: 4

	 --------------------------------------------------------
	                 NBF =   184, NAUX =   396
	 --------------------------------------------------------
	   CLASS    FOCC     OCC    AOCC    AVIR     VIR    FVIR
	   PAIRS       0       8       8     176     176       0
	 --------------------------------------------------------

	-----------------------------------------------------------
	 ==================> DF-MP2 Energies <==================== 
	-----------------------------------------------------------
	 Reference Energy          =     -78.0647298848832634 [Eh]
	 Singles Energy            =      -0.0000000000000000 [Eh]
	 Same-Spin Energy          =      -0.0765550419782643 [Eh]
	 Opposite-Spin Energy      =      -0.2985538469672133 [Eh]
	 Correlation Energy        =      -0.3751088889454776 [Eh]
	 Total Energy              =     -78.4398387738287397 [Eh]
	-----------------------------------------------------------
	 ================> DF-SCS-MP2 Energies <================== 
	-----------------------------------------------------------
	 SCS Same-Spin Scale       =       0.3333333333333333 [-]
	 SCS Opposite-Spin Scale   =       1.2000000000000000 [-]
	 SCS Same-Spin Energy      =      -0.0255183473260881 [Eh]
	 SCS Opposite-Spin Energy  =      -0.3582646163606560 [Eh]
	 SCS Correlation Energy    =      -0.3837829636867441 [Eh]
	 SCS Total Energy          =     -78.4485128485700045 [Eh]
	-----------------------------------------------------------


*** tstop() called on node36.bme.utexas.edu at Sat Apr 11 17:43:29 2020
Module time:
	user time   =       4.04 seconds =       0.07 minutes
	system time =       0.22 seconds =       0.00 minutes
	total time  =          1 seconds =       0.02 minutes
Total time:
	user time   =      12.47 seconds =       0.21 minutes
	system time =       0.70 seconds =       0.01 minutes
	total time  =          3 seconds =       0.05 minutes

  //>>>>>>>>>>>>>>>>>>>>>>>>>>>>>>>>>>>>//
  // CBS Computation: MP2 / AUG-CC-PVQZ //
  //<<<<<<<<<<<<<<<<<<<<<<<<<<<<<<<<<<<<//


Scratch directory: /scratch//

*** tstart() called on node36.bme.utexas.edu
*** at Sat Apr 11 17:43:29 2020

   => Loading Basis Set <=

    Name: AUG-CC-PVQZ
    Role: ORBITAL
    Keyword: BASIS
    atoms 1, 4     entry C          line   303 file /home/liuchw/anaconda3/envs/psi4env/share/psi4/basis/aug-cc-pvqz.gbs 
    atoms 2-3, 5-6 entry H          line    40 file /home/liuchw/anaconda3/envs/psi4env/share/psi4/basis/aug-cc-pvqz.gbs 


         ---------------------------------------------------------
                                   SCF
               by Justin Turney, Rob Parrish, Andy Simmonett
                          and Daniel G. A. Smith
                              RHF Reference
                        6 Threads,  38146 MiB Core
         ---------------------------------------------------------

  ==> Geometry <==

    Molecular point group: c1
    Full point group: C1

    Geometry (in Angstrom), charge = 0, multiplicity = 1:

       Center              X                  Y                   Z               Mass       
    ------------   -----------------  -----------------  -----------------  -----------------
         C            0.655781904992    -0.116792602738     2.010157542953    12.000000000000
         H            1.047242904992    -1.123911602738     2.005689542953     1.007825032230
         H            1.370855904992     0.693271397262     2.005656542953     1.007825032230
         C           -0.655774095008     0.116790397262     2.010166542953    12.000000000000
         H           -1.370846095008    -0.693274602738     2.005670542953     1.007825032230
         H           -1.047237095008     1.123909397262     2.005708542953     1.007825032230

  Running in c1 symmetry.

  Rotational constants: A =      0.83612  B =      0.14454  C =      0.12975 [cm^-1]
  Rotational constants: A =  25066.16768  B =   4333.23707  C =   3889.82774 [MHz]
  Nuclear repulsion =   33.430006272509992

  Charge       = 0
  Multiplicity = 1
  Electrons    = 16
  Nalpha       = 8
  Nbeta        = 8

  ==> Algorithm <==

  SCF Algorithm Type is DF.
  DIIS enabled.
  MOM disabled.
  Fractional occupation disabled.
  Guess Type is SAD.
  Energy threshold   = 1.00e-07
  Density threshold  = 1.00e-08
  Integral threshold = 0.00e+00

  ==> Primary Basis <==

  Basis Set: AUG-CC-PVQZ
    Blend: AUG-CC-PVQZ
    Number of shells: 96
    Number of basis function: 344
    Number of Cartesian functions: 430
    Spherical Harmonics?: true
    Max angular momentum: 4

   => Loading Basis Set <=

    Name: (AUG-CC-PVQZ AUX)
    Role: JKFIT
    Keyword: DF_BASIS_SCF
    atoms 1, 4     entry C          line   178 file /home/liuchw/anaconda3/envs/psi4env/share/psi4/basis/aug-cc-pvqz-jkfit.gbs 
    atoms 2-3, 5-6 entry H          line    70 file /home/liuchw/anaconda3/envs/psi4env/share/psi4/basis/aug-cc-pvqz-jkfit.gbs 

  ==> Pre-Iterations <==

   -------------------------------------------------------
    Irrep   Nso     Nmo     Nalpha   Nbeta   Ndocc  Nsocc
   -------------------------------------------------------
     A        344     344       0       0       0       0
   -------------------------------------------------------
    Total     344     344       8       8       8       0
   -------------------------------------------------------

  ==> Integral Setup <==

  DFHelper Memory: AOs need 0.554 GiB; user supplied 27.940 GiB. Using in-core AOs.

  ==> MemDFJK: Density-Fitted J/K Matrices <==

    J tasked:                   Yes
    K tasked:                   Yes
    wK tasked:                   No
    OpenMP threads:               6
    Memory [MiB]:             28610
    Algorithm:                 Core
    Schwarz Cutoff:           1E-12
    Mask sparsity (%):       0.2839
    Fitting Condition:        1E-10

   => Auxiliary Basis Set <=

  Basis Set: (AUG-CC-PVQZ AUX)
    Blend: AUG-CC-PVQZ-JKFIT
    Number of shells: 140
    Number of basis function: 588
    Number of Cartesian functions: 800
    Spherical Harmonics?: true
    Max angular momentum: 5

  Minimum eigenvalue in the overlap matrix is 2.8290222492E-06.
  Using Symmetric Orthogonalization.

  SCF Guess: Superposition of Atomic Densities via on-the-fly atomic UHF.

  ==> Iterations <==

                           Total Energy        Delta E     RMS |[F,P]|

   @DF-RHF iter SAD:   -77.27489052447861   -7.72749e+01   0.00000e+00 
   @DF-RHF iter   1:   -77.98916379724635   -7.14273e-01   1.08764e-03 DIIS
   @DF-RHF iter   2:   -78.05701898795316   -6.78552e-02   4.46616e-04 DIIS
   @DF-RHF iter   3:   -78.06886568043889   -1.18467e-02   6.76280e-05 DIIS
   @DF-RHF iter   4:   -78.06943726131593   -5.71581e-04   6.76175e-06 DIIS
   @DF-RHF iter   5:   -78.06944382583140   -6.56452e-06   8.52933e-07 DIIS
   @DF-RHF iter   6:   -78.06944393796634   -1.12135e-07   1.00146e-07 DIIS
   @DF-RHF iter   7:   -78.06944393935770   -1.39136e-09   1.68235e-08 DIIS
   @DF-RHF iter   8:   -78.06944393939922   -4.15241e-11   2.58721e-09 DIIS
  Energy and wave function converged.


  ==> Post-Iterations <==

    Orbital Energies [Eh]
    ---------------------

    Doubly Occupied:                                                      

       1A    -11.230114     2A    -11.228387     3A     -1.034618  
       4A     -0.793515     5A     -0.645157     6A     -0.588004  
       7A     -0.508841     8A     -0.377399  

    Virtual:                                                              

       9A      0.029225    10A      0.036287    11A      0.038251  
      12A      0.052890    13A      0.081203    14A      0.082478  
      15A      0.089546    16A      0.105540    17A      0.130073  
      18A      0.130571    19A      0.145558    20A      0.155475  
      21A      0.161291    22A      0.176139    23A      0.200406  
      24A      0.210580    25A      0.238974    26A      0.246933  
      27A      0.252665    28A      0.253348    29A      0.267639  
      30A      0.273353    31A      0.278913    32A      0.302612  
      33A      0.316979    34A      0.321900    35A      0.323724  
      36A      0.335958    37A      0.340963    38A      0.343167  
      39A      0.358580    40A      0.359955    41A      0.360041  
      42A      0.371521    43A      0.398226    44A      0.411609  
      45A      0.444423    46A      0.452971    47A      0.468307  
      48A      0.515849    49A      0.518387    50A      0.531874  
      51A      0.540837    52A      0.569688    53A      0.583156  
      54A      0.590717    55A      0.618164    56A      0.622555  
      57A      0.628317    58A      0.679416    59A      0.696938  
      60A      0.697148    61A      0.706471    62A      0.713078  
      63A      0.718705    64A      0.720609    65A      0.723042  
      66A      0.728860    67A      0.738338    68A      0.764497  
      69A      0.769649    70A      0.793629    71A      0.833488  
      72A      0.839841    73A      0.850677    74A      0.852461  
      75A      0.856475    76A      0.874478    77A      0.877828  
      78A      0.878220    79A      0.889326    80A      0.953935  
      81A      0.963867    82A      0.989900    83A      1.015537  
      84A      1.023147    85A      1.038987    86A      1.047249  
      87A      1.079019    88A      1.124948    89A      1.129703  
      90A      1.181881    91A      1.182681    92A      1.193683  
      93A      1.197110    94A      1.228483    95A      1.234802  
      96A      1.280614    97A      1.290878    98A      1.300255  
      99A      1.302704   100A      1.311189   101A      1.328086  
     102A      1.340622   103A      1.402499   104A      1.435100  
     105A      1.451357   106A      1.477659   107A      1.500648  
     108A      1.502074   109A      1.542105   110A      1.543093  
     111A      1.602423   112A      1.607656   113A      1.665164  
     114A      1.684148   115A      1.709850   116A      1.720549  
     117A      1.722190   118A      1.726026   119A      1.797050  
     120A      1.807887   121A      1.811388   122A      1.826110  
     123A      1.840157   124A      1.876118   125A      1.886171  
     126A      1.950572   127A      1.955098   128A      1.957465  
     129A      1.983421   130A      1.996492   131A      2.001270  
     132A      2.013638   133A      2.046830   134A      2.074514  
     135A      2.077694   136A      2.084649   137A      2.085836  
     138A      2.103442   139A      2.122645   140A      2.123254  
     141A      2.138263   142A      2.138559   143A      2.195779  
     144A      2.210823   145A      2.252669   146A      2.272455  
     147A      2.273021   148A      2.279804   149A      2.322524  
     150A      2.355814   151A      2.375980   152A      2.384448  
     153A      2.395324   154A      2.405428   155A      2.408049  
     156A      2.431660   157A      2.441554   158A      2.453584  
     159A      2.453735   160A      2.486520   161A      2.520292  
     162A      2.532286   163A      2.540892   164A      2.575751  
     165A      2.647442   166A      2.651338   167A      2.699051  
     168A      2.702921   169A      2.723226   170A      2.729220  
     171A      2.815384   172A      2.816881   173A      2.860862  
     174A      2.873752   175A      2.900220   176A      2.913922  
     177A      2.952905   178A      2.960975   179A      2.987819  
     180A      3.025881   181A      3.043328   182A      3.053711  
     183A      3.098950   184A      3.139928   185A      3.189956  
     186A      3.315573   187A      3.316792   188A      3.378639  
     189A      3.403939   190A      3.465917   191A      3.635347  
     192A      3.649029   193A      3.651864   194A      3.669057  
     195A      3.688407   196A      3.726861   197A      3.742514  
     198A      3.777993   199A      3.792686   200A      3.842404  
     201A      3.874445   202A      3.875308   203A      3.954712  
     204A      3.970499   205A      4.010637   206A      4.021105  
     207A      4.044214   208A      4.106364   209A      4.173456  
     210A      4.203818   211A      4.230293   212A      4.265061  
     213A      4.319585   214A      4.399410   215A      4.402409  
     216A      4.402633   217A      4.490678   218A      4.495923  
     219A      4.527481   220A      4.564387   221A      4.591499  
     222A      4.670692   223A      4.754356   224A      4.809524  
     225A      4.869895   226A      5.027794   227A      5.093915  
     228A      5.178689   229A      5.202718   230A      5.414286  
     231A      5.815970   232A      5.866739   233A      5.899310  
     234A      5.964710   235A      5.979655   236A      5.995401  
     237A      6.017714   238A      6.031978   239A      6.259643  
     240A      6.262795   241A      6.282489   242A      6.302644  
     243A      6.343700   244A      6.436384   245A      6.442504  
     246A      6.457569   247A      6.505288   248A      6.530021  
     249A      6.603974   250A      6.613209   251A      6.629986  
     252A      6.678403   253A      6.689725   254A      6.722215  
     255A      6.751321   256A      6.819822   257A      6.856320  
     258A      6.892310   259A      6.955046   260A      6.984600  
     261A      7.003473   262A      7.005116   263A      7.073137  
     264A      7.075964   265A      7.119051   266A      7.183286  
     267A      7.265105   268A      7.291518   269A      7.292113  
     270A      7.298845   271A      7.333807   272A      7.430657  
     273A      7.457550   274A      7.466278   275A      7.633993  
     276A      7.644635   277A      7.747418   278A      7.752294  
     279A      7.762272   280A      7.894624   281A      7.935456  
     282A      7.996243   283A      8.012359   284A      8.016711  
     285A      8.167341   286A      8.277117   287A      8.284583  
     288A      8.310339   289A      8.408155   290A      8.427436  
     291A      8.506655   292A      8.555232   293A      8.583403  
     294A      8.714173   295A      8.718709   296A      8.762886  
     297A      8.819825   298A      8.848564   299A      8.876359  
     300A      8.923390   301A      8.926317   302A      9.080149  
     303A      9.093515   304A      9.128928   305A      9.154524  
     306A      9.219486   307A      9.265681   308A      9.445914  
     309A      9.499986   310A      9.531473   311A      9.538395  
     312A      9.638556   313A      9.663780   314A      9.715967  
     315A      9.762836   316A      9.767495   317A      9.806054  
     318A      9.941116   319A      9.980811   320A      9.984431  
     321A     10.159271   322A     10.244168   323A     10.246567  
     324A     10.272552   325A     10.286514   326A     10.483915  
     327A     10.515166   328A     10.556633   329A     10.601403  
     330A     10.693900   331A     10.703286   332A     10.848272  
     333A     11.050487   334A     11.123918   335A     11.437756  
     336A     11.454365   337A     11.732692   338A     12.269459  
     339A     12.867691   340A     12.980601   341A     13.241361  
     342A     13.641781   343A     26.723591   344A     27.001749  

    Final Occupation by Irrep:
              A 
    DOCC [     8 ]

  @DF-RHF Final Energy:   -78.06944393939922

   => Energetics <=

    Nuclear Repulsion Energy =             33.4300062725099920
    One-Electron Energy =                -170.1868283989631720
    Two-Electron Energy =                  58.6873781870539659
    Total Energy =                        -78.0694439393992212

Computation Completed


Properties will be evaluated at   0.000000,   0.000000,   0.000000 [a0]

Properties computed using the SCF density matrix

  Nuclear Dipole Moment: [e a0]
     X:     0.0001      Y:    -0.0000      Z:    60.7446

  Electronic Dipole Moment: [e a0]
     X:    -0.0001      Y:     0.0000      Z:   -60.7501

  Dipole Moment: [e a0]
     X:    -0.0000      Y:    -0.0000      Z:    -0.0055     Total:     0.0055

  Dipole Moment: [D]
     X:    -0.0000      Y:    -0.0000      Z:    -0.0139     Total:     0.0139


*** tstop() called on node36.bme.utexas.edu at Sat Apr 11 17:43:33 2020
Module time:
	user time   =      22.65 seconds =       0.38 minutes
	system time =       1.00 seconds =       0.02 minutes
	total time  =          4 seconds =       0.07 minutes
Total time:
	user time   =      35.16 seconds =       0.59 minutes
	system time =       1.70 seconds =       0.03 minutes
	total time  =          7 seconds =       0.12 minutes

*** tstart() called on node36.bme.utexas.edu
*** at Sat Apr 11 17:43:33 2020


  //>>>>>>>>>>>>>>>>>>>>>>>>>>>>>>>>>>>//
  //               DFMP2               //
  //<<<<<<<<<<<<<<<<<<<<<<<<<<<<<<<<<<<//

   => Loading Basis Set <=

    Name: (AUG-CC-PVQZ AUX)
    Role: RIFIT
    Keyword: DF_BASIS_MP2
    atoms 1, 4     entry C          line   184 file /home/liuchw/anaconda3/envs/psi4env/share/psi4/basis/aug-cc-pvqz-ri.gbs 
    atoms 2-3, 5-6 entry H          line    30 file /home/liuchw/anaconda3/envs/psi4env/share/psi4/basis/aug-cc-pvqz-ri.gbs 

	 --------------------------------------------------------
	                          DF-MP2                         
	      2nd-Order Density-Fitted Moller-Plesset Theory     
	              RMP2 Wavefunction,   6 Threads             
	                                                         
	        Rob Parrish, Justin Turney, Andy Simmonett,      
	           Ed Hohenstein, and C. David Sherrill          
	 --------------------------------------------------------

   => Auxiliary Basis Set <=

  Basis Set: (AUG-CC-PVQZ AUX)
    Blend: AUG-CC-PVQZ-RI
    Number of shells: 152
    Number of basis function: 656
    Number of Cartesian functions: 894
    Spherical Harmonics?: true
    Max angular momentum: 5

	 --------------------------------------------------------
	                 NBF =   344, NAUX =   656
	 --------------------------------------------------------
	   CLASS    FOCC     OCC    AOCC    AVIR     VIR    FVIR
	   PAIRS       0       8       8     336     336       0
	 --------------------------------------------------------

	-----------------------------------------------------------
	 ==================> DF-MP2 Energies <==================== 
	-----------------------------------------------------------
	 Reference Energy          =     -78.0694439393992212 [Eh]
	 Singles Energy            =      -0.0000000000000000 [Eh]
	 Same-Spin Energy          =      -0.0813839982359890 [Eh]
	 Opposite-Spin Energy      =      -0.3338739371907354 [Eh]
	 Correlation Energy        =      -0.4152579354267243 [Eh]
	 Total Energy              =     -78.4847018748259444 [Eh]
	-----------------------------------------------------------
	 ================> DF-SCS-MP2 Energies <================== 
	-----------------------------------------------------------
	 SCS Same-Spin Scale       =       0.3333333333333333 [-]
	 SCS Opposite-Spin Scale   =       1.2000000000000000 [-]
	 SCS Same-Spin Energy      =      -0.0271279994119963 [Eh]
	 SCS Opposite-Spin Energy  =      -0.4006487246288825 [Eh]
	 SCS Correlation Energy    =      -0.4277767240408788 [Eh]
	 SCS Total Energy          =     -78.4972206634401033 [Eh]
	-----------------------------------------------------------


*** tstop() called on node36.bme.utexas.edu at Sat Apr 11 17:43:36 2020
Module time:
	user time   =      10.62 seconds =       0.18 minutes
	system time =       0.46 seconds =       0.01 minutes
	total time  =          3 seconds =       0.05 minutes
Total time:
	user time   =      45.78 seconds =       0.76 minutes
	system time =       2.16 seconds =       0.04 minutes
	total time  =         10 seconds =       0.17 minutes

  //>>>>>>>>>>>>>>>>>>>>>>>>>>>>>>>>>>>//
  //  CBS Results: mp2/aug-cc-pv[tq]z  //
  //<<<<<<<<<<<<<<<<<<<<<<<<<<<<<<<<<<<//


   ==> HF <==

   HI-zeta (4) Energy:               -78.069443939399


   ==> Helgaker 2-point correlated extrapolation for method: MP2 <==

   LO-zeta (3) Energy:               -78.439838773829
   HI-zeta (4) Energy:               -78.484701874826
   Alpha (exponent) Value:             3.000000000000
   Extrapolated Energy:              -78.517439813391

   @Extrapolated MP2/(T,Q):          -78.517439813391



   ==> Helgaker 2-point correlated extrapolation for method: HF <==

   LO-zeta (3) Energy:               -78.064729884883
   HI-zeta (4) Energy:               -78.069443939399
   Alpha (exponent) Value:             3.000000000000
   Extrapolated Energy:              -78.072883925127

   @Extrapolated HF/(T,Q):           -78.072883925127


   ==> Components <==

  ---------------------------------------------------------------------------------------------------------
                          Method / Basis                      Rqd      Energy [Eh]   Variable
  ---------------------------------------------------------------------------------------------------------
                              hf / aug-cc-pvtz                  *     -78.06472988   HF TOTAL ENERGY
                             mp2 / aug-cc-pvtz                  *     -78.43983877   MP2 TOTAL ENERGY
                              hf / aug-cc-pvqz                  *     -78.06944394   HF TOTAL ENERGY
                             mp2 / aug-cc-pvqz                  *     -78.48470187   MP2 TOTAL ENERGY
  ---------------------------------------------------------------------------------------------------------

   ==> Stages <==

  ---------------------------------------------------------------------------------------------------------
      Stage               Method / Basis                       Wt      Energy [Eh]   Scheme
  ---------------------------------------------------------------------------------------------------------
        scf                   hf / aug-cc-pvqz                  1     -78.06944394   xtpl_highest_1
       corl                  mp2 / aug-cc-pv[tq]z               1     -78.51743981   corl_xtpl_helgaker_2
       corl                   hf / aug-cc-pv[tq]z              -1     -78.07288393   corl_xtpl_helgaker_2
  ---------------------------------------------------------------------------------------------------------

   ==> CBS <==

  ---------------------------------------------------------------------------------------------------------
      Stage               Method / Basis                               Energy [Eh]   Scheme
  ---------------------------------------------------------------------------------------------------------
        scf                   hf / aug-cc-pvqz                        -78.06944394   xtpl_highest_1
       corl                  mp2 / aug-cc-pv[tq]z                      -0.44455589   corl_xtpl_helgaker_2
      total                  CBS                                      -78.51399983   
  ---------------------------------------------------------------------------------------------------------
   => Loading Basis Set <=

    Name: DEF2-SVP
    Role: ORBITAL
    Keyword: BASIS
    atoms 1, 4     entry C          line    90 file /home/liuchw/anaconda3/envs/psi4env/share/psi4/basis/def2-svp.gbs 
    atoms 2-3, 5-6 entry H          line    15 file /home/liuchw/anaconda3/envs/psi4env/share/psi4/basis/def2-svp.gbs 


       N-Body: Complex Energy (fragments = (2,), basis = (2,):   -78.51399982766361)

       N-Body: Computing complex (2/4) with fragments (2,) in the basis of fragments (1, 2).


Scratch directory: /scratch//

  //>>>>>>>>>>>>>>>>>>>>>>>>>>>>>>>>>>>//
  //   CBS Setup: mp2/aug-cc-pv[tq]z   //
  //<<<<<<<<<<<<<<<<<<<<<<<<<<<<<<<<<<<//

    Naive listing of computations required.
             hf / aug-cc-pvqz              for  HF TOTAL ENERGY
            mp2 / aug-cc-pvtz              for  MP2 TOTAL ENERGY
            mp2 / aug-cc-pvqz              for  MP2 TOTAL ENERGY
             hf / aug-cc-pvtz              for  HF TOTAL ENERGY
             hf / aug-cc-pvqz              for  HF TOTAL ENERGY

    Enlightened listing of computations required.
            mp2 / aug-cc-pvtz              for  MP2 TOTAL ENERGY
            mp2 / aug-cc-pvqz              for  MP2 TOTAL ENERGY

    Full listing of computations to be obtained (required and bonus).
             hf / aug-cc-pvtz              for  HF TOTAL ENERGY
            mp2 / aug-cc-pvtz              for  MP2 TOTAL ENERGY
             hf / aug-cc-pvqz              for  HF TOTAL ENERGY
            mp2 / aug-cc-pvqz              for  MP2 TOTAL ENERGY

  //>>>>>>>>>>>>>>>>>>>>>>>>>>>>>>>>>>>>//
  // CBS Computation: MP2 / AUG-CC-PVTZ //
  //<<<<<<<<<<<<<<<<<<<<<<<<<<<<<<<<<<<<//


Scratch directory: /scratch//

*** tstart() called on node36.bme.utexas.edu
*** at Sat Apr 11 17:43:37 2020

   => Loading Basis Set <=

    Name: AUG-CC-PVTZ
    Role: ORBITAL
    Keyword: BASIS
    atoms 1, 3, 5, 7, 9, 11, 13, 16        entry C          line   239 file /home/liuchw/anaconda3/envs/psi4env/share/psi4/basis/aug-cc-pvtz.gbs 
    atoms 2, 4, 6, 8, 10, 12, 14-15, 17-18 entry H          line    40 file /home/liuchw/anaconda3/envs/psi4env/share/psi4/basis/aug-cc-pvtz.gbs 


         ---------------------------------------------------------
                                   SCF
               by Justin Turney, Rob Parrish, Andy Simmonett
                          and Daniel G. A. Smith
                              RHF Reference
                        6 Threads,  38146 MiB Core
         ---------------------------------------------------------

  ==> Geometry <==

    Molecular point group: c1
    Full point group: C1

    Geometry (in Angstrom), charge = 0, multiplicity = 1:

       Center              X                  Y                   Z               Mass       
    ------------   -----------------  -----------------  -----------------  -----------------
      Gh(C)           0.835519904992     1.115164397262    -0.722494457047    12.000000000000
      Gh(H)           1.484326904992     1.980606397262    -0.724361457047     1.007825032230
      Gh(C)           1.383277904992    -0.166149602738    -0.720130457047    12.000000000000
      Gh(H)           2.457151904992    -0.295207602738    -0.721124457047     1.007825032230
      Gh(C)           0.547557904992    -1.281318602738    -0.722209457047    12.000000000000
      Gh(H)           0.972938904992    -2.275807602738    -0.724116457047     1.007825032230
      Gh(C)          -0.835520095008    -1.115164602738    -0.722496457047    12.000000000000
      Gh(H)          -1.484331095008    -1.980608602738    -0.724365457047     1.007825032230
      Gh(C)          -1.383281095008     0.166151397262    -0.720137457047    12.000000000000
      Gh(H)          -2.457153095008     0.295206397262    -0.721138457047     1.007825032230
      Gh(C)          -0.547563095008     1.281320397262    -0.722215457047    12.000000000000
      Gh(H)          -0.972940095008     2.275802397262    -0.724126457047     1.007825032230
         C            0.655781904992    -0.116792602738     2.010157542953    12.000000000000
         H            1.047242904992    -1.123911602738     2.005689542953     1.007825032230
         H            1.370855904992     0.693271397262     2.005656542953     1.007825032230
         C           -0.655774095008     0.116790397262     2.010166542953    12.000000000000
         H           -1.370846095008    -0.693274602738     2.005670542953     1.007825032230
         H           -1.047237095008     1.123909397262     2.005708542953     1.007825032230

  Running in c1 symmetry.

  Rotational constants: A =      0.08558  B =      0.06861  C =      0.06510 [cm^-1]
  Rotational constants: A =   2565.54104  B =   2056.73664  C =   1951.50659 [MHz]
  Nuclear repulsion =   33.430006272509992

  Charge       = 0
  Multiplicity = 1
  Electrons    = 16
  Nalpha       = 8
  Nbeta        = 8

  ==> Algorithm <==

  SCF Algorithm Type is DF.
  DIIS enabled.
  MOM disabled.
  Fractional occupation disabled.
  Guess Type is SAD.
  Energy threshold   = 1.00e-07
  Density threshold  = 1.00e-08
  Integral threshold = 0.00e+00

  ==> Primary Basis <==

  Basis Set: AUG-CC-PVTZ
    Blend: AUG-CC-PVTZ
    Number of shells: 202
    Number of basis function: 598
    Number of Cartesian functions: 690
    Spherical Harmonics?: true
    Max angular momentum: 3

   => Loading Basis Set <=

    Name: (AUG-CC-PVTZ AUX)
    Role: JKFIT
    Keyword: DF_BASIS_SCF
    atoms 1, 3, 5, 7, 9, 11, 13, 16        entry C          line   162 file /home/liuchw/anaconda3/envs/psi4env/share/psi4/basis/aug-cc-pvtz-jkfit.gbs 
    atoms 2, 4, 6, 8, 10, 12, 14-15, 17-18 entry H          line    70 file /home/liuchw/anaconda3/envs/psi4env/share/psi4/basis/aug-cc-pvtz-jkfit.gbs 

  ==> Pre-Iterations <==

   -------------------------------------------------------
    Irrep   Nso     Nmo     Nalpha   Nbeta   Ndocc  Nsocc
   -------------------------------------------------------
     A        598     598       0       0       0       0
   -------------------------------------------------------
    Total     598     598       8       8       8       0
   -------------------------------------------------------

  ==> Integral Setup <==

  DFHelper Memory: AOs need 3.494 GiB; user supplied 27.940 GiB. Using in-core AOs.

  ==> MemDFJK: Density-Fitted J/K Matrices <==

    J tasked:                   Yes
    K tasked:                   Yes
    wK tasked:                   No
    OpenMP threads:               6
    Memory [MiB]:             28610
    Algorithm:                 Core
    Schwarz Cutoff:           1E-12
    Mask sparsity (%):       1.4122
    Fitting Condition:        1E-10

   => Auxiliary Basis Set <=

  Basis Set: (AUG-CC-PVTZ AUX)
    Blend: AUG-CC-PVTZ-JKFIT
    Number of shells: 380
    Number of basis function: 1292
    Number of Cartesian functions: 1598
    Spherical Harmonics?: true
    Max angular momentum: 4

  Minimum eigenvalue in the overlap matrix is 2.4086899981E-07.
  Using Symmetric Orthogonalization.

  SCF Guess: Superposition of Atomic Densities via on-the-fly atomic UHF.

  ==> Iterations <==

                           Total Energy        Delta E     RMS |[F,P]|

   @DF-RHF iter SAD:   -77.27107812780969   -7.72711e+01   0.00000e+00 
   @DF-RHF iter   1:   -77.98497998978938   -7.13902e-01   6.21905e-04 DIIS
   @DF-RHF iter   2:   -78.05256325732861   -6.75833e-02   2.54818e-04 DIIS
   @DF-RHF iter   3:   -78.06427765750004   -1.17144e-02   3.84833e-05 DIIS
   @DF-RHF iter   4:   -78.06484298880126   -5.65331e-04   3.84102e-06 DIIS
   @DF-RHF iter   5:   -78.06484934578059   -6.35698e-06   4.60959e-07 DIIS
   @DF-RHF iter   6:   -78.06484944694670   -1.01166e-07   5.52447e-08 DIIS
   @DF-RHF iter   7:   -78.06484944820892   -1.26222e-09   9.32759e-09 DIIS
  Energy and wave function converged.


  ==> Post-Iterations <==

    Orbital Energies [Eh]
    ---------------------

    Doubly Occupied:                                                      

       1A    -11.231139     2A    -11.229415     3A     -1.034825  
       4A     -0.793522     5A     -0.645030     6A     -0.587869  
       7A     -0.508610     8A     -0.377253  

    Virtual:                                                              

       9A      0.022566    10A      0.031192    11A      0.031636  
      12A      0.043440    13A      0.047527    14A      0.047720  
      15A      0.051794    16A      0.056092    17A      0.065037  
      18A      0.074418    19A      0.077175    20A      0.093784  
      21A      0.094794    22A      0.096581    23A      0.105962  
      24A      0.115093    25A      0.116415    26A      0.120010  
      27A      0.121470    28A      0.121984    29A      0.122109  
      30A      0.123822    31A      0.149600    32A      0.152371  
      33A      0.152567    34A      0.152913    35A      0.156359  
      36A      0.156678    37A      0.157198    38A      0.157402  
      39A      0.164782    40A      0.170470    41A      0.171771  
      42A      0.171804    43A      0.185805    44A      0.196767  
      45A      0.197861    46A      0.207773    47A      0.231430  
      48A      0.232748    49A      0.233959    50A      0.239061  
      51A      0.239590    52A      0.253895    53A      0.254041  
      54A      0.279357    55A      0.280168    56A      0.282506  
      57A      0.305747    58A      0.308464    59A      0.313660  
      60A      0.316330    61A      0.322038    62A      0.325742  
      63A      0.326084    64A      0.329975    65A      0.344177  
      66A      0.346409    67A      0.346861    68A      0.355217  
      69A      0.356663    70A      0.362996    71A      0.372497  
      72A      0.373727    73A      0.376370    74A      0.387672  
      75A      0.389001    76A      0.390697    77A      0.399236  
      78A      0.401861    79A      0.404473    80A      0.409824  
      81A      0.413693    82A      0.416086    83A      0.423201  
      84A      0.431411    85A      0.432782    86A      0.437676  
      87A      0.456416    88A      0.464478    89A      0.467055  
      90A      0.468194    91A      0.480503    92A      0.481237  
      93A      0.482185    94A      0.490123    95A      0.491791  
      96A      0.497044    97A      0.509308    98A      0.510185  
      99A      0.510833   100A      0.517558   101A      0.520962  
     102A      0.537616   103A      0.550119   104A      0.562156  
     105A      0.568282   106A      0.573554   107A      0.576832  
     108A      0.577108   109A      0.580989   110A      0.593271  
     111A      0.595542   112A      0.595866   113A      0.612393  
     114A      0.615912   115A      0.621591   116A      0.623937  
     117A      0.629080   118A      0.631422   119A      0.634853  
     120A      0.640634   121A      0.645681   122A      0.656287  
     123A      0.674030   124A      0.679252   125A      0.692524  
     126A      0.693503   127A      0.702580   128A      0.703453  
     129A      0.709805   130A      0.717157   131A      0.717827  
     132A      0.721867   133A      0.725091   134A      0.727530  
     135A      0.732307   136A      0.732711   137A      0.736213  
     138A      0.743476   139A      0.768985   140A      0.769666  
     141A      0.772522   142A      0.787747   143A      0.794818  
     144A      0.800724   145A      0.803032   146A      0.806138  
     147A      0.831333   148A      0.835804   149A      0.851559  
     150A      0.853085   151A      0.858415   152A      0.878069  
     153A      0.881975   154A      0.884856   155A      0.887127  
     156A      0.906573   157A      0.908973   158A      0.923466  
     159A      0.931055   160A      0.936845   161A      0.940385  
     162A      0.960070   163A      0.967714   164A      0.970408  
     165A      0.983720   166A      0.983942   167A      0.994577  
     168A      1.002649   169A      1.015011   170A      1.025185  
     171A      1.028515   172A      1.046849   173A      1.051268  
     174A      1.072026   175A      1.076346   176A      1.077136  
     177A      1.078361   178A      1.086143   179A      1.097258  
     180A      1.103010   181A      1.104969   182A      1.119811  
     183A      1.131825   184A      1.132551   185A      1.139683  
     186A      1.142405   187A      1.150471   188A      1.160809  
     189A      1.165419   190A      1.169844   191A      1.175713  
     192A      1.186234   193A      1.188429   194A      1.194523  
     195A      1.203491   196A      1.213191   197A      1.220912  
     198A      1.244164   199A      1.251946   200A      1.259417  
     201A      1.263578   202A      1.267450   203A      1.269748  
     204A      1.273713   205A      1.277307   206A      1.279569  
     207A      1.285227   208A      1.292377   209A      1.294373  
     210A      1.311569   211A      1.314911   212A      1.319217  
     213A      1.324664   214A      1.324770   215A      1.328485  
     216A      1.332604   217A      1.339496   218A      1.357995  
     219A      1.358282   220A      1.362019   221A      1.363310  
     222A      1.382830   223A      1.393006   224A      1.404946  
     225A      1.405845   226A      1.434625   227A      1.444796  
     228A      1.448159   229A      1.458365   230A      1.459344  
     231A      1.470529   232A      1.474551   233A      1.487229  
     234A      1.518234   235A      1.522470   236A      1.526285  
     237A      1.533682   238A      1.537516   239A      1.547211  
     240A      1.552463   241A      1.554437   242A      1.568986  
     243A      1.578461   244A      1.580259   245A      1.583093  
     246A      1.593057   247A      1.597843   248A      1.600766  
     249A      1.616332   250A      1.637174   251A      1.639276  
     252A      1.641995   253A      1.643887   254A      1.655517  
     255A      1.679896   256A      1.682899   257A      1.686021  
     258A      1.688431   259A      1.694303   260A      1.705086  
     261A      1.712678   262A      1.717092   263A      1.729567  
     264A      1.730623   265A      1.751273   266A      1.752464  
     267A      1.771189   268A      1.776776   269A      1.777663  
     270A      1.805124   271A      1.813197   272A      1.826805  
     273A      1.830373   274A      1.839627   275A      1.843229  
     276A      1.849138   277A      1.873608   278A      1.881112  
     279A      1.890327   280A      1.906431   281A      1.921161  
     282A      1.922499   283A      1.945840   284A      1.949912  
     285A      1.965234   286A      1.977679   287A      1.984265  
     288A      1.998605   289A      2.006755   290A      2.014768  
     291A      2.034918   292A      2.040065   293A      2.048940  
     294A      2.062526   295A      2.074263   296A      2.129883  
     297A      2.133067   298A      2.143753   299A      2.147382  
     300A      2.152846   301A      2.166422   302A      2.182012  
     303A      2.208752   304A      2.209293   305A      2.222558  
     306A      2.228092   307A      2.233717   308A      2.239394  
     309A      2.240454   310A      2.271574   311A      2.272139  
     312A      2.277859   313A      2.296977   314A      2.319642  
     315A      2.328398   316A      2.351512   317A      2.354706  
     318A      2.363051   319A      2.366827   320A      2.398221  
     321A      2.402830   322A      2.404025   323A      2.424427  
     324A      2.436088   325A      2.437413   326A      2.452021  
     327A      2.460416   328A      2.466031   329A      2.488952  
     330A      2.517224   331A      2.526321   332A      2.530634  
     333A      2.535519   334A      2.542053   335A      2.549708  
     336A      2.561521   337A      2.562890   338A      2.568992  
     339A      2.571899   340A      2.586909   341A      2.599420  
     342A      2.600160   343A      2.622338   344A      2.638460  
     345A      2.644890   346A      2.658971   347A      2.689642  
     348A      2.704555   349A      2.717744   350A      2.756852  
     351A      2.770816   352A      2.778261   353A      2.831392  
     354A      2.845124   355A      2.854826   356A      2.906414  
     357A      2.912268   358A      2.930052   359A      2.935599  
     360A      2.945324   361A      2.996104   362A      3.062285  
     363A      3.123025   364A      3.158001   365A      3.166773  
     366A      3.236211   367A      3.241755   368A      3.279445  
     369A      3.300485   370A      3.309863   371A      3.330994  
     372A      3.446875   373A      3.501542   374A      3.511246  
     375A      3.519614   376A      3.551977   377A      3.570745  
     378A      3.573708   379A      3.602885   380A      3.623607  
     381A      3.651710   382A      3.693925   383A      3.700606  
     384A      3.728871   385A      3.736642   386A      3.765172  
     387A      3.799147   388A      3.816926   389A      3.834707  
     390A      3.848523   391A      3.870201   392A      3.879945  
     393A      3.886903   394A      3.920064   395A      3.935725  
     396A      3.942079   397A      3.974500   398A      3.996258  
     399A      4.031850   400A      4.050909   401A      4.079829  
     402A      4.085016   403A      4.099314   404A      4.126946  
     405A      4.131025   406A      4.136280   407A      4.156759  
     408A      4.172516   409A      4.185471   410A      4.195522  
     411A      4.195636   412A      4.197604   413A      4.212051  
     414A      4.224751   415A      4.238530   416A      4.239858  
     417A      4.245042   418A      4.276146   419A      4.280508  
     420A      4.285401   421A      4.309220   422A      4.324153  
     423A      4.325211   424A      4.338011   425A      4.340842  
     426A      4.341659   427A      4.354864   428A      4.403138  
     429A      4.430736   430A      4.453105   431A      4.470821  
     432A      4.476931   433A      4.489040   434A      4.497467  
     435A      4.500164   436A      4.506670   437A      4.512952  
     438A      4.552568   439A      4.580429   440A      4.581884  
     441A      4.590297   442A      4.597015   443A      4.604015  
     444A      4.613515   445A      4.622504   446A      4.630330  
     447A      4.645662   448A      4.649724   449A      4.666431  
     450A      4.675122   451A      4.683411   452A      4.697583  
     453A      4.729617   454A      4.731475   455A      4.759983  
     456A      4.790880   457A      4.794715   458A      4.839780  
     459A      4.846516   460A      4.872645   461A      4.910101  
     462A      4.922308   463A      4.925208   464A      4.954798  
     465A      4.969615   466A      4.976479   467A      4.992375  
     468A      4.993581   469A      5.009946   470A      5.022532  
     471A      5.027336   472A      5.031059   473A      5.042831  
     474A      5.050680   475A      5.056669   476A      5.089560  
     477A      5.113908   478A      5.119650   479A      5.121327  
     480A      5.129410   481A      5.138908   482A      5.161661  
     483A      5.178008   484A      5.209005   485A      5.212266  
     486A      5.221241   487A      5.244969   488A      5.251167  
     489A      5.275077   490A      5.281068   491A      5.284308  
     492A      5.300395   493A      5.311936   494A      5.359296  
     495A      5.366969   496A      5.389722   497A      5.410684  
     498A      5.421503   499A      5.427894   500A      5.443896  
     501A      5.466821   502A      5.473305   503A      5.486741  
     504A      5.514288   505A      5.543130   506A      5.548962  
     507A      5.598029   508A      5.608810   509A      5.623096  
     510A      5.628407   511A      5.659530   512A      5.682200  
     513A      5.690515   514A      5.706330   515A      5.715909  
     516A      5.716288   517A      5.748216   518A      5.757101  
     519A      5.760701   520A      5.761415   521A      5.762454  
     522A      5.802047   523A      5.817533   524A      5.830891  
     525A      5.835224   526A      5.880077   527A      5.947960  
     528A      5.964427   529A      5.998006   530A      6.010580  
     531A      6.017058   532A      6.022147   533A      6.028944  
     534A      6.047643   535A      6.152357   536A      6.155161  
     537A      6.182909   538A      6.192470   539A      6.210842  
     540A      6.227841   541A      6.229826   542A      6.239136  
     543A      6.470343   544A      6.487053   545A      6.493218  
     546A      6.536027   547A      6.563175   548A      6.570772  
     549A      6.656080   550A      6.733570   551A      6.816767  
     552A      6.857701   553A      6.890291   554A      6.916006  
     555A      6.924322   556A      6.927761   557A      7.044010  
     558A      7.098092   559A      7.182869   560A      7.195243  
     561A      7.205730   562A      7.209019   563A      7.265889  
     564A      7.298697   565A      7.419832   566A      7.531223  
     567A      7.575722   568A      7.653986   569A      7.689999  
     570A      7.701551   571A      7.813449   572A      7.930304  
     573A      8.051077   574A      8.226395   575A      8.230303  
     576A      8.248708   577A      8.352665   578A      8.372797  
     579A      8.987526   580A      9.010159   581A      9.391095  
     582A      9.484972   583A      9.649754   584A     10.073346  
     585A     10.090059   586A     11.016015   587A     11.059297  
     588A     11.381640   589A     11.471811   590A     11.510902  
     591A     17.959496   592A     18.001833   593A     49.821022  
     594A     49.980960   595A     54.609819   596A     55.814780  
     597A     56.674407   598A     56.863766  

    Final Occupation by Irrep:
              A 
    DOCC [     8 ]

  @DF-RHF Final Energy:   -78.06484944820892

   => Energetics <=

    Nuclear Repulsion Energy =             33.4300062725099920
    One-Electron Energy =                -170.1743919199620336
    Two-Electron Energy =                  58.6795361992431310
    Total Energy =                        -78.0648494482089177

Computation Completed


Properties will be evaluated at   0.000000,   0.000000,   0.000000 [a0]

Properties computed using the SCF density matrix

  Nuclear Dipole Moment: [e a0]
     X:     0.0001      Y:    -0.0000      Z:    60.7446

  Electronic Dipole Moment: [e a0]
     X:    -0.0001      Y:     0.0000      Z:   -60.7499

  Dipole Moment: [e a0]
     X:    -0.0000      Y:    -0.0000      Z:    -0.0053     Total:     0.0053

  Dipole Moment: [D]
     X:    -0.0000      Y:    -0.0000      Z:    -0.0133     Total:     0.0133


*** tstop() called on node36.bme.utexas.edu at Sat Apr 11 17:43:58 2020
Module time:
	user time   =     105.66 seconds =       1.76 minutes
	system time =       2.50 seconds =       0.04 minutes
	total time  =         21 seconds =       0.35 minutes
Total time:
	user time   =     154.06 seconds =       2.57 minutes
	system time =       4.74 seconds =       0.08 minutes
	total time  =         32 seconds =       0.53 minutes

*** tstart() called on node36.bme.utexas.edu
*** at Sat Apr 11 17:43:58 2020


  //>>>>>>>>>>>>>>>>>>>>>>>>>>>>>>>>>>>//
  //               DFMP2               //
  //<<<<<<<<<<<<<<<<<<<<<<<<<<<<<<<<<<<//

   => Loading Basis Set <=

    Name: (AUG-CC-PVTZ AUX)
    Role: RIFIT
    Keyword: DF_BASIS_MP2
    atoms 1, 3, 5, 7, 9, 11, 13, 16        entry C          line   148 file /home/liuchw/anaconda3/envs/psi4env/share/psi4/basis/aug-cc-pvtz-ri.gbs 
    atoms 2, 4, 6, 8, 10, 12, 14-15, 17-18 entry H          line    30 file /home/liuchw/anaconda3/envs/psi4env/share/psi4/basis/aug-cc-pvtz-ri.gbs 

	 --------------------------------------------------------
	                          DF-MP2                         
	      2nd-Order Density-Fitted Moller-Plesset Theory     
	              RMP2 Wavefunction,   6 Threads             
	                                                         
	        Rob Parrish, Justin Turney, Andy Simmonett,      
	           Ed Hohenstein, and C. David Sherrill          
	 --------------------------------------------------------

   => Auxiliary Basis Set <=

  Basis Set: (AUG-CC-PVTZ AUX)
    Blend: AUG-CC-PVTZ-RI
    Number of shells: 364
    Number of basis function: 1308
    Number of Cartesian functions: 1638
    Spherical Harmonics?: true
    Max angular momentum: 4

	 --------------------------------------------------------
	                 NBF =   598, NAUX =  1308
	 --------------------------------------------------------
	   CLASS    FOCC     OCC    AOCC    AVIR     VIR    FVIR
	   PAIRS       0       8       8     590     590       0
	 --------------------------------------------------------

	-----------------------------------------------------------
	 ==================> DF-MP2 Energies <==================== 
	-----------------------------------------------------------
	 Reference Energy          =     -78.0648494482089177 [Eh]
	 Singles Energy            =      -0.0000000000000000 [Eh]
	 Same-Spin Energy          =      -0.0767420840629656 [Eh]
	 Opposite-Spin Energy      =      -0.3003487485252466 [Eh]
	 Correlation Energy        =      -0.3770908325882122 [Eh]
	 Total Energy              =     -78.4419402807971267 [Eh]
	-----------------------------------------------------------
	 ================> DF-SCS-MP2 Energies <================== 
	-----------------------------------------------------------
	 SCS Same-Spin Scale       =       0.3333333333333333 [-]
	 SCS Opposite-Spin Scale   =       1.2000000000000000 [-]
	 SCS Same-Spin Energy      =      -0.0255806946876552 [Eh]
	 SCS Opposite-Spin Energy  =      -0.3604184982302959 [Eh]
	 SCS Correlation Energy    =      -0.3859991929179512 [Eh]
	 SCS Total Energy          =     -78.4508486411268677 [Eh]
	-----------------------------------------------------------


*** tstop() called on node36.bme.utexas.edu at Sat Apr 11 17:44:09 2020
Module time:
	user time   =      49.88 seconds =       0.83 minutes
	system time =       1.43 seconds =       0.02 minutes
	total time  =         11 seconds =       0.18 minutes
Total time:
	user time   =     203.95 seconds =       3.40 minutes
	system time =       6.17 seconds =       0.10 minutes
	total time  =         43 seconds =       0.72 minutes

  //>>>>>>>>>>>>>>>>>>>>>>>>>>>>>>>>>>>>//
  // CBS Computation: MP2 / AUG-CC-PVQZ //
  //<<<<<<<<<<<<<<<<<<<<<<<<<<<<<<<<<<<<//


Scratch directory: /scratch//

*** tstart() called on node36.bme.utexas.edu
*** at Sat Apr 11 17:44:09 2020

   => Loading Basis Set <=

    Name: AUG-CC-PVQZ
    Role: ORBITAL
    Keyword: BASIS
    atoms 1, 3, 5, 7, 9, 11, 13, 16        entry C          line   303 file /home/liuchw/anaconda3/envs/psi4env/share/psi4/basis/aug-cc-pvqz.gbs 
    atoms 2, 4, 6, 8, 10, 12, 14-15, 17-18 entry H          line    40 file /home/liuchw/anaconda3/envs/psi4env/share/psi4/basis/aug-cc-pvqz.gbs 


         ---------------------------------------------------------
                                   SCF
               by Justin Turney, Rob Parrish, Andy Simmonett
                          and Daniel G. A. Smith
                              RHF Reference
                        6 Threads,  38146 MiB Core
         ---------------------------------------------------------

  ==> Geometry <==

    Molecular point group: c1
    Full point group: C1

    Geometry (in Angstrom), charge = 0, multiplicity = 1:

       Center              X                  Y                   Z               Mass       
    ------------   -----------------  -----------------  -----------------  -----------------
      Gh(C)           0.835519904992     1.115164397262    -0.722494457047    12.000000000000
      Gh(H)           1.484326904992     1.980606397262    -0.724361457047     1.007825032230
      Gh(C)           1.383277904992    -0.166149602738    -0.720130457047    12.000000000000
      Gh(H)           2.457151904992    -0.295207602738    -0.721124457047     1.007825032230
      Gh(C)           0.547557904992    -1.281318602738    -0.722209457047    12.000000000000
      Gh(H)           0.972938904992    -2.275807602738    -0.724116457047     1.007825032230
      Gh(C)          -0.835520095008    -1.115164602738    -0.722496457047    12.000000000000
      Gh(H)          -1.484331095008    -1.980608602738    -0.724365457047     1.007825032230
      Gh(C)          -1.383281095008     0.166151397262    -0.720137457047    12.000000000000
      Gh(H)          -2.457153095008     0.295206397262    -0.721138457047     1.007825032230
      Gh(C)          -0.547563095008     1.281320397262    -0.722215457047    12.000000000000
      Gh(H)          -0.972940095008     2.275802397262    -0.724126457047     1.007825032230
         C            0.655781904992    -0.116792602738     2.010157542953    12.000000000000
         H            1.047242904992    -1.123911602738     2.005689542953     1.007825032230
         H            1.370855904992     0.693271397262     2.005656542953     1.007825032230
         C           -0.655774095008     0.116790397262     2.010166542953    12.000000000000
         H           -1.370846095008    -0.693274602738     2.005670542953     1.007825032230
         H           -1.047237095008     1.123909397262     2.005708542953     1.007825032230

  Running in c1 symmetry.

  Rotational constants: A =      0.08558  B =      0.06861  C =      0.06510 [cm^-1]
  Rotational constants: A =   2565.54104  B =   2056.73664  C =   1951.50659 [MHz]
  Nuclear repulsion =   33.430006272509992

  Charge       = 0
  Multiplicity = 1
  Electrons    = 16
  Nalpha       = 8
  Nbeta        = 8

  ==> Algorithm <==

  SCF Algorithm Type is DF.
  DIIS enabled.
  MOM disabled.
  Fractional occupation disabled.
  Guess Type is SAD.
  Energy threshold   = 1.00e-07
  Density threshold  = 1.00e-08
  Integral threshold = 0.00e+00

  ==> Primary Basis <==

  Basis Set: AUG-CC-PVQZ
    Blend: AUG-CC-PVQZ
    Number of shells: 300
    Number of basis function: 1100
    Number of Cartesian functions: 1390
    Spherical Harmonics?: true
    Max angular momentum: 4

   => Loading Basis Set <=

    Name: (AUG-CC-PVQZ AUX)
    Role: JKFIT
    Keyword: DF_BASIS_SCF
    atoms 1, 3, 5, 7, 9, 11, 13, 16        entry C          line   178 file /home/liuchw/anaconda3/envs/psi4env/share/psi4/basis/aug-cc-pvqz-jkfit.gbs 
    atoms 2, 4, 6, 8, 10, 12, 14-15, 17-18 entry H          line    70 file /home/liuchw/anaconda3/envs/psi4env/share/psi4/basis/aug-cc-pvqz-jkfit.gbs 

  ==> Pre-Iterations <==

   -------------------------------------------------------
    Irrep   Nso     Nmo     Nalpha   Nbeta   Ndocc  Nsocc
   -------------------------------------------------------
     A       1100    1100       0       0       0       0
   -------------------------------------------------------
    Total    1100    1100       8       8       8       0
   -------------------------------------------------------

  ==> Integral Setup <==

  DFHelper Memory: AOs need 16.690 GiB; user supplied 27.940 GiB. Using in-core AOs.

  ==> MemDFJK: Density-Fitted J/K Matrices <==

    J tasked:                   Yes
    K tasked:                   Yes
    wK tasked:                   No
    OpenMP threads:               6
    Memory [MiB]:             28610
    Algorithm:                 Core
    Schwarz Cutoff:           1E-12
    Mask sparsity (%):       4.5689
    Fitting Condition:        1E-10

   => Auxiliary Basis Set <=

  Basis Set: (AUG-CC-PVQZ AUX)
    Blend: AUG-CC-PVQZ-JKFIT
    Number of shells: 452
    Number of basis function: 1896
    Number of Cartesian functions: 2594
    Spherical Harmonics?: true
    Max angular momentum: 5

  Minimum eigenvalue in the overlap matrix is 7.2970842980E-08.
  Using Canonical Orthogonalization with cutoff of 1.0000000000E-07.
  Overall, 1 of 1100 possible MOs eliminated.

  SCF Guess: Superposition of Atomic Densities via on-the-fly atomic UHF.

  ==> Iterations <==

                           Total Energy        Delta E     RMS |[F,P]|

   @DF-RHF iter SAD:   -77.27489091687673   -7.72749e+01   0.00000e+00 
   @DF-RHF iter   1:   -77.98920594971021   -7.14315e-01   3.40456e-04 DIIS
   @DF-RHF iter   2:   -78.05706258397733   -6.78566e-02   1.39792e-04 DIIS
   @DF-RHF iter   3:   -78.06890798766420   -1.18454e-02   2.11712e-05 DIIS
   @DF-RHF iter   4:   -78.06947957340742   -5.71586e-04   2.11689e-06 DIIS
   @DF-RHF iter   5:   -78.06948615240165   -6.57899e-06   2.68145e-07 DIIS
   @DF-RHF iter   6:   -78.06948626572868   -1.13327e-07   3.13767e-08 DIIS
   @DF-RHF iter   7:   -78.06948626711585   -1.38716e-09   5.27534e-09 DIIS
  Energy and wave function converged.


  ==> Post-Iterations <==

    Orbital Energies [Eh]
    ---------------------

    Doubly Occupied:                                                      

       1A    -11.230110     2A    -11.228383     3A     -1.034592  
       4A     -0.793493     5A     -0.645132     6A     -0.587982  
       7A     -0.508820     8A     -0.377391  

    Virtual:                                                              

       9A      0.020445    10A      0.027644    11A      0.028026  
      12A      0.039100    13A      0.042154    14A      0.042356  
      15A      0.046699    16A      0.050302    17A      0.060320  
      18A      0.065871    19A      0.068080    20A      0.083297  
      21A      0.083988    22A      0.085004    23A      0.096165  
      24A      0.100945    25A      0.101862    26A      0.103980  
      27A      0.105761    28A      0.108236    29A      0.108438  
      30A      0.111372    31A      0.129442    32A      0.131557  
      33A      0.134253    34A      0.135503    35A      0.135761  
      36A      0.136685    37A      0.137481    38A      0.141103  
      39A      0.143230    40A      0.149324    41A      0.151197  
      42A      0.151793    43A      0.157744    44A      0.172488  
      45A      0.174951    46A      0.183419    47A      0.195072  
      48A      0.203198    49A      0.203988    50A      0.209961  
      51A      0.211075    52A      0.216959    53A      0.219843  
      54A      0.242941    55A      0.244682    56A      0.257593  
      57A      0.263289    58A      0.263766    59A      0.266016  
      60A      0.267941    61A      0.271278    62A      0.274799  
      63A      0.277562    64A      0.286552    65A      0.286799  
      66A      0.289257    67A      0.292992    68A      0.297415  
      69A      0.307239    70A      0.308779    71A      0.309252  
      72A      0.311225    73A      0.316867    74A      0.319816  
      75A      0.322996    76A      0.327735    77A      0.333232  
      78A      0.334854    79A      0.335501    80A      0.340364  
      81A      0.340857    82A      0.343255    83A      0.349369  
      84A      0.362359    85A      0.370397    86A      0.376167  
      87A      0.385382    88A      0.386351    89A      0.386965  
      90A      0.388807    91A      0.391194    92A      0.397570  
      93A      0.400687    94A      0.402647    95A      0.408705  
      96A      0.411371    97A      0.415205    98A      0.420026  
      99A      0.424282   100A      0.431124   101A      0.438055  
     102A      0.440504   103A      0.447123   104A      0.462044  
     105A      0.464713   106A      0.466659   107A      0.468825  
     108A      0.471711   109A      0.472320   110A      0.479676  
     111A      0.483016   112A      0.485124   113A      0.492582  
     114A      0.497467   115A      0.500298   116A      0.502417  
     117A      0.504678   118A      0.505375   119A      0.510225  
     120A      0.518723   121A      0.524402   122A      0.529920  
     123A      0.531911   124A      0.535865   125A      0.538024  
     126A      0.538489   127A      0.544701   128A      0.548902  
     129A      0.564563   130A      0.570427   131A      0.574603  
     132A      0.576564   133A      0.577896   134A      0.581816  
     135A      0.581861   136A      0.585212   137A      0.588007  
     138A      0.596218   139A      0.601698   140A      0.612965  
     141A      0.615289   142A      0.619892   143A      0.623997  
     144A      0.624145   145A      0.635614   146A      0.636222  
     147A      0.650914   148A      0.653909   149A      0.663946  
     150A      0.669280   151A      0.670573   152A      0.679913  
     153A      0.701252   154A      0.702810   155A      0.706011  
     156A      0.709884   157A      0.711148   158A      0.722879  
     159A      0.727917   160A      0.733847   161A      0.752661  
     162A      0.753393   163A      0.756210   164A      0.759767  
     165A      0.769635   166A      0.775306   167A      0.778865  
     168A      0.779750   169A      0.781734   170A      0.786990  
     171A      0.787926   172A      0.789437   173A      0.806087  
     174A      0.811363   175A      0.819061   176A      0.829950  
     177A      0.839121   178A      0.847266   179A      0.847670  
     180A      0.852956   181A      0.855878   182A      0.859238  
     183A      0.859423   184A      0.881837   185A      0.886643  
     186A      0.887727   187A      0.892630   188A      0.895501  
     189A      0.897783   190A      0.904535   191A      0.908433  
     192A      0.920131   193A      0.921570   194A      0.928950  
     195A      0.936119   196A      0.941316   197A      0.941641  
     198A      0.953298   199A      0.953577   200A      0.959211  
     201A      0.959501   202A      0.964693   203A      0.966710  
     204A      0.967443   205A      0.975793   206A      0.983858  
     207A      0.986889   208A      0.998643   209A      1.013401  
     210A      1.017423   211A      1.021118   212A      1.028297  
     213A      1.033106   214A      1.036133   215A      1.037359  
     216A      1.039592   217A      1.049208   218A      1.052858  
     219A      1.055417   220A      1.060121   221A      1.063848  
     222A      1.066700   223A      1.071012   224A      1.081816  
     225A      1.088035   226A      1.088400   227A      1.090785  
     228A      1.092930   229A      1.107827   230A      1.114853  
     231A      1.121294   232A      1.124104   233A      1.130406  
     234A      1.131029   235A      1.142448   236A      1.149463  
     237A      1.149599   238A      1.158660   239A      1.166011  
     240A      1.172495   241A      1.185424   242A      1.188191  
     243A      1.193717   244A      1.196301   245A      1.198820  
     246A      1.212690   247A      1.221477   248A      1.235895  
     249A      1.245375   250A      1.248965   251A      1.252366  
     252A      1.260146   253A      1.267725   254A      1.273194  
     255A      1.274849   256A      1.280180   257A      1.280675  
     258A      1.284355   259A      1.298543   260A      1.320235  
     261A      1.325721   262A      1.325954   263A      1.328079  
     264A      1.334096   265A      1.338990   266A      1.347877  
     267A      1.349236   268A      1.362802   269A      1.364520  
     270A      1.367160   271A      1.383563   272A      1.386151  
     273A      1.387568   274A      1.397437   275A      1.414202  
     276A      1.423005   277A      1.428116   278A      1.430123  
     279A      1.438731   280A      1.440102   281A      1.447991  
     282A      1.450214   283A      1.455960   284A      1.476309  
     285A      1.478955   286A      1.482992   287A      1.499093  
     288A      1.506080   289A      1.507340   290A      1.510630  
     291A      1.525378   292A      1.540829   293A      1.551775  
     294A      1.559451   295A      1.568890   296A      1.576025  
     297A      1.580613   298A      1.589238   299A      1.590367  
     300A      1.601888   301A      1.605952   302A      1.619242  
     303A      1.621275   304A      1.627730   305A      1.637883  
     306A      1.640825   307A      1.643187   308A      1.649108  
     309A      1.658238   310A      1.662561   311A      1.684581  
     312A      1.685532   313A      1.692471   314A      1.697886  
     315A      1.718035   316A      1.732512   317A      1.742119  
     318A      1.744336   319A      1.745800   320A      1.749093  
     321A      1.752508   322A      1.767919   323A      1.773036  
     324A      1.783207   325A      1.796029   326A      1.802931  
     327A      1.814468   328A      1.814648   329A      1.816440  
     330A      1.822310   331A      1.823472   332A      1.829925  
     333A      1.838625   334A      1.844107   335A      1.846595  
     336A      1.847724   337A      1.850462   338A      1.857747  
     339A      1.861089   340A      1.862815   341A      1.867872  
     342A      1.884454   343A      1.889287   344A      1.911951  
     345A      1.914916   346A      1.917682   347A      1.932955  
     348A      1.935537   349A      1.936735   350A      1.938022  
     351A      1.945059   352A      1.945557   353A      1.964802  
     354A      1.970482   355A      1.974154   356A      1.999489  
[...]
     621A      3.930652   622A      3.937647   623A      3.946639  
     624A      3.972289   625A      3.974388   626A      3.992125  
     627A      3.995122   628A      4.016729   629A      4.022394  
     630A      4.022590   631A      4.024579   632A      4.034526  
     633A      4.042735   634A      4.046067   635A      4.054948  
     636A      4.064245   637A      4.069115   638A      4.078295  
     639A      4.084874   640A      4.092822   641A      4.110996  
     642A      4.125649   643A      4.138040   644A      4.142574  
     645A      4.144301   646A      4.150927   647A      4.187351  
     648A      4.193722   649A      4.202528   650A      4.210740  
     651A      4.265113   652A      4.275261   653A      4.294898  
     654A      4.322830   655A      4.362741   656A      4.370135  
     657A      4.377969   658A      4.385415   659A      4.393060  
     660A      4.398025   661A      4.408159   662A      4.412189  
     663A      4.421182   664A      4.427926   665A      4.433672  
     666A      4.446717   667A      4.452367   668A      4.468928  
     669A      4.469088   670A      4.480407   671A      4.488777  
     672A      4.500137   673A      4.505025   674A      4.516632  
     675A      4.517014   676A      4.525548   677A      4.540832  
     678A      4.551540   679A      4.555479   680A      4.567855  
     681A      4.568114   682A      4.593424   683A      4.608569  
     684A      4.613216   685A      4.624933   686A      4.642573  
     687A      4.646773   688A      4.660953   689A      4.689442  
     690A      4.695329   691A      4.709061   692A      4.724723  
     693A      4.734091   694A      4.751855   695A      4.758236  
     696A      4.766861   697A      4.791316   698A      4.814582  
     699A      4.842147   700A      4.853039   701A      4.904800  
     702A      4.907870   703A      4.925535   704A      4.941454  
     705A      4.960006   706A      4.966506   707A      4.970036  
     708A      5.009223   709A      5.010984   710A      5.021276  
     711A      5.035422   712A      5.053337   713A      5.089212  
     714A      5.098054   715A      5.138482   716A      5.158873  
     717A      5.173613   718A      5.179752   719A      5.195684  
     720A      5.196273   721A      5.200996   722A      5.226103  
     723A      5.277329   724A      5.297294   725A      5.321862  
     726A      5.429045   727A      5.446218   728A      5.447120  
     729A      5.456605   730A      5.481265   731A      5.533131  
     732A      5.542745   733A      5.620532   734A      5.632384  
     735A      5.696659   736A      5.715297   737A      5.772705  
     738A      5.789424   739A      5.823896   740A      5.859955  
     741A      5.910067   742A      5.970584   743A      5.972066  
     744A      6.002142   745A      6.028514   746A      6.043340  
     747A      6.044809   748A      6.084088   749A      6.103532  
     750A      6.105315   751A      6.111707   752A      6.170662  
     753A      6.173021   754A      6.209857   755A      6.222838  
     756A      6.265224   757A      6.283855   758A      6.288161  
     759A      6.296751   760A      6.335189   761A      6.345483  
     762A      6.366399   763A      6.385224   764A      6.393602  
     765A      6.397757   766A      6.411078   767A      6.423999  
     768A      6.425070   769A      6.435860   770A      6.435941  
     771A      6.440381   772A      6.490702   773A      6.497019  
     774A      6.499178   775A      6.502840   776A      6.525934  
     777A      6.530623   778A      6.548005   779A      6.578017  
     780A      6.591941   781A      6.597708   782A      6.618550  
     783A      6.632595   784A      6.635603   785A      6.639713  
     786A      6.656514   787A      6.671996   788A      6.691019  
     789A      6.706790   790A      6.728387   791A      6.728451  
     792A      6.743040   793A      6.758611   794A      6.768987  
     795A      6.782265   796A      6.795976   797A      6.798825  
     798A      6.816193   799A      6.821425   800A      6.830364  
     801A      6.859713   802A      6.862168   803A      6.871411  
     804A      6.884472   805A      6.898876   806A      6.912501  
     807A      6.921183   808A      6.934713   809A      6.942275  
     810A      6.951045   811A      6.960165   812A      6.973635  
     813A      6.984356   814A      6.988366   815A      6.991281  
     816A      6.997487   817A      6.997830   818A      7.010116  
     819A      7.037296   820A      7.045142   821A      7.055040  
     822A      7.059954   823A      7.066213   824A      7.082951  
     825A      7.094205   826A      7.105843   827A      7.111424  
     828A      7.113243   829A      7.121766   830A      7.127024  
     831A      7.129736   832A      7.158448   833A      7.175501  
     834A      7.182432   835A      7.196184   836A      7.196439  
     837A      7.206027   838A      7.209191   839A      7.215057  
     840A      7.216416   841A      7.239106   842A      7.248989  
     843A      7.253537   844A      7.259973   845A      7.268440  
     846A      7.281546   847A      7.285942   848A      7.286985  
     849A      7.288149   850A      7.314848   851A      7.323733  
     852A      7.332460   853A      7.340048   854A      7.342507  
     855A      7.347978   856A      7.358191   857A      7.381477  
     858A      7.401076   859A      7.407691   860A      7.415434  
     861A      7.428658   862A      7.430404   863A      7.436126  
     864A      7.458151   865A      7.475477   866A      7.486712  
     867A      7.492532   868A      7.501909   869A      7.509071  
     870A      7.543155   871A      7.550148   872A      7.576680  
     873A      7.577334   874A      7.595248   875A      7.600853  
     876A      7.622760   877A      7.635267   878A      7.657514  
     879A      7.663753   880A      7.670846   881A      7.688762  
     882A      7.743643   883A      7.750664   884A      7.751173  
     885A      7.775889   886A      7.785074   887A      7.787024  
     888A      7.791182   889A      7.804435   890A      7.811307  
     891A      7.858334   892A      7.864455   893A      7.873869  
     894A      7.880363   895A      7.885417   896A      7.892253  
     897A      7.903066   898A      7.950064   899A      7.982885  
     900A      7.986967   901A      7.992660   902A      8.003083  
     903A      8.004024   904A      8.032768   905A      8.047841  
     906A      8.073326   907A      8.074752   908A      8.092163  
     909A      8.106834   910A      8.108773   911A      8.143101  
     912A      8.157505   913A      8.163532   914A      8.186937  
     915A      8.211331   916A      8.257915   917A      8.266903  
     918A      8.271569   919A      8.282834   920A      8.285125  
     921A      8.324195   922A      8.324422   923A      8.361797  
     924A      8.384895   925A      8.390875   926A      8.405115  
     927A      8.414045   928A      8.446162   929A      8.482109  
     930A      8.482548   931A      8.490457   932A      8.503704  
     933A      8.522230   934A      8.554982   935A      8.606149  
     936A      8.610050   937A      8.638623   938A      8.686063  
     939A      8.693457   940A      8.729151   941A      8.735348  
     942A      8.745721   943A      8.780225   944A      8.785713  
     945A      8.798057   946A      8.799533   947A      8.809529  
     948A      8.821062   949A      8.829356   950A      8.841741  
     951A      8.881837   952A      8.884765   953A      8.905412  
     954A      8.933149   955A      8.940685   956A      8.955794  
     957A      8.964358   958A      8.971894   959A      8.977255  
     960A      8.991281   961A      9.008199   962A      9.014141  
     963A      9.032700   964A      9.075876   965A      9.082575  
     966A      9.093670   967A      9.100617   968A      9.105252  
     969A      9.108820   970A      9.127828   971A      9.134507  
     972A      9.150973   973A      9.176259   974A      9.182843  
     975A      9.203513   976A      9.247537   977A      9.254649  
     978A      9.268749   979A      9.319622   980A      9.322421  
     981A      9.343725   982A      9.363827   983A      9.394866  
     984A      9.438386   985A      9.470374   986A      9.498876  
     987A      9.501695   988A      9.519678   989A      9.539027  
     990A      9.553833   991A      9.558143   992A      9.570650  
     993A      9.606966   994A      9.613510   995A      9.617336  
     996A      9.631092   997A      9.644281   998A      9.647997  
     999A      9.651563  1000A      9.676860  1001A      9.692751  
    1002A      9.704261  1003A      9.715932  1004A      9.778021  
    1005A      9.781056  1006A      9.817372  1007A      9.844387  
    1008A      9.865454  1009A      9.871082  1010A      9.888328  
    1011A      9.896336  1012A      9.901395  1013A      9.943292  
    1014A      9.955124  1015A      9.987786  1016A     10.034268  
    1017A     10.063132  1018A     10.098486  1019A     10.101623  
    1020A     10.106853  1021A     10.130741  1022A     10.157619  
    1023A     10.160416  1024A     10.165971  1025A     10.189477  
    1026A     10.241310  1027A     10.274601  1028A     10.293825  
    1029A     10.295817  1030A     10.314019  1031A     10.331603  
    1032A     10.354243  1033A     10.357910  1034A     10.366611  
    1035A     10.382169  1036A     10.393383  1037A     10.427036  
    1038A     10.432612  1039A     10.460529  1040A     10.467663  
    1041A     10.498409  1042A     10.501375  1043A     10.584650  
    1044A     10.589112  1045A     10.595404  1046A     10.635583  
    1047A     10.682218  1048A     10.708615  1049A     10.732659  
    1050A     10.764608  1051A     10.777262  1052A     10.791806  
    1053A     10.793494  1054A     10.850707  1055A     10.864198  
    1056A     10.885945  1057A     10.889585  1058A     10.916147  
    1059A     10.932433  1060A     10.946795  1061A     10.974503  
    1062A     11.087073  1063A     11.106346  1064A     11.145688  
    1065A     11.156678  1066A     11.251649  1067A     11.280097  
    1068A     11.444635  1069A     11.512915  1070A     11.520807  
    1071A     11.543567  1072A     11.562690  1073A     11.634172  
    1074A     11.775086  1075A     11.811783  1076A     11.825886  
    1077A     11.850852  1078A     11.873240  1079A     11.912180  
    1080A     12.360824  1081A     12.520030  1082A     13.043122  
    1083A     13.231528  1084A     13.382854  1085A     13.407470  
    1086A     13.418977  1087A     13.430914  1088A     13.532909  
    1089A     13.570580  1090A     13.790558  1091A     13.807766  
    1092A     26.350006  1093A     26.384449  1094A     26.879590  
    1095A     27.073918  1096A     27.188034  1097A     27.313443  
    1098A     27.436473  1099A     27.503687  

    Final Occupation by Irrep:
              A 
    DOCC [    29 ]

  @DF-RHF Final Energy:  -308.83377864334602

   => Energetics <=

    Nuclear Repulsion Energy =            346.9687778046711628
    One-Electron Energy =               -1104.0332185793481585
    Two-Electron Energy =                 448.2306621313309734
    Total Energy =                       -308.8337786433460224

Computation Completed


Properties will be evaluated at   0.000000,   0.000000,   0.000000 [a0]

Properties computed using the SCF density matrix

  Nuclear Dipole Moment: [e a0]
     X:     0.0000      Y:    -0.0000      Z:     3.4532

  Electronic Dipole Moment: [e a0]
     X:    -0.0000      Y:     0.0000      Z:    -3.5912

  Dipole Moment: [e a0]
     X:     0.0000      Y:     0.0000      Z:    -0.1380     Total:     0.1380

  Dipole Moment: [D]
     X:     0.0000      Y:     0.0000      Z:    -0.3508     Total:     0.3508


*** tstop() called on node36.bme.utexas.edu at Sat Apr 11 17:55:53 2020
Module time:
	user time   =     788.61 seconds =      13.14 minutes
	system time =      53.60 seconds =       0.89 minutes
	total time  =        151 seconds =       2.52 minutes
Total time:
	user time   =    3643.69 seconds =      60.73 minutes
	system time =     202.93 seconds =       3.38 minutes
	total time  =        747 seconds =      12.45 minutes

*** tstart() called on node36.bme.utexas.edu
*** at Sat Apr 11 17:55:53 2020


  //>>>>>>>>>>>>>>>>>>>>>>>>>>>>>>>>>>>//
  //               DFMP2               //
  //<<<<<<<<<<<<<<<<<<<<<<<<<<<<<<<<<<<//

   => Loading Basis Set <=

    Name: (AUG-CC-PVQZ AUX)
    Role: RIFIT
    Keyword: DF_BASIS_MP2
    atoms 1, 3, 5, 7, 9, 11, 13, 16        entry C          line   184 file /home/liuchw/anaconda3/envs/psi4env/share/psi4/basis/aug-cc-pvqz-ri.gbs 
    atoms 2, 4, 6, 8, 10, 12, 14-15, 17-18 entry H          line    30 file /home/liuchw/anaconda3/envs/psi4env/share/psi4/basis/aug-cc-pvqz-ri.gbs 

	 --------------------------------------------------------
	                          DF-MP2                         
	      2nd-Order Density-Fitted Moller-Plesset Theory     
	              RMP2 Wavefunction,   6 Threads             
	                                                         
	        Rob Parrish, Justin Turney, Andy Simmonett,      
	           Ed Hohenstein, and C. David Sherrill          
	 --------------------------------------------------------

   => Auxiliary Basis Set <=

  Basis Set: (AUG-CC-PVQZ AUX)
    Blend: AUG-CC-PVQZ-RI
    Number of shells: 488
    Number of basis function: 2144
    Number of Cartesian functions: 2946
    Spherical Harmonics?: true
    Max angular momentum: 5

	 --------------------------------------------------------
	                 NBF =  1100, NAUX =  2144
	 --------------------------------------------------------
	   CLASS    FOCC     OCC    AOCC    AVIR     VIR    FVIR
	   PAIRS       0      29      29    1070    1070       0
	 --------------------------------------------------------

	-----------------------------------------------------------
	 ==================> DF-MP2 Energies <==================== 
	-----------------------------------------------------------
	 Reference Energy          =    -308.8337786433460224 [Eh]
	 Singles Energy            =      -0.0000000000000000 [Eh]
	 Same-Spin Energy          =      -0.3634936254593019 [Eh]
	 Opposite-Spin Energy      =      -1.2677578685293578 [Eh]
	 Correlation Energy        =      -1.6312514939886595 [Eh]
	 Total Energy              =    -310.4650301373346792 [Eh]
	-----------------------------------------------------------
	 ================> DF-SCS-MP2 Energies <================== 
	-----------------------------------------------------------
	 SCS Same-Spin Scale       =       0.3333333333333333 [-]
	 SCS Opposite-Spin Scale   =       1.2000000000000000 [-]
	 SCS Same-Spin Energy      =      -0.1211645418197673 [Eh]
	 SCS Opposite-Spin Energy  =      -1.5213094422352293 [Eh]
	 SCS Correlation Energy    =      -1.6424739840549967 [Eh]
	 SCS Total Energy          =    -310.4762526274010384 [Eh]
	-----------------------------------------------------------


*** tstop() called on node36.bme.utexas.edu at Sat Apr 11 17:57:28 2020
Module time:
	user time   =     397.84 seconds =       6.63 minutes
	system time =      32.72 seconds =       0.55 minutes
	total time  =         95 seconds =       1.58 minutes
Total time:
	user time   =    4041.53 seconds =      67.36 minutes
	system time =     235.65 seconds =       3.93 minutes
	total time  =        842 seconds =      14.03 minutes

  //>>>>>>>>>>>>>>>>>>>>>>>>>>>>>>>>>>>//
  //  CBS Results: mp2/aug-cc-pv[tq]z  //
  //<<<<<<<<<<<<<<<<<<<<<<<<<<<<<<<<<<<//


   ==> HF <==

   HI-zeta (4) Energy:               -308.833778643346


   ==> Helgaker 2-point correlated extrapolation for method: MP2 <==

   LO-zeta (3) Energy:               -310.295650877069
   HI-zeta (4) Energy:               -310.465030137335
   Alpha (exponent) Value:             3.000000000000
   Extrapolated Energy:              -310.588631219150

   @Extrapolated MP2/(T,Q):          -310.588631219150



   ==> Helgaker 2-point correlated extrapolation for method: HF <==

   LO-zeta (3) Energy:               -308.816130544317
   HI-zeta (4) Energy:               -308.833778643346
   Alpha (exponent) Value:             3.000000000000
   Extrapolated Energy:              -308.846656985881

   @Extrapolated HF/(T,Q):           -308.846656985881


   ==> Components <==

  ---------------------------------------------------------------------------------------------------------
                          Method / Basis                      Rqd      Energy [Eh]   Variable
  ---------------------------------------------------------------------------------------------------------
                              hf / aug-cc-pvtz                  *    -308.81613054   HF TOTAL ENERGY
                             mp2 / aug-cc-pvtz                  *    -310.29565088   MP2 TOTAL ENERGY
                              hf / aug-cc-pvqz                  *    -308.83377864   HF TOTAL ENERGY
                             mp2 / aug-cc-pvqz                  *    -310.46503014   MP2 TOTAL ENERGY
  ---------------------------------------------------------------------------------------------------------

   ==> Stages <==

  ---------------------------------------------------------------------------------------------------------
      Stage               Method / Basis                       Wt      Energy [Eh]   Scheme
  ---------------------------------------------------------------------------------------------------------
        scf                   hf / aug-cc-pvqz                  1    -308.83377864   xtpl_highest_1
       corl                  mp2 / aug-cc-pv[tq]z               1    -310.58863122   corl_xtpl_helgaker_2
       corl                   hf / aug-cc-pv[tq]z              -1    -308.84665699   corl_xtpl_helgaker_2
  ---------------------------------------------------------------------------------------------------------

   ==> CBS <==

  ---------------------------------------------------------------------------------------------------------
      Stage               Method / Basis                               Energy [Eh]   Scheme
  ---------------------------------------------------------------------------------------------------------
        scf                   hf / aug-cc-pvqz                       -308.83377864   xtpl_highest_1
       corl                  mp2 / aug-cc-pv[tq]z                      -1.74197423   corl_xtpl_helgaker_2
      total                  CBS                                     -310.57575288   
  ---------------------------------------------------------------------------------------------------------
   => Loading Basis Set <=

    Name: DEF2-SVP
    Role: ORBITAL
    Keyword: BASIS
    atoms 1, 3, 5, 7, 9, 11, 13, 16        entry C          line    90 file /home/liuchw/anaconda3/envs/psi4env/share/psi4/basis/def2-svp.gbs 
    atoms 2, 4, 6, 8, 10, 12, 14-15, 17-18 entry H          line    15 file /home/liuchw/anaconda3/envs/psi4env/share/psi4/basis/def2-svp.gbs 


       N-Body: Complex Energy (fragments = (1, 2), basis = (1, 2):  -310.57575287661484)

   ==> N-Body: Counterpoise Corrected (CP) energies <==

   n-Body     Total Energy [Eh]       I.E. [kcal/mol]      Delta [kcal/mol]
        1     -310.580034564199        0.000000000000        0.000000000000
        2     -310.576363880733        2.303388649938        2.303388649938

   => Loading Basis Set <=

    Name: DEF2-SVP
    Role: ORBITAL
    Keyword: BASIS
    atoms 1, 3, 5, 7, 9, 11, 13, 16        entry C          line    90 file /home/liuchw/anaconda3/envs/psi4env/share/psi4/basis/def2-svp.gbs 
    atoms 2, 4, 6, 8, 10, 12, 14-15, 17-18 entry H          line    15 file /home/liuchw/anaconda3/envs/psi4env/share/psi4/basis/def2-svp.gbs 


    Psi4 stopped on: Saturday, 11 April 2020 05:57PM
    Psi4 wall time for execution: 0:14:03.13

*** Psi4 exiting successfully. Buy a developer a beer!
