
    -----------------------------------------------------------------------
          Psi4: An Open-Source Ab Initio Electronic Structure Package
                               Psi4 1.4a2.dev224 

                         Git: Rev {master} e453b16 


    R. M. Parrish, L. A. Burns, D. G. A. Smith, A. C. Simmonett,
    A. E. DePrince III, E. G. Hohenstein, U. Bozkaya, A. Yu. Sokolov,
    R. Di Remigio, R. M. Richard, J. F. Gonthier, A. M. James,
    H. R. McAlexander, A. Kumar, M. Saitow, X. Wang, B. P. Pritchard,
    P. Verma, H. F. Schaefer III, K. Patkowski, R. A. King, E. F. Valeev,
    F. A. Evangelista, J. M. Turney, T. D. Crawford, and C. D. Sherrill,
    J. Chem. Theory Comput. 13(7) pp 3185--3197 (2017).
    (doi: 10.1021/acs.jctc.7b00174)


                         Additional Contributions by
    P. Kraus, H. Kruse, M. H. Lechner, M. C. Schieber, R. A. Shaw,
    A. Alenaizan, R. Galvelis, Z. L. Glick, S. Lehtola, and J. P. Misiewicz

    -----------------------------------------------------------------------


    Psi4 started on: Saturday, 11 April 2020 05:30PM

    Process ID: 41775
    Host:       node70.bme.utexas.edu
    PSIDATADIR: /home/liuchw/anaconda3/envs/psi4env/share/psi4
    Memory:     500.0 MiB
    Threads:    6
    
  ==> Input File <==

--------------------------------------------------------------------------
#Generated by lconvert.py for cbs job

memory 40 GB

molecule  {
0 1
  C        0.8355170     1.1151670     0.0214010
  H        1.4843240     1.9806090     0.0195340
  C        1.3832750    -0.1661470     0.0237650
  H        2.4571490    -0.2952050     0.0227710
  C        0.5475550    -1.2813160     0.0216860
  H        0.9729360    -2.2758050     0.0197790
  C       -0.8355230    -1.1151620     0.0213990
  H       -1.4843340    -1.9806060     0.0195300
  C       -1.3832840     0.1661540     0.0237580
  H       -2.4571560     0.2952090     0.0227570
  C       -0.5475660     1.2813230     0.0216800
  H       -0.9729430     2.2758050     0.0197690
--
0 1
  C        0.6557800    -0.1167900     3.4585870
  H        1.0472410    -1.1239090     3.4541190
  H        1.3708540     0.6932740     3.4540860
  C       -0.6557760     0.1167920     3.4585960
  H       -1.3708480    -0.6932720     3.4541000
  H       -1.0472390     1.1239110     3.4541380
units angstrom
no_reorient
symmetry c1
}

set {
scf_type DF
mp2_type DF
e_convergence 7
reference rhf
}

energy('mp2/aug-cc-pv[tq]z', bsse_type='cp')
--------------------------------------------------------------------------

  Memory set to  37.253 GiB by Python driver.

Scratch directory: /scratch//


   ===> N-Body Interaction Abacus <===
        BSSE Treatment:                     cp
        Number of 1-body computations:     4
        Number of 2-body computations:     1

   ==> N-Body: Now computing 1-body complexes <==


       N-Body: Computing complex (1/4) with fragments (2,) in the basis of fragments (2,).


Scratch directory: /scratch//

  //>>>>>>>>>>>>>>>>>>>>>>>>>>>>>>>>>>>//
  //   CBS Setup: mp2/aug-cc-pv[tq]z   //
  //<<<<<<<<<<<<<<<<<<<<<<<<<<<<<<<<<<<//

    Naive listing of computations required.
             hf / aug-cc-pvqz              for  HF TOTAL ENERGY
            mp2 / aug-cc-pvtz              for  MP2 TOTAL ENERGY
            mp2 / aug-cc-pvqz              for  MP2 TOTAL ENERGY
             hf / aug-cc-pvtz              for  HF TOTAL ENERGY
             hf / aug-cc-pvqz              for  HF TOTAL ENERGY

    Enlightened listing of computations required.
            mp2 / aug-cc-pvtz              for  MP2 TOTAL ENERGY
            mp2 / aug-cc-pvqz              for  MP2 TOTAL ENERGY

    Full listing of computations to be obtained (required and bonus).
             hf / aug-cc-pvtz              for  HF TOTAL ENERGY
            mp2 / aug-cc-pvtz              for  MP2 TOTAL ENERGY
             hf / aug-cc-pvqz              for  HF TOTAL ENERGY
            mp2 / aug-cc-pvqz              for  MP2 TOTAL ENERGY

  //>>>>>>>>>>>>>>>>>>>>>>>>>>>>>>>>>>>>//
  // CBS Computation: MP2 / AUG-CC-PVTZ //
  //<<<<<<<<<<<<<<<<<<<<<<<<<<<<<<<<<<<<//


Scratch directory: /scratch//

*** tstart() called on node70.bme.utexas.edu
*** at Sat Apr 11 17:30:44 2020

   => Loading Basis Set <=

    Name: AUG-CC-PVTZ
    Role: ORBITAL
    Keyword: BASIS
    atoms 1, 4     entry C          line   239 file /home/liuchw/anaconda3/envs/psi4env/share/psi4/basis/aug-cc-pvtz.gbs 
    atoms 2-3, 5-6 entry H          line    40 file /home/liuchw/anaconda3/envs/psi4env/share/psi4/basis/aug-cc-pvtz.gbs 


         ---------------------------------------------------------
                                   SCF
               by Justin Turney, Rob Parrish, Andy Simmonett
                          and Daniel G. A. Smith
                              RHF Reference
                        6 Threads,  38146 MiB Core
         ---------------------------------------------------------

  ==> Geometry <==

    Molecular point group: c1
    Full point group: C1

    Geometry (in Angstrom), charge = 0, multiplicity = 1:

       Center              X                  Y                   Z               Mass       
    ------------   -----------------  -----------------  -----------------  -----------------
         C            0.655782640741    -0.116792480113     2.528517619976    12.000000000000
         H            1.047243640741    -1.123911480113     2.524049619976     1.007825032230
         H            1.370856640741     0.693271519887     2.524016619976     1.007825032230
         C           -0.655773359259     0.116789519887     2.528526619976    12.000000000000
         H           -1.370845359259    -0.693274480113     2.524030619976     1.007825032230
         H           -1.047236359259     1.123908519887     2.524068619976     1.007825032230

  Running in c1 symmetry.

  Rotational constants: A =      0.83612  B =      0.09234  C =      0.08607 [cm^-1]
  Rotational constants: A =  25066.17398  B =   2768.31629  C =   2580.39989 [MHz]
  Nuclear repulsion =   33.430011049196658

  Charge       = 0
  Multiplicity = 1
  Electrons    = 16
  Nalpha       = 8
  Nbeta        = 8

  ==> Algorithm <==

  SCF Algorithm Type is DF.
  DIIS enabled.
  MOM disabled.
  Fractional occupation disabled.
  Guess Type is SAD.
  Energy threshold   = 1.00e-07
  Density threshold  = 1.00e-08
  Integral threshold = 0.00e+00

  ==> Primary Basis <==

  Basis Set: AUG-CC-PVTZ
    Blend: AUG-CC-PVTZ
    Number of shells: 64
    Number of basis function: 184
    Number of Cartesian functions: 210
    Spherical Harmonics?: true
    Max angular momentum: 3

   => Loading Basis Set <=

    Name: (AUG-CC-PVTZ AUX)
    Role: JKFIT
    Keyword: DF_BASIS_SCF
    atoms 1, 4     entry C          line   162 file /home/liuchw/anaconda3/envs/psi4env/share/psi4/basis/aug-cc-pvtz-jkfit.gbs 
    atoms 2-3, 5-6 entry H          line    70 file /home/liuchw/anaconda3/envs/psi4env/share/psi4/basis/aug-cc-pvtz-jkfit.gbs 

  ==> Pre-Iterations <==

   -------------------------------------------------------
    Irrep   Nso     Nmo     Nalpha   Nbeta   Ndocc  Nsocc
   -------------------------------------------------------
     A        184     184       0       0       0       0
   -------------------------------------------------------
    Total     184     184       8       8       8       0
   -------------------------------------------------------

  ==> Integral Setup <==

  DFHelper Memory: AOs need 0.108 GiB; user supplied 27.940 GiB. Using in-core AOs.

  ==> MemDFJK: Density-Fitted J/K Matrices <==

    J tasked:                   Yes
    K tasked:                   Yes
    wK tasked:                   No
    OpenMP threads:               6
    Memory [MiB]:             28610
    Algorithm:                 Core
    Schwarz Cutoff:           1E-12
    Mask sparsity (%):       0.0000
    Fitting Condition:        1E-10

   => Auxiliary Basis Set <=

  Basis Set: (AUG-CC-PVTZ AUX)
    Blend: AUG-CC-PVTZ-JKFIT
    Number of shells: 116
    Number of basis function: 392
    Number of Cartesian functions: 482
    Spherical Harmonics?: true
    Max angular momentum: 4

  Minimum eigenvalue in the overlap matrix is 4.7905845231E-06.
  Using Symmetric Orthogonalization.

  SCF Guess: Superposition of Atomic Densities via on-the-fly atomic UHF.

  ==> Iterations <==

                           Total Energy        Delta E     RMS |[F,P]|

   @DF-RHF iter SAD:   -77.27107754390681   -7.72711e+01   0.00000e+00 
   @DF-RHF iter   1:   -77.98488993928466   -7.13812e-01   2.02078e-03 DIIS
   @DF-RHF iter   2:   -78.05245022148299   -6.75603e-02   8.27954e-04 DIIS
   @DF-RHF iter   3:   -78.06415835537523   -1.17081e-02   1.25031e-04 DIIS
   @DF-RHF iter   4:   -78.06472350499467   -5.65150e-04   1.24521e-05 DIIS
   @DF-RHF iter   5:   -78.06472979833707   -6.29334e-06   1.48665e-06 DIIS
   @DF-RHF iter   6:   -78.06472989836159   -1.00025e-07   1.78908e-07 DIIS
   @DF-RHF iter   7:   -78.06472989962475   -1.26316e-09   3.01712e-08 DIIS
   @DF-RHF iter   8:   -78.06472989966437   -3.96199e-11   4.24711e-09 DIIS
  Energy and wave function converged.


  ==> Post-Iterations <==

    Orbital Energies [Eh]
    ---------------------

    Doubly Occupied:                                                      

       1A    -11.231209     2A    -11.229485     3A     -1.034876  
       4A     -0.793576     5A     -0.645098     6A     -0.587924  
       7A     -0.508672     8A     -0.377249  

    Virtual:                                                              

       9A      0.032476    10A      0.040667    11A      0.042353  
      12A      0.060351    13A      0.092059    14A      0.096644  
      15A      0.104958    16A      0.120181    17A      0.145848  
      18A      0.146974    19A      0.174154    20A      0.174709  
      21A      0.185963    22A      0.198847    23A      0.239743  
      24A      0.242268    25A      0.269138    26A      0.292370  
      27A      0.300698    28A      0.314595    29A      0.319069  
      30A      0.335695    31A      0.359768    32A      0.372741  
      33A      0.389295    34A      0.400316    35A      0.401385  
      36A      0.401676    37A      0.410806    38A      0.439107  
      39A      0.444273    40A      0.450127    41A      0.451390  
      42A      0.451550    43A      0.453170    44A      0.500981  
      45A      0.529992    46A      0.594558    47A      0.599892  
      48A      0.615986    49A      0.656476    50A      0.700716  
      51A      0.756600    52A      0.792692    53A      0.800471  
      54A      0.824320    55A      0.825881    56A      0.862277  
      57A      0.892501    58A      0.902688    59A      0.911678  
      60A      0.925621    61A      0.926374    62A      0.934607  
      63A      0.940337    64A      0.942192    65A      0.959395  
      66A      0.968232    67A      1.007636    68A      1.010640  
      69A      1.022694    70A      1.054849    71A      1.069765  
      72A      1.070826    73A      1.090846    74A      1.092695  
      75A      1.101476    76A      1.117997    77A      1.131849  
      78A      1.138045    79A      1.156568    80A      1.173926  
      81A      1.272248    82A      1.296518    83A      1.317728  
      84A      1.357435    85A      1.403002    86A      1.455581  
      87A      1.470653    88A      1.488538    89A      1.570198  
      90A      1.598585    91A      1.609864    92A      1.623405  
      93A      1.668995    94A      1.693160    95A      1.729363  
      96A      1.763397    97A      1.777756    98A      1.788733  
      99A      1.812049   100A      1.821406   101A      1.854132  
     102A      1.932297   103A      1.965154   104A      2.040182  
     105A      2.062392   106A      2.075471   107A      2.098911  
     108A      2.119905   109A      2.120724   110A      2.218040  
     111A      2.254558   112A      2.305872   113A      2.341512  
     114A      2.436066   115A      2.552868   116A      2.636536  
     117A      2.875384   118A      3.010885   119A      3.028386  
     120A      3.234881   121A      3.243436   122A      3.262764  
     123A      3.278800   124A      3.291705   125A      3.331827  
     126A      3.427545   127A      3.460315   128A      3.478077  
     129A      3.490801   130A      3.567961   131A      3.604081  
     132A      3.616927   133A      3.702466   134A      3.718659  
     135A      3.733177   136A      3.758792   137A      3.791406  
     138A      3.844763   139A      3.852359   140A      3.880353  
     141A      3.981840   142A      4.020901   143A      4.094020  
     144A      4.099555   145A      4.105323   146A      4.163784  
     147A      4.233761   148A      4.293682   149A      4.334563  
     150A      4.379267   151A      4.389540   152A      4.513343  
     153A      4.564247   154A      4.584260   155A      4.585969  
     156A      4.696921   157A      4.705119   158A      4.841065  
     159A      4.914373   160A      4.940595   161A      4.949377  
     162A      4.956257   163A      4.971733   164A      5.059322  
     165A      5.163901   166A      5.259445   167A      5.273032  
     168A      5.291721   169A      5.291823   170A      5.344361  
     171A      5.506347   172A      5.585316   173A      5.591085  
     174A      5.616774   175A      5.621624   176A      6.000074  
     177A      6.094805   178A      6.471967   179A      6.571874  
     180A      6.668628   181A      6.730691   182A      6.989129  
     183A     16.884806   184A     17.282183  

    Final Occupation by Irrep:
              A 
    DOCC [     8 ]

  @DF-RHF Final Energy:   -78.06472989966437

   => Energetics <=

    Nuclear Repulsion Energy =             33.4300110491966578
    One-Electron Energy =                -170.1733043454313190
    Two-Electron Energy =                  58.6785633965703042
    Total Energy =                        -78.0647298996643713

Computation Completed


Properties will be evaluated at   0.000000,   0.000000,   0.000000 [a0]

Properties computed using the SCF density matrix

  Nuclear Dipole Moment: [e a0]
     X:     0.0001      Y:    -0.0000      Z:    76.4176

  Electronic Dipole Moment: [e a0]
     X:    -0.0001      Y:     0.0000      Z:   -76.4231

  Dipole Moment: [e a0]
     X:    -0.0000      Y:    -0.0000      Z:    -0.0055     Total:     0.0055

  Dipole Moment: [D]
     X:    -0.0000      Y:    -0.0000      Z:    -0.0140     Total:     0.0140


*** tstop() called on node70.bme.utexas.edu at Sat Apr 11 17:30:45 2020
Module time:
	user time   =       7.11 seconds =       0.12 minutes
	system time =       0.34 seconds =       0.01 minutes
	total time  =          1 seconds =       0.02 minutes
Total time:
	user time   =       7.11 seconds =       0.12 minutes
	system time =       0.34 seconds =       0.01 minutes
	total time  =          1 seconds =       0.02 minutes

*** tstart() called on node70.bme.utexas.edu
*** at Sat Apr 11 17:30:45 2020


  //>>>>>>>>>>>>>>>>>>>>>>>>>>>>>>>>>>>//
  //               DFMP2               //
  //<<<<<<<<<<<<<<<<<<<<<<<<<<<<<<<<<<<//

   => Loading Basis Set <=

    Name: (AUG-CC-PVTZ AUX)
    Role: RIFIT
    Keyword: DF_BASIS_MP2
    atoms 1, 4     entry C          line   148 file /home/liuchw/anaconda3/envs/psi4env/share/psi4/basis/aug-cc-pvtz-ri.gbs 
    atoms 2-3, 5-6 entry H          line    30 file /home/liuchw/anaconda3/envs/psi4env/share/psi4/basis/aug-cc-pvtz-ri.gbs 

	 --------------------------------------------------------
	                          DF-MP2                         
	      2nd-Order Density-Fitted Moller-Plesset Theory     
	              RMP2 Wavefunction,   6 Threads             
	                                                         
	        Rob Parrish, Justin Turney, Andy Simmonett,      
	           Ed Hohenstein, and C. David Sherrill          
	 --------------------------------------------------------

   => Auxiliary Basis Set <=

  Basis Set: (AUG-CC-PVTZ AUX)
    Blend: AUG-CC-PVTZ-RI
    Number of shells: 112
    Number of basis function: 396
    Number of Cartesian functions: 492
    Spherical Harmonics?: true
    Max angular momentum: 4

	 --------------------------------------------------------
	                 NBF =   184, NAUX =   396
	 --------------------------------------------------------
	   CLASS    FOCC     OCC    AOCC    AVIR     VIR    FVIR
	   PAIRS       0       8       8     176     176       0
	 --------------------------------------------------------

	-----------------------------------------------------------
	 ==================> DF-MP2 Energies <==================== 
	-----------------------------------------------------------
	 Reference Energy          =     -78.0647298996643713 [Eh]
	 Singles Energy            =      -0.0000000000000000 [Eh]
	 Same-Spin Energy          =      -0.0765550403592013 [Eh]
	 Opposite-Spin Energy      =      -0.2985538377627636 [Eh]
	 Correlation Energy        =      -0.3751088781219649 [Eh]
	 Total Energy              =     -78.4398387777863348 [Eh]
	-----------------------------------------------------------
	 ================> DF-SCS-MP2 Energies <================== 
	-----------------------------------------------------------
	 SCS Same-Spin Scale       =       0.3333333333333333 [-]
	 SCS Opposite-Spin Scale   =       1.2000000000000000 [-]
	 SCS Same-Spin Energy      =      -0.0255183467864004 [Eh]
	 SCS Opposite-Spin Energy  =      -0.3582646053153163 [Eh]
	 SCS Correlation Energy    =      -0.3837829521017167 [Eh]
	 SCS Total Energy          =     -78.4485128517660826 [Eh]
	-----------------------------------------------------------


*** tstop() called on node70.bme.utexas.edu at Sat Apr 11 17:30:46 2020
Module time:
	user time   =       3.54 seconds =       0.06 minutes
	system time =       0.18 seconds =       0.00 minutes
	total time  =          1 seconds =       0.02 minutes
Total time:
	user time   =      10.65 seconds =       0.18 minutes
	system time =       0.52 seconds =       0.01 minutes
	total time  =          2 seconds =       0.03 minutes

  //>>>>>>>>>>>>>>>>>>>>>>>>>>>>>>>>>>>>//
  // CBS Computation: MP2 / AUG-CC-PVQZ //
  //<<<<<<<<<<<<<<<<<<<<<<<<<<<<<<<<<<<<//


Scratch directory: /scratch//

*** tstart() called on node70.bme.utexas.edu
*** at Sat Apr 11 17:30:46 2020

   => Loading Basis Set <=

    Name: AUG-CC-PVQZ
    Role: ORBITAL
    Keyword: BASIS
    atoms 1, 4     entry C          line   303 file /home/liuchw/anaconda3/envs/psi4env/share/psi4/basis/aug-cc-pvqz.gbs 
    atoms 2-3, 5-6 entry H          line    40 file /home/liuchw/anaconda3/envs/psi4env/share/psi4/basis/aug-cc-pvqz.gbs 


         ---------------------------------------------------------
                                   SCF
               by Justin Turney, Rob Parrish, Andy Simmonett
                          and Daniel G. A. Smith
                              RHF Reference
                        6 Threads,  38146 MiB Core
         ---------------------------------------------------------

  ==> Geometry <==

    Molecular point group: c1
    Full point group: C1

    Geometry (in Angstrom), charge = 0, multiplicity = 1:

       Center              X                  Y                   Z               Mass       
    ------------   -----------------  -----------------  -----------------  -----------------
         C            0.655782640741    -0.116792480113     2.528517619976    12.000000000000
         H            1.047243640741    -1.123911480113     2.524049619976     1.007825032230
         H            1.370856640741     0.693271519887     2.524016619976     1.007825032230
         C           -0.655773359259     0.116789519887     2.528526619976    12.000000000000
         H           -1.370845359259    -0.693274480113     2.524030619976     1.007825032230
         H           -1.047236359259     1.123908519887     2.524068619976     1.007825032230

  Running in c1 symmetry.

  Rotational constants: A =      0.83612  B =      0.09234  C =      0.08607 [cm^-1]
  Rotational constants: A =  25066.17398  B =   2768.31629  C =   2580.39989 [MHz]
  Nuclear repulsion =   33.430011049196658

  Charge       = 0
  Multiplicity = 1
  Electrons    = 16
  Nalpha       = 8
  Nbeta        = 8

  ==> Algorithm <==

  SCF Algorithm Type is DF.
  DIIS enabled.
  MOM disabled.
  Fractional occupation disabled.
  Guess Type is SAD.
  Energy threshold   = 1.00e-07
  Density threshold  = 1.00e-08
  Integral threshold = 0.00e+00

  ==> Primary Basis <==

  Basis Set: AUG-CC-PVQZ
    Blend: AUG-CC-PVQZ
    Number of shells: 96
    Number of basis function: 344
    Number of Cartesian functions: 430
    Spherical Harmonics?: true
    Max angular momentum: 4

   => Loading Basis Set <=

    Name: (AUG-CC-PVQZ AUX)
    Role: JKFIT
    Keyword: DF_BASIS_SCF
    atoms 1, 4     entry C          line   178 file /home/liuchw/anaconda3/envs/psi4env/share/psi4/basis/aug-cc-pvqz-jkfit.gbs 
    atoms 2-3, 5-6 entry H          line    70 file /home/liuchw/anaconda3/envs/psi4env/share/psi4/basis/aug-cc-pvqz-jkfit.gbs 

  ==> Pre-Iterations <==

   -------------------------------------------------------
    Irrep   Nso     Nmo     Nalpha   Nbeta   Ndocc  Nsocc
   -------------------------------------------------------
     A        344     344       0       0       0       0
   -------------------------------------------------------
    Total     344     344       8       8       8       0
   -------------------------------------------------------

  ==> Integral Setup <==

  DFHelper Memory: AOs need 0.554 GiB; user supplied 27.940 GiB. Using in-core AOs.

  ==> MemDFJK: Density-Fitted J/K Matrices <==

    J tasked:                   Yes
    K tasked:                   Yes
    wK tasked:                   No
    OpenMP threads:               6
    Memory [MiB]:             28610
    Algorithm:                 Core
    Schwarz Cutoff:           1E-12
    Mask sparsity (%):       0.2839
    Fitting Condition:        1E-10

   => Auxiliary Basis Set <=

  Basis Set: (AUG-CC-PVQZ AUX)
    Blend: AUG-CC-PVQZ-JKFIT
    Number of shells: 140
    Number of basis function: 588
    Number of Cartesian functions: 800
    Spherical Harmonics?: true
    Max angular momentum: 5

  Minimum eigenvalue in the overlap matrix is 2.8290189018E-06.
  Using Symmetric Orthogonalization.

  SCF Guess: Superposition of Atomic Densities via on-the-fly atomic UHF.

  ==> Iterations <==

                           Total Energy        Delta E     RMS |[F,P]|

   @DF-RHF iter SAD:   -77.27489103545113   -7.72749e+01   0.00000e+00 
   @DF-RHF iter   1:   -77.98916377822248   -7.14273e-01   1.08764e-03 DIIS
   @DF-RHF iter   2:   -78.05701899920527   -6.78552e-02   4.46616e-04 DIIS
   @DF-RHF iter   3:   -78.06886569625090   -1.18467e-02   6.76280e-05 DIIS
   @DF-RHF iter   4:   -78.06943727714031   -5.71581e-04   6.76175e-06 DIIS
   @DF-RHF iter   5:   -78.06944384165701   -6.56452e-06   8.52933e-07 DIIS
   @DF-RHF iter   6:   -78.06944395379250   -1.12135e-07   1.00146e-07 DIIS
   @DF-RHF iter   7:   -78.06944395518289   -1.39039e-09   1.68236e-08 DIIS
   @DF-RHF iter   8:   -78.06944395522568   -4.27889e-11   2.58726e-09 DIIS
  Energy and wave function converged.


  ==> Post-Iterations <==

    Orbital Energies [Eh]
    ---------------------

    Doubly Occupied:                                                      

       1A    -11.230114     2A    -11.228387     3A     -1.034618  
       4A     -0.793516     5A     -0.645157     6A     -0.588004  
       7A     -0.508841     8A     -0.377399  

    Virtual:                                                              

       9A      0.029225    10A      0.036287    11A      0.038251  
      12A      0.052890    13A      0.081203    14A      0.082478  
      15A      0.089546    16A      0.105540    17A      0.130073  
      18A      0.130571    19A      0.145558    20A      0.155475  
      21A      0.161291    22A      0.176139    23A      0.200406  
      24A      0.210580    25A      0.238974    26A      0.246933  
      27A      0.252665    28A      0.253348    29A      0.267639  
      30A      0.273353    31A      0.278912    32A      0.302612  
      33A      0.316979    34A      0.321900    35A      0.323724  
      36A      0.335958    37A      0.340963    38A      0.343167  
      39A      0.358580    40A      0.359955    41A      0.360041  
      42A      0.371521    43A      0.398226    44A      0.411609  
      45A      0.444423    46A      0.452971    47A      0.468307  
      48A      0.515849    49A      0.518387    50A      0.531874  
      51A      0.540837    52A      0.569688    53A      0.583156  
      54A      0.590717    55A      0.618164    56A      0.622555  
      57A      0.628317    58A      0.679416    59A      0.696938  
      60A      0.697148    61A      0.706471    62A      0.713078  
      63A      0.718705    64A      0.720609    65A      0.723042  
      66A      0.728859    67A      0.738338    68A      0.764497  
      69A      0.769649    70A      0.793629    71A      0.833488  
      72A      0.839841    73A      0.850677    74A      0.852461  
      75A      0.856475    76A      0.874478    77A      0.877828  
      78A      0.878220    79A      0.889326    80A      0.953935  
      81A      0.963867    82A      0.989900    83A      1.015537  
      84A      1.023147    85A      1.038987    86A      1.047249  
      87A      1.079019    88A      1.124948    89A      1.129703  
      90A      1.181881    91A      1.182681    92A      1.193683  
      93A      1.197110    94A      1.228483    95A      1.234802  
      96A      1.280614    97A      1.290878    98A      1.300255  
      99A      1.302704   100A      1.311189   101A      1.328086  
     102A      1.340622   103A      1.402499   104A      1.435100  
     105A      1.451357   106A      1.477659   107A      1.500648  
     108A      1.502074   109A      1.542105   110A      1.543093  
     111A      1.602423   112A      1.607656   113A      1.665164  
     114A      1.684148   115A      1.709850   116A      1.720549  
     117A      1.722190   118A      1.726027   119A      1.797050  
     120A      1.807887   121A      1.811388   122A      1.826110  
     123A      1.840157   124A      1.876118   125A      1.886171  
     126A      1.950573   127A      1.955098   128A      1.957465  
     129A      1.983421   130A      1.996492   131A      2.001270  
     132A      2.013638   133A      2.046830   134A      2.074514  
     135A      2.077694   136A      2.084649   137A      2.085836  
     138A      2.103442   139A      2.122644   140A      2.123254  
     141A      2.138263   142A      2.138559   143A      2.195779  
     144A      2.210823   145A      2.252669   146A      2.272455  
     147A      2.273021   148A      2.279804   149A      2.322524  
     150A      2.355814   151A      2.375980   152A      2.384448  
     153A      2.395324   154A      2.405428   155A      2.408049  
     156A      2.431661   157A      2.441554   158A      2.453584  
     159A      2.453736   160A      2.486520   161A      2.520292  
     162A      2.532286   163A      2.540892   164A      2.575751  
     165A      2.647442   166A      2.651338   167A      2.699051  
     168A      2.702922   169A      2.723226   170A      2.729220  
     171A      2.815384   172A      2.816881   173A      2.860862  
     174A      2.873753   175A      2.900220   176A      2.913922  
     177A      2.952905   178A      2.960975   179A      2.987820  
     180A      3.025881   181A      3.043329   182A      3.053711  
     183A      3.098950   184A      3.139928   185A      3.189956  
     186A      3.315574   187A      3.316792   188A      3.378639  
     189A      3.403939   190A      3.465918   191A      3.635347  
     192A      3.649029   193A      3.651864   194A      3.669057  
     195A      3.688408   196A      3.726861   197A      3.742515  
     198A      3.777994   199A      3.792686   200A      3.842404  
     201A      3.874445   202A      3.875309   203A      3.954712  
     204A      3.970500   205A      4.010637   206A      4.021106  
     207A      4.044214   208A      4.106364   209A      4.173456  
     210A      4.203818   211A      4.230294   212A      4.265061  
     213A      4.319585   214A      4.399410   215A      4.402409  
     216A      4.402633   217A      4.490678   218A      4.495923  
     219A      4.527481   220A      4.564387   221A      4.591500  
     222A      4.670692   223A      4.754357   224A      4.809524  
     225A      4.869895   226A      5.027794   227A      5.093915  
     228A      5.178689   229A      5.202718   230A      5.414286  
     231A      5.815970   232A      5.866739   233A      5.899310  
     234A      5.964710   235A      5.979655   236A      5.995401  
     237A      6.017714   238A      6.031978   239A      6.259643  
     240A      6.262795   241A      6.282489   242A      6.302644  
     243A      6.343700   244A      6.436384   245A      6.442505  
     246A      6.457569   247A      6.505288   248A      6.530022  
     249A      6.603974   250A      6.613209   251A      6.629986  
     252A      6.678404   253A      6.689725   254A      6.722215  
     255A      6.751321   256A      6.819822   257A      6.856320  
     258A      6.892310   259A      6.955046   260A      6.984601  
     261A      7.003474   262A      7.005117   263A      7.073137  
     264A      7.075965   265A      7.119052   266A      7.183287  
     267A      7.265105   268A      7.291519   269A      7.292114  
     270A      7.298845   271A      7.333807   272A      7.430658  
     273A      7.457550   274A      7.466279   275A      7.633993  
     276A      7.644636   277A      7.747419   278A      7.752294  
     279A      7.762272   280A      7.894624   281A      7.935457  
     282A      7.996244   283A      8.012360   284A      8.016711  
     285A      8.167343   286A      8.277118   287A      8.284583  
     288A      8.310338   289A      8.408156   290A      8.427437  
     291A      8.506655   292A      8.555233   293A      8.583403  
     294A      8.714173   295A      8.718709   296A      8.762887  
     297A      8.819825   298A      8.848565   299A      8.876360  
     300A      8.923391   301A      8.926317   302A      9.080149  
     303A      9.093515   304A      9.128929   305A      9.154525  
     306A      9.219486   307A      9.265681   308A      9.445914  
     309A      9.499987   310A      9.531473   311A      9.538396  
     312A      9.638557   313A      9.663780   314A      9.715967  
     315A      9.762836   316A      9.767495   317A      9.806054  
     318A      9.941116   319A      9.980811   320A      9.984431  
     321A     10.159272   322A     10.244168   323A     10.246568  
     324A     10.272553   325A     10.286514   326A     10.483915  
     327A     10.515167   328A     10.556634   329A     10.601405  
     330A     10.693901   331A     10.703287   332A     10.848273  
     333A     11.050488   334A     11.123920   335A     11.437756  
     336A     11.454367   337A     11.732695   338A     12.269461  
     339A     12.867692   340A     12.980603   341A     13.241363  
     342A     13.641784   343A     26.723594   344A     27.001752  

    Final Occupation by Irrep:
              A 
    DOCC [     8 ]

  @DF-RHF Final Energy:   -78.06944395522568

   => Energetics <=

    Nuclear Repulsion Energy =             33.4300110491966578
    One-Electron Energy =                -170.1868376355784847
    Two-Electron Energy =                  58.6873826311561544
    Total Energy =                        -78.0694439552256796

Computation Completed


Properties will be evaluated at   0.000000,   0.000000,   0.000000 [a0]

Properties computed using the SCF density matrix

  Nuclear Dipole Moment: [e a0]
     X:     0.0001      Y:    -0.0000      Z:    76.4176

  Electronic Dipole Moment: [e a0]
     X:    -0.0001      Y:     0.0000      Z:   -76.4230

  Dipole Moment: [e a0]
     X:    -0.0000      Y:    -0.0000      Z:    -0.0055     Total:     0.0055

  Dipole Moment: [D]
     X:    -0.0000      Y:    -0.0000      Z:    -0.0139     Total:     0.0139


*** tstop() called on node70.bme.utexas.edu at Sat Apr 11 17:30:50 2020
Module time:
	user time   =      19.87 seconds =       0.33 minutes
	system time =       0.97 seconds =       0.02 minutes
	total time  =          4 seconds =       0.07 minutes
Total time:
	user time   =      30.55 seconds =       0.51 minutes
	system time =       1.49 seconds =       0.02 minutes
	total time  =          6 seconds =       0.10 minutes

*** tstart() called on node70.bme.utexas.edu
*** at Sat Apr 11 17:30:50 2020


  //>>>>>>>>>>>>>>>>>>>>>>>>>>>>>>>>>>>//
  //               DFMP2               //
  //<<<<<<<<<<<<<<<<<<<<<<<<<<<<<<<<<<<//

   => Loading Basis Set <=

    Name: (AUG-CC-PVQZ AUX)
    Role: RIFIT
    Keyword: DF_BASIS_MP2
    atoms 1, 4     entry C          line   184 file /home/liuchw/anaconda3/envs/psi4env/share/psi4/basis/aug-cc-pvqz-ri.gbs 
    atoms 2-3, 5-6 entry H          line    30 file /home/liuchw/anaconda3/envs/psi4env/share/psi4/basis/aug-cc-pvqz-ri.gbs 

	 --------------------------------------------------------
	                          DF-MP2                         
	      2nd-Order Density-Fitted Moller-Plesset Theory     
	              RMP2 Wavefunction,   6 Threads             
	                                                         
	        Rob Parrish, Justin Turney, Andy Simmonett,      
	           Ed Hohenstein, and C. David Sherrill          
	 --------------------------------------------------------

   => Auxiliary Basis Set <=

  Basis Set: (AUG-CC-PVQZ AUX)
    Blend: AUG-CC-PVQZ-RI
    Number of shells: 152
    Number of basis function: 656
    Number of Cartesian functions: 894
    Spherical Harmonics?: true
    Max angular momentum: 5

	 --------------------------------------------------------
	                 NBF =   344, NAUX =   656
	 --------------------------------------------------------
	   CLASS    FOCC     OCC    AOCC    AVIR     VIR    FVIR
	   PAIRS       0       8       8     336     336       0
	 --------------------------------------------------------

	-----------------------------------------------------------
	 ==================> DF-MP2 Energies <==================== 
	-----------------------------------------------------------
	 Reference Energy          =     -78.0694439552256796 [Eh]
	 Singles Energy            =      -0.0000000000000000 [Eh]
	 Same-Spin Energy          =      -0.0813839971493777 [Eh]
	 Opposite-Spin Energy      =      -0.3338739274447672 [Eh]
	 Correlation Energy        =      -0.4152579245941449 [Eh]
	 Total Energy              =     -78.4847018798198235 [Eh]
	-----------------------------------------------------------
	 ================> DF-SCS-MP2 Energies <================== 
	-----------------------------------------------------------
	 SCS Same-Spin Scale       =       0.3333333333333333 [-]
	 SCS Opposite-Spin Scale   =       1.2000000000000000 [-]
	 SCS Same-Spin Energy      =      -0.0271279990497926 [Eh]
	 SCS Opposite-Spin Energy  =      -0.4006487129337207 [Eh]
	 SCS Correlation Energy    =      -0.4277767119835132 [Eh]
	 SCS Total Energy          =     -78.4972206672091914 [Eh]
	-----------------------------------------------------------


*** tstop() called on node70.bme.utexas.edu at Sat Apr 11 17:30:52 2020
Module time:
	user time   =       8.87 seconds =       0.15 minutes
	system time =       0.35 seconds =       0.01 minutes
	total time  =          2 seconds =       0.03 minutes
Total time:
	user time   =      39.43 seconds =       0.66 minutes
	system time =       1.84 seconds =       0.03 minutes
	total time  =          8 seconds =       0.13 minutes

  //>>>>>>>>>>>>>>>>>>>>>>>>>>>>>>>>>>>//
  //  CBS Results: mp2/aug-cc-pv[tq]z  //
  //<<<<<<<<<<<<<<<<<<<<<<<<<<<<<<<<<<<//


   ==> HF <==

   HI-zeta (4) Energy:               -78.069443955226


   ==> Helgaker 2-point correlated extrapolation for method: MP2 <==

   LO-zeta (3) Energy:               -78.439838777786
   HI-zeta (4) Energy:               -78.484701879820
   Alpha (exponent) Value:             3.000000000000
   Extrapolated Energy:              -78.517439819142

   @Extrapolated MP2/(T,Q):          -78.517439819142



   ==> Helgaker 2-point correlated extrapolation for method: HF <==

   LO-zeta (3) Energy:               -78.064729899664
   HI-zeta (4) Energy:               -78.069443955226
   Alpha (exponent) Value:             3.000000000000
   Extrapolated Energy:              -78.072883941716

   @Extrapolated HF/(T,Q):           -78.072883941716


   ==> Components <==

  ---------------------------------------------------------------------------------------------------------
                          Method / Basis                      Rqd      Energy [Eh]   Variable
  ---------------------------------------------------------------------------------------------------------
                              hf / aug-cc-pvtz                  *     -78.06472990   HF TOTAL ENERGY
                             mp2 / aug-cc-pvtz                  *     -78.43983878   MP2 TOTAL ENERGY
                              hf / aug-cc-pvqz                  *     -78.06944396   HF TOTAL ENERGY
                             mp2 / aug-cc-pvqz                  *     -78.48470188   MP2 TOTAL ENERGY
  ---------------------------------------------------------------------------------------------------------

   ==> Stages <==

  ---------------------------------------------------------------------------------------------------------
      Stage               Method / Basis                       Wt      Energy [Eh]   Scheme
  ---------------------------------------------------------------------------------------------------------
        scf                   hf / aug-cc-pvqz                  1     -78.06944396   xtpl_highest_1
       corl                  mp2 / aug-cc-pv[tq]z               1     -78.51743982   corl_xtpl_helgaker_2
       corl                   hf / aug-cc-pv[tq]z              -1     -78.07288394   corl_xtpl_helgaker_2
  ---------------------------------------------------------------------------------------------------------

   ==> CBS <==

  ---------------------------------------------------------------------------------------------------------
      Stage               Method / Basis                               Energy [Eh]   Scheme
  ---------------------------------------------------------------------------------------------------------
        scf                   hf / aug-cc-pvqz                        -78.06944396   xtpl_highest_1
       corl                  mp2 / aug-cc-pv[tq]z                      -0.44455588   corl_xtpl_helgaker_2
      total                  CBS                                      -78.51399983   
  ---------------------------------------------------------------------------------------------------------
   => Loading Basis Set <=

    Name: DEF2-SVP
    Role: ORBITAL
    Keyword: BASIS
    atoms 1, 4     entry C          line    90 file /home/liuchw/anaconda3/envs/psi4env/share/psi4/basis/def2-svp.gbs 
    atoms 2-3, 5-6 entry H          line    15 file /home/liuchw/anaconda3/envs/psi4env/share/psi4/basis/def2-svp.gbs 


       N-Body: Complex Energy (fragments = (2,), basis = (2,):   -78.51399983265087)

       N-Body: Computing complex (2/4) with fragments (2,) in the basis of fragments (1, 2).


Scratch directory: /scratch//

  //>>>>>>>>>>>>>>>>>>>>>>>>>>>>>>>>>>>//
  //   CBS Setup: mp2/aug-cc-pv[tq]z   //
  //<<<<<<<<<<<<<<<<<<<<<<<<<<<<<<<<<<<//

    Naive listing of computations required.
             hf / aug-cc-pvqz              for  HF TOTAL ENERGY
            mp2 / aug-cc-pvtz              for  MP2 TOTAL ENERGY
            mp2 / aug-cc-pvqz              for  MP2 TOTAL ENERGY
             hf / aug-cc-pvtz              for  HF TOTAL ENERGY
             hf / aug-cc-pvqz              for  HF TOTAL ENERGY

    Enlightened listing of computations required.
            mp2 / aug-cc-pvtz              for  MP2 TOTAL ENERGY
            mp2 / aug-cc-pvqz              for  MP2 TOTAL ENERGY

    Full listing of computations to be obtained (required and bonus).
             hf / aug-cc-pvtz              for  HF TOTAL ENERGY
            mp2 / aug-cc-pvtz              for  MP2 TOTAL ENERGY
             hf / aug-cc-pvqz              for  HF TOTAL ENERGY
            mp2 / aug-cc-pvqz              for  MP2 TOTAL ENERGY

  //>>>>>>>>>>>>>>>>>>>>>>>>>>>>>>>>>>>>//
  // CBS Computation: MP2 / AUG-CC-PVTZ //
  //<<<<<<<<<<<<<<<<<<<<<<<<<<<<<<<<<<<<//


Scratch directory: /scratch//

*** tstart() called on node70.bme.utexas.edu
*** at Sat Apr 11 17:30:54 2020

   => Loading Basis Set <=

    Name: AUG-CC-PVTZ
    Role: ORBITAL
    Keyword: BASIS
    atoms 1, 3, 5, 7, 9, 11, 13, 16        entry C          line   239 file /home/liuchw/anaconda3/envs/psi4env/share/psi4/basis/aug-cc-pvtz.gbs 
    atoms 2, 4, 6, 8, 10, 12, 14-15, 17-18 entry H          line    40 file /home/liuchw/anaconda3/envs/psi4env/share/psi4/basis/aug-cc-pvtz.gbs 


         ---------------------------------------------------------
                                   SCF
               by Justin Turney, Rob Parrish, Andy Simmonett
                          and Daniel G. A. Smith
                              RHF Reference
                        6 Threads,  38146 MiB Core
         ---------------------------------------------------------

  ==> Geometry <==

    Molecular point group: c1
    Full point group: C1

    Geometry (in Angstrom), charge = 0, multiplicity = 1:

       Center              X                  Y                   Z               Mass       
    ------------   -----------------  -----------------  -----------------  -----------------
      Gh(C)           0.835519640741     1.115164519887    -0.908668380024    12.000000000000
      Gh(H)           1.484326640741     1.980606519887    -0.910535380024     1.007825032230
      Gh(C)           1.383277640741    -0.166149480113    -0.906304380024    12.000000000000
      Gh(H)           2.457151640741    -0.295207480113    -0.907298380024     1.007825032230
      Gh(C)           0.547557640741    -1.281318480113    -0.908383380024    12.000000000000
      Gh(H)           0.972938640741    -2.275807480113    -0.910290380024     1.007825032230
      Gh(C)          -0.835520359259    -1.115164480113    -0.908670380024    12.000000000000
      Gh(H)          -1.484331359259    -1.980608480113    -0.910539380024     1.007825032230
      Gh(C)          -1.383281359259     0.166151519887    -0.906311380024    12.000000000000
      Gh(H)          -2.457153359259     0.295206519887    -0.907312380024     1.007825032230
      Gh(C)          -0.547563359259     1.281320519887    -0.908389380024    12.000000000000
      Gh(H)          -0.972940359259     2.275802519887    -0.910300380024     1.007825032230
         C            0.655782640741    -0.116792480113     2.528517619976    12.000000000000
         H            1.047243640741    -1.123911480113     2.524049619976     1.007825032230
         H            1.370856640741     0.693271519887     2.524016619976     1.007825032230
         C           -0.655773359259     0.116789519887     2.528526619976    12.000000000000
         H           -1.370845359259    -0.693274480113     2.524030619976     1.007825032230
         H           -1.047236359259     1.123908519887     2.524068619976     1.007825032230

  Running in c1 symmetry.

  Rotational constants: A =      0.08558  B =      0.05027  C =      0.04836 [cm^-1]
  Rotational constants: A =   2565.54110  B =   1507.11883  C =   1449.83182 [MHz]
  Nuclear repulsion =   33.430011049196658

  Charge       = 0
  Multiplicity = 1
  Electrons    = 16
  Nalpha       = 8
  Nbeta        = 8

  ==> Algorithm <==

  SCF Algorithm Type is DF.
  DIIS enabled.
  MOM disabled.
  Fractional occupation disabled.
  Guess Type is SAD.
  Energy threshold   = 1.00e-07
  Density threshold  = 1.00e-08
  Integral threshold = 0.00e+00

  ==> Primary Basis <==

  Basis Set: AUG-CC-PVTZ
    Blend: AUG-CC-PVTZ
    Number of shells: 202
    Number of basis function: 598
    Number of Cartesian functions: 690
    Spherical Harmonics?: true
    Max angular momentum: 3

   => Loading Basis Set <=

    Name: (AUG-CC-PVTZ AUX)
    Role: JKFIT
    Keyword: DF_BASIS_SCF
    atoms 1, 3, 5, 7, 9, 11, 13, 16        entry C          line   162 file /home/liuchw/anaconda3/envs/psi4env/share/psi4/basis/aug-cc-pvtz-jkfit.gbs 
    atoms 2, 4, 6, 8, 10, 12, 14-15, 17-18 entry H          line    70 file /home/liuchw/anaconda3/envs/psi4env/share/psi4/basis/aug-cc-pvtz-jkfit.gbs 

  ==> Pre-Iterations <==

   -------------------------------------------------------
    Irrep   Nso     Nmo     Nalpha   Nbeta   Ndocc  Nsocc
   -------------------------------------------------------
     A        598     598       0       0       0       0
   -------------------------------------------------------
    Total     598     598       8       8       8       0
   -------------------------------------------------------

  ==> Integral Setup <==

  DFHelper Memory: AOs need 3.451 GiB; user supplied 27.940 GiB. Using in-core AOs.

  ==> MemDFJK: Density-Fitted J/K Matrices <==

    J tasked:                   Yes
    K tasked:                   Yes
    wK tasked:                   No
    OpenMP threads:               6
    Memory [MiB]:             28610
    Algorithm:                 Core
    Schwarz Cutoff:           1E-12
    Mask sparsity (%):       2.6515
    Fitting Condition:        1E-10

   => Auxiliary Basis Set <=

  Basis Set: (AUG-CC-PVTZ AUX)
    Blend: AUG-CC-PVTZ-JKFIT
    Number of shells: 380
    Number of basis function: 1292
    Number of Cartesian functions: 1598
    Spherical Harmonics?: true
    Max angular momentum: 4

  Minimum eigenvalue in the overlap matrix is 2.4147297659E-07.
  Using Symmetric Orthogonalization.

  SCF Guess: Superposition of Atomic Densities via on-the-fly atomic UHF.

  ==> Iterations <==

                           Total Energy        Delta E     RMS |[F,P]|

   @DF-RHF iter SAD:   -77.27107823565890   -7.72711e+01   0.00000e+00 
   @DF-RHF iter   1:   -77.98497464494947   -7.13896e-01   6.21818e-04 DIIS
   @DF-RHF iter   2:   -78.05253064463601   -6.75560e-02   2.54702e-04 DIIS
   @DF-RHF iter   3:   -78.06423346671536   -1.17028e-02   3.84714e-05 DIIS
   @DF-RHF iter   4:   -78.06479856165969   -5.65095e-04   3.84016e-06 DIIS
   @DF-RHF iter   5:   -78.06480490791215   -6.34625e-06   4.59518e-07 DIIS
   @DF-RHF iter   6:   -78.06480500855942   -1.00647e-07   5.52327e-08 DIIS
   @DF-RHF iter   7:   -78.06480500982362   -1.26420e-09   9.33692e-09 DIIS
  Energy and wave function converged.


  ==> Post-Iterations <==

    Orbital Energies [Eh]
    ---------------------

    Doubly Occupied:                                                      

       1A    -11.231142     2A    -11.229417     3A     -1.034824  
       4A     -0.793523     5A     -0.645036     6A     -0.587872  
       7A     -0.508615     8A     -0.377250  

    Virtual:                                                              

       9A      0.021600    10A      0.031008    11A      0.031419  
      12A      0.042105    13A      0.047477    14A      0.048016  
      15A      0.051049    16A      0.054177    17A      0.065367  
      18A      0.072502    19A      0.077987    20A      0.090409  
      21A      0.093106    22A      0.096190    23A      0.102120  
      24A      0.112064    25A      0.113757    26A      0.118475  
      27A      0.122344    28A      0.122436    29A      0.123101  
      30A      0.125342    31A      0.146671    32A      0.147003  
      33A      0.151247    34A      0.153870    35A      0.155139  
      36A      0.156770    37A      0.157739    38A      0.157776  
      39A      0.158733    40A      0.165546    41A      0.166538  
      42A      0.171106    43A      0.183084    44A      0.195666  
      45A      0.197332    46A      0.202657    47A      0.220627  
      48A      0.221247    49A      0.233257    50A      0.236027  
      51A      0.239068    52A      0.243397    53A      0.249669  
      54A      0.279454    55A      0.279615    56A      0.284362  
      57A      0.294671    58A      0.302979    59A      0.307595  
      60A      0.308774    61A      0.314562    62A      0.318099  
      63A      0.320485    64A      0.322279    65A      0.331195  
      66A      0.339947    67A      0.342784    68A      0.355608  
      69A      0.361099    70A      0.361876    71A      0.364263  
      72A      0.367631    73A      0.374204    74A      0.375360  
      75A      0.378349    76A      0.387676    77A      0.390410  
      78A      0.391912    79A      0.394894    80A      0.398061  
      81A      0.399290    82A      0.402434    83A      0.418503  
      84A      0.419810    85A      0.429710    86A      0.440000  
      87A      0.440731    88A      0.444465    89A      0.450176  
      90A      0.450547    91A      0.461551    92A      0.462587  
      93A      0.463090    94A      0.474059    95A      0.474305  
      96A      0.485583    97A      0.486078    98A      0.492239  
      99A      0.494069   100A      0.496739   101A      0.519315  
     102A      0.525280   103A      0.526102   104A      0.534462  
     105A      0.548338   106A      0.550751   107A      0.552594  
     108A      0.555974   109A      0.569367   110A      0.578891  
     111A      0.579740   112A      0.588068   113A      0.592258  
     114A      0.604821   115A      0.604967   116A      0.614106  
     117A      0.619264   118A      0.626239   119A      0.631568  
     120A      0.636802   121A      0.643346   122A      0.647258  
     123A      0.673729   124A      0.680629   125A      0.682040  
     126A      0.685412   127A      0.688967   128A      0.692944  
     129A      0.695373   130A      0.697259   131A      0.704138  
     132A      0.707875   133A      0.711992   134A      0.716107  
     135A      0.721273   136A      0.721523   137A      0.732235  
     138A      0.737434   139A      0.754304   140A      0.759862  
     141A      0.766405   142A      0.769241   143A      0.779759  
     144A      0.786352   145A      0.793554   146A      0.794336  
     147A      0.797155   148A      0.805546   149A      0.820434  
     150A      0.831467   151A      0.838919   152A      0.841312  
     153A      0.853751   154A      0.878641   155A      0.880835  
     156A      0.888684   157A      0.899148   158A      0.909596  
     159A      0.919718   160A      0.923864   161A      0.926968  
     162A      0.934221   163A      0.938357   164A      0.949696  
     165A      0.961501   166A      0.972007   167A      0.972179  
     168A      0.977723   169A      1.000372   170A      1.006114  
     171A      1.013769   172A      1.019339   173A      1.030652  
     174A      1.032471   175A      1.038795   176A      1.051670  
     177A      1.064727   178A      1.064828   179A      1.069206  
     180A      1.069926   181A      1.072541   182A      1.089736  
     183A      1.092013   184A      1.099638   185A      1.103985  
     186A      1.111840   187A      1.129912   188A      1.130619  
     189A      1.138793   190A      1.142364   191A      1.156200  
     192A      1.173692   193A      1.179975   194A      1.181487  
     195A      1.182283   196A      1.187613   197A      1.194529  
     198A      1.197418   199A      1.206857   200A      1.214565  
     201A      1.221709   202A      1.223864   203A      1.228793  
     204A      1.237101   205A      1.238074   206A      1.246253  
     207A      1.252073   208A      1.263703   209A      1.264563  
     210A      1.274813   211A      1.279293   212A      1.287164  
     213A      1.288240   214A      1.309383   215A      1.311315  
     216A      1.314402   217A      1.318890   218A      1.320987  
     219A      1.326627   220A      1.332167   221A      1.332879  
     222A      1.338457   223A      1.339221   224A      1.352206  
     225A      1.357519   226A      1.360472   227A      1.383633  
     228A      1.387403   229A      1.404406   230A      1.423767  
     231A      1.425533   232A      1.433385   233A      1.442739  
     234A      1.448465   235A      1.452992   236A      1.461730  
     237A      1.463732   238A      1.485749   239A      1.495883  
     240A      1.499476   241A      1.511311   242A      1.521523  
     243A      1.525461   244A      1.531059   245A      1.553236  
     246A      1.558950   247A      1.563563   248A      1.566230  
     249A      1.568627   250A      1.579923   251A      1.583028  
     252A      1.592061   253A      1.596268   254A      1.605694  
     255A      1.611727   256A      1.614821   257A      1.618749  
     258A      1.657935   259A      1.665981   260A      1.666979  
     261A      1.671348   262A      1.677946   263A      1.679975  
     264A      1.682382   265A      1.693530   266A      1.699020  
     267A      1.705232   268A      1.707627   269A      1.715479  
     270A      1.741450   271A      1.750477   272A      1.751898  
     273A      1.753458   274A      1.770708   275A      1.793622  
     276A      1.801949   277A      1.803732   278A      1.809719  
     279A      1.844641   280A      1.846706   281A      1.874050  
     282A      1.876764   283A      1.902538   284A      1.903878  
     285A      1.912815   286A      1.919956   287A      1.929115  
     288A      1.930584   289A      1.942117   290A      1.978124  
     291A      1.992293   292A      1.995583   293A      2.005569  
     294A      2.030270   295A      2.035728   296A      2.042440  
     297A      2.054730   298A      2.077002   299A      2.115432  
     300A      2.121439   301A      2.135696   302A      2.138855  
     303A      2.152609   304A      2.164092   305A      2.169279  
     306A      2.183909   307A      2.186116   308A      2.199719  
     309A      2.202216   310A      2.208931   311A      2.216844  
     312A      2.235203   313A      2.242493   314A      2.251472  
     315A      2.287739   316A      2.295961   317A      2.298992  
     318A      2.339061   319A      2.344366   320A      2.356465  
     321A      2.365065   322A      2.370001   323A      2.370227  
     324A      2.382159   325A      2.386200   326A      2.387480  
     327A      2.394298   328A      2.402061   329A      2.407967  
     330A      2.408060   331A      2.423169   332A      2.432025  
     333A      2.505646   334A      2.509950   335A      2.516659  
     336A      2.521534   337A      2.528403   338A      2.533868  
     339A      2.555783   340A      2.555867   341A      2.564047  
     342A      2.571777   343A      2.575084   344A      2.593984  
     345A      2.596686   346A      2.612621   347A      2.630175  
     348A      2.639489   349A      2.657760   350A      2.683725  
     351A      2.689210   352A      2.760461   353A      2.785892  
     354A      2.844171   355A      2.844279   356A      2.847425  
     357A      2.890102   358A      2.897686   359A      2.905728  
     360A      2.938010   361A      2.946887   362A      3.052104  
     363A      3.055601   364A      3.108177   365A      3.145980  
     366A      3.151399   367A      3.158096   368A      3.185115  
     369A      3.268979   370A      3.291516   371A      3.298091  
     372A      3.336152   373A      3.429858   374A      3.455838  
     375A      3.462470   376A      3.503575   377A      3.509061  
     378A      3.520344   379A      3.521155   380A      3.537318  
     381A      3.557832   382A      3.580502   383A      3.600772  
     384A      3.640545   385A      3.666320   386A      3.745874  
     387A      3.758310   388A      3.761180   389A      3.782191  
     390A      3.789727   391A      3.794593   392A      3.855393  
     393A      3.871188   394A      3.871889   395A      3.878880  
     396A      3.898136   397A      3.940606   398A      3.949792  
     399A      3.967987   400A      3.975440   401A      4.010944  
     402A      4.033514   403A      4.044117   404A      4.046815  
     405A      4.059941   406A      4.109362   407A      4.113337  
     408A      4.118342   409A      4.121729   410A      4.129106  
     411A      4.137588   412A      4.140253   413A      4.142008  
     414A      4.152045   415A      4.163670   416A      4.180401  
     417A      4.181976   418A      4.218802   419A      4.221036  
     420A      4.230289   421A      4.234433   422A      4.240200  
     423A      4.268695   424A      4.275515   425A      4.278518  
     426A      4.299157   427A      4.308454   428A      4.316735  
     429A      4.333699   430A      4.337879   431A      4.384384  
     432A      4.403163   433A      4.410240   434A      4.424683  
     435A      4.431956   436A      4.444079   437A      4.446067  
     438A      4.474964   439A      4.486954   440A      4.515063  
     441A      4.534825   442A      4.544545   443A      4.567075  
     444A      4.581998   445A      4.582632   446A      4.585059  
     447A      4.588571   448A      4.597473   449A      4.606490  
     450A      4.611397   451A      4.616015   452A      4.626054  
     453A      4.649224   454A      4.656877   455A      4.662549  
     456A      4.679884   457A      4.707243   458A      4.723782  
     459A      4.727999   460A      4.745985   461A      4.748661  
     462A      4.812577   463A      4.844986   464A      4.849098  
     465A      4.880600   466A      4.905989   467A      4.912679  
     468A      4.954769   469A      4.957880   470A      4.967936  
     471A      4.968857   472A      4.976933   473A      4.992524  
     474A      4.993946   475A      5.018178   476A      5.030302  
     477A      5.059245   478A      5.071161   479A      5.092011  
     480A      5.115792   481A      5.121991   482A      5.127277  
     483A      5.153928   484A      5.167611   485A      5.171700  
     486A      5.188833   487A      5.197002   488A      5.206798  
     489A      5.210280   490A      5.227785   491A      5.240192  
     492A      5.240942   493A      5.280711   494A      5.289426  
     495A      5.293986   496A      5.310346   497A      5.311076  
     498A      5.328370   499A      5.370930   500A      5.424207  
     501A      5.431511   502A      5.456901   503A      5.463646  
     504A      5.467615   505A      5.506737   506A      5.512837  
     507A      5.534692   508A      5.536344   509A      5.543593  
     510A      5.600156   511A      5.618008   512A      5.636824  
     513A      5.640278   514A      5.657252   515A      5.670805  
     516A      5.671054   517A      5.701393   518A      5.710013  
     519A      5.725079   520A      5.744475   521A      5.745720  
     522A      5.755097   523A      5.804737   524A      5.810621  
     525A      5.811892   526A      5.819001   527A      5.828818  
     528A      5.894952   529A      5.913483   530A      5.976876  
     531A      5.980815   532A      6.012424   533A      6.018414  
     534A      6.028615   535A      6.125420   536A      6.144777  
     537A      6.147175   538A      6.184910   539A      6.204595  
     540A      6.208219   541A      6.209973   542A      6.219352  
     543A      6.435438   544A      6.446738   545A      6.448552  
     546A      6.480220   547A      6.525506   548A      6.532400  
     549A      6.626608   550A      6.718800   551A      6.731983  
     552A      6.823511   553A      6.838417   554A      6.854149  
     555A      6.897424   556A      6.911901   557A      7.008846  
     558A      7.032895   559A      7.081615   560A      7.107821  
     561A      7.138254   562A      7.161529   563A      7.168276  
     564A      7.192562   565A      7.408398   566A      7.506888  
     567A      7.524682   568A      7.597807   569A      7.669530  
     570A      7.677990   571A      7.801677   572A      7.907846  
     573A      8.011807   574A      8.209960   575A      8.213865  
     576A      8.222254   577A      8.342036   578A      8.344024  
     579A      8.972671   580A      8.985802   581A      9.380300  
     582A      9.410503   583A      9.464863   584A     10.062292  
     585A     10.067240   586A     10.999801   587A     11.051316  
     588A     11.337724   589A     11.359138   590A     11.388707  
     591A     17.341564   592A     17.682852   593A     49.725709  
     594A     49.781089   595A     51.688673   596A     55.665866  
     597A     55.842873   598A     56.705198  

    Final Occupation by Irrep:
              A 
    DOCC [     8 ]

  @DF-RHF Final Energy:   -78.06480500982362

   => Energetics <=

    Nuclear Repulsion Energy =             33.4300110491966578
    One-Electron Energy =                -170.1742786993764298
    Two-Electron Energy =                  58.6794626403561637
    Total Energy =                        -78.0648050098236155

Computation Completed


Properties will be evaluated at   0.000000,   0.000000,   0.000000 [a0]

Properties computed using the SCF density matrix

  Nuclear Dipole Moment: [e a0]
     X:     0.0001      Y:    -0.0000      Z:    76.4176

  Electronic Dipole Moment: [e a0]
     X:    -0.0001      Y:     0.0000      Z:   -76.4228

  Dipole Moment: [e a0]
     X:    -0.0000      Y:    -0.0000      Z:    -0.0053     Total:     0.0053

  Dipole Moment: [D]
     X:    -0.0000      Y:    -0.0000      Z:    -0.0134     Total:     0.0134


*** tstop() called on node70.bme.utexas.edu at Sat Apr 11 17:31:10 2020
Module time:
	user time   =      76.69 seconds =       1.28 minutes
	system time =       1.90 seconds =       0.03 minutes
	total time  =         16 seconds =       0.27 minutes
Total time:
	user time   =     118.28 seconds =       1.97 minutes
	system time =       3.80 seconds =       0.06 minutes
	total time  =         26 seconds =       0.43 minutes

*** tstart() called on node70.bme.utexas.edu
*** at Sat Apr 11 17:31:10 2020


  //>>>>>>>>>>>>>>>>>>>>>>>>>>>>>>>>>>>//
  //               DFMP2               //
  //<<<<<<<<<<<<<<<<<<<<<<<<<<<<<<<<<<<//

   => Loading Basis Set <=

    Name: (AUG-CC-PVTZ AUX)
    Role: RIFIT
    Keyword: DF_BASIS_MP2
    atoms 1, 3, 5, 7, 9, 11, 13, 16        entry C          line   148 file /home/liuchw/anaconda3/envs/psi4env/share/psi4/basis/aug-cc-pvtz-ri.gbs 
    atoms 2, 4, 6, 8, 10, 12, 14-15, 17-18 entry H          line    30 file /home/liuchw/anaconda3/envs/psi4env/share/psi4/basis/aug-cc-pvtz-ri.gbs 

	 --------------------------------------------------------
	                          DF-MP2                         
	      2nd-Order Density-Fitted Moller-Plesset Theory     
	              RMP2 Wavefunction,   6 Threads             
	                                                         
	        Rob Parrish, Justin Turney, Andy Simmonett,      
	           Ed Hohenstein, and C. David Sherrill          
	 --------------------------------------------------------

   => Auxiliary Basis Set <=

  Basis Set: (AUG-CC-PVTZ AUX)
    Blend: AUG-CC-PVTZ-RI
    Number of shells: 364
    Number of basis function: 1308
    Number of Cartesian functions: 1638
    Spherical Harmonics?: true
    Max angular momentum: 4

	 --------------------------------------------------------
	                 NBF =   598, NAUX =  1308
	 --------------------------------------------------------
	   CLASS    FOCC     OCC    AOCC    AVIR     VIR    FVIR
	   PAIRS       0       8       8     590     590       0
	 --------------------------------------------------------

	-----------------------------------------------------------
	 ==================> DF-MP2 Energies <==================== 
	-----------------------------------------------------------
	 Reference Energy          =     -78.0648050098236155 [Eh]
	 Singles Energy            =      -0.0000000000000000 [Eh]
	 Same-Spin Energy          =      -0.0766334226791410 [Eh]
	 Opposite-Spin Energy      =      -0.2993642844050016 [Eh]
	 Correlation Energy        =      -0.3759977070841426 [Eh]
	 Total Energy              =     -78.4408027169077542 [Eh]
	-----------------------------------------------------------
	 ================> DF-SCS-MP2 Energies <================== 
	-----------------------------------------------------------
	 SCS Same-Spin Scale       =       0.3333333333333333 [-]
	 SCS Opposite-Spin Scale   =       1.2000000000000000 [-]
	 SCS Same-Spin Energy      =      -0.0255444742263803 [Eh]
	 SCS Opposite-Spin Energy  =      -0.3592371412860019 [Eh]
	 SCS Correlation Energy    =      -0.3847816155123822 [Eh]
	 SCS Total Energy          =     -78.4495866253359964 [Eh]
	-----------------------------------------------------------


*** tstop() called on node70.bme.utexas.edu at Sat Apr 11 17:31:18 2020
Module time:
	user time   =      38.66 seconds =       0.64 minutes
	system time =       1.08 seconds =       0.02 minutes
	total time  =          8 seconds =       0.13 minutes
Total time:
	user time   =     156.95 seconds =       2.62 minutes
	system time =       4.88 seconds =       0.08 minutes
	total time  =         34 seconds =       0.57 minutes

  //>>>>>>>>>>>>>>>>>>>>>>>>>>>>>>>>>>>>//
  // CBS Computation: MP2 / AUG-CC-PVQZ //
  //<<<<<<<<<<<<<<<<<<<<<<<<<<<<<<<<<<<<//


Scratch directory: /scratch//

*** tstart() called on node70.bme.utexas.edu
*** at Sat Apr 11 17:31:18 2020

   => Loading Basis Set <=

    Name: AUG-CC-PVQZ
    Role: ORBITAL
    Keyword: BASIS
    atoms 1, 3, 5, 7, 9, 11, 13, 16        entry C          line   303 file /home/liuchw/anaconda3/envs/psi4env/share/psi4/basis/aug-cc-pvqz.gbs 
    atoms 2, 4, 6, 8, 10, 12, 14-15, 17-18 entry H          line    40 file /home/liuchw/anaconda3/envs/psi4env/share/psi4/basis/aug-cc-pvqz.gbs 


         ---------------------------------------------------------
                                   SCF
               by Justin Turney, Rob Parrish, Andy Simmonett
                          and Daniel G. A. Smith
                              RHF Reference
                        6 Threads,  38146 MiB Core
         ---------------------------------------------------------

  ==> Geometry <==

    Molecular point group: c1
    Full point group: C1

    Geometry (in Angstrom), charge = 0, multiplicity = 1:

       Center              X                  Y                   Z               Mass       
    ------------   -----------------  -----------------  -----------------  -----------------
      Gh(C)           0.835519640741     1.115164519887    -0.908668380024    12.000000000000
      Gh(H)           1.484326640741     1.980606519887    -0.910535380024     1.007825032230
      Gh(C)           1.383277640741    -0.166149480113    -0.906304380024    12.000000000000
      Gh(H)           2.457151640741    -0.295207480113    -0.907298380024     1.007825032230
      Gh(C)           0.547557640741    -1.281318480113    -0.908383380024    12.000000000000
      Gh(H)           0.972938640741    -2.275807480113    -0.910290380024     1.007825032230
      Gh(C)          -0.835520359259    -1.115164480113    -0.908670380024    12.000000000000
      Gh(H)          -1.484331359259    -1.980608480113    -0.910539380024     1.007825032230
      Gh(C)          -1.383281359259     0.166151519887    -0.906311380024    12.000000000000
      Gh(H)          -2.457153359259     0.295206519887    -0.907312380024     1.007825032230
      Gh(C)          -0.547563359259     1.281320519887    -0.908389380024    12.000000000000
      Gh(H)          -0.972940359259     2.275802519887    -0.910300380024     1.007825032230
         C            0.655782640741    -0.116792480113     2.528517619976    12.000000000000
         H            1.047243640741    -1.123911480113     2.524049619976     1.007825032230
         H            1.370856640741     0.693271519887     2.524016619976     1.007825032230
         C           -0.655773359259     0.116789519887     2.528526619976    12.000000000000
         H           -1.370845359259    -0.693274480113     2.524030619976     1.007825032230
         H           -1.047236359259     1.123908519887     2.524068619976     1.007825032230

  Running in c1 symmetry.

  Rotational constants: A =      0.08558  B =      0.05027  C =      0.04836 [cm^-1]
  Rotational constants: A =   2565.54110  B =   1507.11883  C =   1449.83182 [MHz]
  Nuclear repulsion =   33.430011049196658

  Charge       = 0
  Multiplicity = 1
  Electrons    = 16
  Nalpha       = 8
  Nbeta        = 8

  ==> Algorithm <==

  SCF Algorithm Type is DF.
  DIIS enabled.
  MOM disabled.
  Fractional occupation disabled.
  Guess Type is SAD.
  Energy threshold   = 1.00e-07
  Density threshold  = 1.00e-08
  Integral threshold = 0.00e+00

  ==> Primary Basis <==

  Basis Set: AUG-CC-PVQZ
    Blend: AUG-CC-PVQZ
    Number of shells: 300
    Number of basis function: 1100
    Number of Cartesian functions: 1390
    Spherical Harmonics?: true
    Max angular momentum: 4

   => Loading Basis Set <=

    Name: (AUG-CC-PVQZ AUX)
    Role: JKFIT
    Keyword: DF_BASIS_SCF
    atoms 1, 3, 5, 7, 9, 11, 13, 16        entry C          line   178 file /home/liuchw/anaconda3/envs/psi4env/share/psi4/basis/aug-cc-pvqz-jkfit.gbs 
    atoms 2, 4, 6, 8, 10, 12, 14-15, 17-18 entry H          line    70 file /home/liuchw/anaconda3/envs/psi4env/share/psi4/basis/aug-cc-pvqz-jkfit.gbs 

  ==> Pre-Iterations <==

   -------------------------------------------------------
    Irrep   Nso     Nmo     Nalpha   Nbeta   Ndocc  Nsocc
   -------------------------------------------------------
     A       1100    1100       0       0       0       0
   -------------------------------------------------------
    Total    1100    1100       8       8       8       0
   -------------------------------------------------------

  ==> Integral Setup <==

  DFHelper Memory: AOs need 16.260 GiB; user supplied 27.940 GiB. Using in-core AOs.

  ==> MemDFJK: Density-Fitted J/K Matrices <==

    J tasked:                   Yes
    K tasked:                   Yes
    wK tasked:                   No
    OpenMP threads:               6
    Memory [MiB]:             28610
    Algorithm:                 Core
    Schwarz Cutoff:           1E-12
    Mask sparsity (%):       7.0879
    Fitting Condition:        1E-10

   => Auxiliary Basis Set <=

  Basis Set: (AUG-CC-PVQZ AUX)
    Blend: AUG-CC-PVQZ-JKFIT
    Number of shells: 452
    Number of basis function: 1896
    Number of Cartesian functions: 2594
    Spherical Harmonics?: true
    Max angular momentum: 5

  Minimum eigenvalue in the overlap matrix is 1.5517551417E-07.
  Using Symmetric Orthogonalization.

  SCF Guess: Superposition of Atomic Densities via on-the-fly atomic UHF.

  ==> Iterations <==

                           Total Energy        Delta E     RMS |[F,P]|

   @DF-RHF iter SAD:   -77.27489129416621   -7.72749e+01   0.00000e+00 
   @DF-RHF iter   1:   -77.98919243076777   -7.14301e-01   3.40138e-04 DIIS
   @DF-RHF iter   2:   -78.05704711733476   -6.78547e-02   1.39660e-04 DIIS
   @DF-RHF iter   3:   -78.06889196627189   -1.18448e-02   2.11500e-05 DIIS
   @DF-RHF iter   4:   -78.06946346453088   -5.71498e-04   2.11470e-06 DIIS
   @DF-RHF iter   5:   -78.06947004178568   -6.57725e-06   2.67679e-07 DIIS
   @DF-RHF iter   6:   -78.06947015490603   -1.13120e-07   3.13277e-08 DIIS
   @DF-RHF iter   7:   -78.06947015629200   -1.38597e-09   5.26862e-09 DIIS
  Energy and wave function converged.


  ==> Post-Iterations <==

    Orbital Energies [Eh]
    ---------------------

    Doubly Occupied:                                                      

       1A    -11.230102     2A    -11.228375     3A     -1.034596  
       4A     -0.793495     5A     -0.645135     6A     -0.587984  
       7A     -0.508821     8A     -0.377394  

    Virtual:                                                              

       9A      0.019685    10A      0.027486    11A      0.027860  
      12A      0.038135    13A      0.042062    14A      0.042557  
      15A      0.046058    16A      0.048670    17A      0.059314  
      18A      0.064191    19A      0.068256    20A      0.079175  
      21A      0.082781    22A      0.084667    23A      0.091919  
      24A      0.097425    25A      0.098701    26A      0.101980  
      27A      0.106645    28A      0.108645    29A      0.109040  
      30A      0.111328    31A      0.127324    32A      0.130598  
      33A      0.130822    34A      0.134101    35A      0.135825  
      36A      0.136151    37A      0.136954    38A      0.138368  
      39A      0.138410    40A      0.144719    41A      0.146716  
      42A      0.151169    43A      0.154704    44A      0.171843  
      45A      0.174313    46A      0.178397    47A      0.187137  
      48A      0.193531    49A      0.202206    50A      0.203511  
      51A      0.210389    52A      0.211056    53A      0.215961  
      54A      0.234326    55A      0.239423    56A      0.253365  
      57A      0.257189    58A      0.258118    59A      0.259365  
      60A      0.265465    61A      0.268901    62A      0.271859  
      63A      0.272949    64A      0.275174    65A      0.278393  
      66A      0.278793    67A      0.285657    68A      0.300599  
      69A      0.302305    70A      0.303622    71A      0.309278  
      72A      0.310406    73A      0.311679    74A      0.312217  
      75A      0.315611    76A      0.320563    77A      0.322882  
      78A      0.328847    79A      0.330262    80A      0.332657  
      81A      0.334476    82A      0.339601    83A      0.344354  
      84A      0.356524    85A      0.358472    86A      0.367504  
      87A      0.370075    88A      0.375563    89A      0.376604  
      90A      0.379343    91A      0.379500    92A      0.383271  
      93A      0.387965    94A      0.390501    95A      0.393227  
      96A      0.395885    97A      0.397635    98A      0.403247  
      99A      0.407441   100A      0.411525   101A      0.428926  
     102A      0.439225   103A      0.442927   104A      0.448856  
     105A      0.451850   106A      0.456491   107A      0.459003  
     108A      0.461027   109A      0.461832   110A      0.462141  
     111A      0.466861   112A      0.477105   113A      0.481780  
     114A      0.488786   115A      0.490391   116A      0.490795  
     117A      0.492781   118A      0.496199   119A      0.509149  
     120A      0.510150   121A      0.514025   122A      0.518185  
     123A      0.525929   124A      0.526261   125A      0.530940  
     126A      0.533724   127A      0.542454   128A      0.548493  
     129A      0.549933   130A      0.554580   131A      0.561428  
     132A      0.562495   133A      0.568328   134A      0.569347  
     135A      0.578764   136A      0.579147   137A      0.582302  
     138A      0.588354   139A      0.590394   140A      0.591896  
     141A      0.598543   142A      0.601181   143A      0.605083  
     144A      0.618469   145A      0.623834   146A      0.628358  
     147A      0.632578   148A      0.641693   149A      0.645820  
     150A      0.646706   151A      0.650473   152A      0.670299  
     153A      0.673801   154A      0.691887   155A      0.694278  
     156A      0.695449   157A      0.696639   158A      0.709882  
     159A      0.711966   160A      0.714045   161A      0.729337  
     162A      0.738903   163A      0.742460   164A      0.749595  
     165A      0.751329   166A      0.756571   167A      0.757821  
     168A      0.759874   169A      0.772401   170A      0.774658  
     171A      0.779007   172A      0.780097   173A      0.798168  
     174A      0.800537   175A      0.805408   176A      0.813430  
     177A      0.819315   178A      0.820861   179A      0.822567  
     180A      0.826467   181A      0.837375   182A      0.843414  
     183A      0.846242   184A      0.856375   185A      0.860694  
     186A      0.864973   187A      0.866513   188A      0.877474  
     189A      0.881599   190A      0.882627   191A      0.893449  
     192A      0.898247   193A      0.900009   194A      0.912416  
     195A      0.915451   196A      0.933610   197A      0.934385  
     198A      0.935816   199A      0.937339   200A      0.941762  
     201A      0.942731   202A      0.945327   203A      0.945686  
     204A      0.950380   205A      0.954249   206A      0.956553  
     207A      0.962555   208A      0.963503   209A      0.968217  
     210A      0.977760   211A      0.978814   212A      0.985013  
     213A      0.992190   214A      0.992655   215A      1.001347  
     216A      1.002630   217A      1.008498   218A      1.010007  
     219A      1.017078   220A      1.021084   221A      1.031266  
     222A      1.049315   223A      1.052073   224A      1.058095  
     225A      1.060173   226A      1.067204   227A      1.072694  
     228A      1.082219   229A      1.084636   230A      1.087702  
     231A      1.088792   232A      1.095836   233A      1.103116  
     234A      1.106237   235A      1.117324   236A      1.118621  
     237A      1.125829   238A      1.130245   239A      1.132886  
     240A      1.134365   241A      1.140896   242A      1.147904  
     243A      1.153772   244A      1.157306   245A      1.172115  
     246A      1.178757   247A      1.189769   248A      1.192767  
     249A      1.198080   250A      1.206634   251A      1.209676  
     252A      1.223887   253A      1.224021   254A      1.236320  
     255A      1.237994   256A      1.238370   257A      1.242968  
     258A      1.254810   259A      1.256732   260A      1.261334  
     261A      1.263164   262A      1.280205   263A      1.287385  
     264A      1.295608   265A      1.309103   266A      1.311560  
     267A      1.321189   268A      1.325650   269A      1.329817  
     270A      1.335383   271A      1.340873   272A      1.342945  
     273A      1.345174   274A      1.361346   275A      1.364013  
     276A      1.373772   277A      1.375062   278A      1.377267  
     279A      1.389206   280A      1.397369   281A      1.401530  
     282A      1.410781   283A      1.418970   284A      1.427875  
     285A      1.430873   286A      1.442500   287A      1.452069  
     288A      1.454527   289A      1.458353   290A      1.483509  
     291A      1.492838   292A      1.507251   293A      1.520620  
     294A      1.527300   295A      1.539434   296A      1.543897  
     297A      1.550743   298A      1.554779   299A      1.556362  
     300A      1.561869   301A      1.563057   302A      1.575651  
     303A      1.587920   304A      1.590965   305A      1.595107  
     306A      1.598649   307A      1.606301   308A      1.610777  
     309A      1.615227   310A      1.621533   311A      1.631362  
     312A      1.641944   313A      1.651663   314A      1.654534  
     315A      1.656752   316A      1.667110   317A      1.677374  
     318A      1.681223   319A      1.692294   320A      1.713724  
     321A      1.716399   322A      1.720608   323A      1.730015  
     324A      1.733401   325A      1.740478   326A      1.766157  
     327A      1.773622   328A      1.776596   329A      1.784339  
     330A      1.787342   331A      1.795368   332A      1.802264  
     333A      1.802384   334A      1.805497   335A      1.807362  
     336A      1.815909   337A      1.816627   338A      1.823701  
     339A      1.829227   340A      1.837036   341A      1.839950  
     342A      1.849116   343A      1.850625   344A      1.857459  
     345A      1.877973   346A      1.880437   347A      1.886968  
     348A      1.889809   349A      1.900970   350A      1.903544  
     351A      1.905053   352A      1.905677   353A      1.914449  
     354A      1.919273   355A      1.921803   356A      1.929831  
     357A      1.934913   358A      1.935472   359A      1.946775  
     360A      1.952687   361A      1.955253   362A      1.964919  
[...]
     621A      3.849168   622A      3.873622   623A      3.882457  
     624A      3.895147   625A      3.917491   626A      3.919924  
     627A      3.922192   628A      3.923655   629A      3.935242  
     630A      3.946151   631A      3.952778   632A      3.962855  
     633A      3.983187   634A      3.984337   635A      3.996563  
     636A      3.996808   637A      4.009743   638A      4.040907  
     639A      4.044110   640A      4.053652   641A      4.055671  
     642A      4.056729   643A      4.062535   644A      4.073766  
     645A      4.090952   646A      4.092218   647A      4.102662  
     648A      4.119052   649A      4.129994   650A      4.155342  
     651A      4.167352   652A      4.178055   653A      4.206355  
     654A      4.258561   655A      4.267144   656A      4.281307  
     657A      4.300154   658A      4.310329   659A      4.322839  
     660A      4.325554   661A      4.341025   662A      4.356022  
     663A      4.358859   664A      4.366615   665A      4.374386  
     666A      4.384553   667A      4.390644   668A      4.404345  
     669A      4.408255   670A      4.414779   671A      4.415623  
     672A      4.425463   673A      4.440088   674A      4.455500  
     675A      4.460491   676A      4.460531   677A      4.483520  
     678A      4.492987   679A      4.495286   680A      4.496201  
     681A      4.507845   682A      4.515589   683A      4.535652  
     684A      4.542977   685A      4.544218   686A      4.549281  
     687A      4.599968   688A      4.611043   689A      4.617881  
     690A      4.623052   691A      4.634815   692A      4.649693  
     693A      4.652259   694A      4.654828   695A      4.657556  
     696A      4.675503   697A      4.697155   698A      4.707239  
     699A      4.714842   700A      4.743649   701A      4.753055  
     702A      4.828272   703A      4.850820   704A      4.877149  
     705A      4.885163   706A      4.900035   707A      4.920470  
     708A      4.948413   709A      4.960293   710A      4.961198  
     711A      4.993685   712A      5.000634   713A      5.019338  
     714A      5.020605   715A      5.028010   716A      5.038691  
     717A      5.071823   718A      5.100064   719A      5.120672  
     720A      5.134101   721A      5.141608   722A      5.143447  
     723A      5.160542   724A      5.190541   725A      5.192772  
     726A      5.248409   727A      5.317029   728A      5.409409  
     729A      5.432435   730A      5.438108   731A      5.440234  
     732A      5.442968   733A      5.482812   734A      5.614845  
     735A      5.618643   736A      5.682571   737A      5.689614  
     738A      5.754603   739A      5.761070   740A      5.766886  
     741A      5.795511   742A      5.894777   743A      5.896674  
     744A      5.916838   745A      5.932280   746A      5.971028  
     747A      5.992929   748A      6.006437   749A      6.017392  
     750A      6.020001   751A      6.027758   752A      6.029273  
     753A      6.057696   754A      6.072438   755A      6.099699  
     756A      6.110760   757A      6.149317   758A      6.169842  
     759A      6.177991   760A      6.201049   761A      6.234475  
     762A      6.241182   763A      6.258027   764A      6.286723  
     765A      6.291284   766A      6.320009   767A      6.339342  
     768A      6.341717   769A      6.353460   770A      6.372679  
     771A      6.379191   772A      6.391502   773A      6.400353  
     774A      6.404038   775A      6.421452   776A      6.427862  
     777A      6.434689   778A      6.440559   779A      6.458153  
     780A      6.467244   781A      6.487735   782A      6.490947  
     783A      6.500937   784A      6.529667   785A      6.541639  
     786A      6.548530   787A      6.567463   788A      6.582862  
     789A      6.603403   790A      6.613485   791A      6.616526  
     792A      6.653811   793A      6.664144   794A      6.675005  
     795A      6.693707   796A      6.699714   797A      6.702872  
     798A      6.715505   799A      6.720672   800A      6.730223  
     801A      6.739014   802A      6.750223   803A      6.757618  
     804A      6.769476   805A      6.804471   806A      6.806712  
     807A      6.821104   808A      6.822675   809A      6.829508  
     810A      6.837267   811A      6.841695   812A      6.880095  
     813A      6.891623   814A      6.899358   815A      6.901309  
     816A      6.908915   817A      6.929041   818A      6.932267  
     819A      6.941816   820A      6.955346   821A      6.963904  
     822A      6.969190   823A      6.972520   824A      6.980520  
     825A      6.983407   826A      6.998331   827A      6.999108  
     828A      7.008730   829A      7.019555   830A      7.031145  
     831A      7.035811   832A      7.047806   833A      7.059802  
     834A      7.064248   835A      7.102903   836A      7.110113  
     837A      7.114836   838A      7.117356   839A      7.128746  
     840A      7.138859   841A      7.152647   842A      7.164611  
     843A      7.170051   844A      7.172647   845A      7.181974  
     846A      7.187806   847A      7.199476   848A      7.200226  
     849A      7.220407   850A      7.232787   851A      7.236882  
     852A      7.246710   853A      7.256394   854A      7.276595  
     855A      7.279277   856A      7.294710   857A      7.297621  
     858A      7.325987   859A      7.326654   860A      7.343494  
     861A      7.346797   862A      7.355397   863A      7.402967  
     864A      7.403282   865A      7.420684   866A      7.423092  
     867A      7.428134   868A      7.434663   869A      7.444956  
     870A      7.467814   871A      7.479491   872A      7.489990  
     873A      7.493484   874A      7.517854   875A      7.530754  
     876A      7.537875   877A      7.542697   878A      7.591375  
     879A      7.599837   880A      7.608292   881A      7.615153  
     882A      7.643151   883A      7.648181   884A      7.697795  
     885A      7.708241   886A      7.709714   887A      7.723088  
     888A      7.743124   889A      7.763857   890A      7.768199  
     891A      7.783576   892A      7.784875   893A      7.803607  
     894A      7.807802   895A      7.842805   896A      7.859528  
     897A      7.863014   898A      7.874333   899A      7.886028  
     900A      7.910474   901A      7.930829   902A      7.964844  
     903A      7.972357   904A      7.973950   905A      7.983306  
     906A      8.024688   907A      8.033930   908A      8.035414  
     909A      8.043243   910A      8.067066   911A      8.068267  
     912A      8.070614   913A      8.078385   914A      8.082236  
     915A      8.107435   916A      8.109602   917A      8.209348  
     918A      8.236056   919A      8.250023   920A      8.275393  
     921A      8.277577   922A      8.315256   923A      8.315659  
     924A      8.336843   925A      8.359258   926A      8.366573  
     927A      8.378635   928A      8.380527   929A      8.395063  
     930A      8.397833   931A      8.436259   932A      8.469600  
     933A      8.470781   934A      8.481047   935A      8.485810  
     936A      8.492474   937A      8.501046   938A      8.564210  
     939A      8.614297   940A      8.681195   941A      8.683679  
     942A      8.693770   943A      8.700085   944A      8.702583  
     945A      8.707731   946A      8.735193   947A      8.741367  
     948A      8.745135   949A      8.776634   950A      8.787857  
     951A      8.795938   952A      8.800226   953A      8.805066  
     954A      8.815985   955A      8.879759   956A      8.890172  
     957A      8.900042   958A      8.905643   959A      8.914599  
     960A      8.916887   961A      8.925072   962A      8.950535  
     963A      8.952470   964A      8.962744   965A      8.988757  
     966A      9.018902   967A      9.034292   968A      9.043318  
     969A      9.060534   970A      9.085778   971A      9.090341  
     972A      9.095014   973A      9.098322   974A      9.106392  
     975A      9.135915   976A      9.147588   977A      9.154740  
     978A      9.177811   979A      9.219177   980A      9.239636  
     981A      9.272083   982A      9.307181   983A      9.345494  
     984A      9.348489   985A      9.431047   986A      9.453188  
     987A      9.461109   988A      9.466868   989A      9.477846  
     990A      9.485895   991A      9.509376   992A      9.530768  
     993A      9.533099   994A      9.560227   995A      9.564220  
     996A      9.571005   997A      9.576842   998A      9.604923  
     999A      9.617568  1000A      9.629387  1001A      9.641016  
    1002A      9.641841  1003A      9.648141  1004A      9.659850  
    1005A      9.713210  1006A      9.735984  1007A      9.746853  
    1008A      9.758486  1009A      9.797402  1010A      9.817688  
    1011A      9.822343  1012A      9.850760  1013A      9.870000  
    1014A      9.900664  1015A      9.913381  1016A      9.928803  
    1017A      9.941961  1018A     10.010050  1019A     10.035139  
    1020A     10.066309  1021A     10.069448  1022A     10.078641  
    1023A     10.097333  1024A     10.105164  1025A     10.138181  
    1026A     10.144906  1027A     10.145589  1028A     10.205727  
    1029A     10.262731  1030A     10.271777  1031A     10.277646  
    1032A     10.294739  1033A     10.308995  1034A     10.333925  
    1035A     10.339749  1036A     10.350337  1037A     10.359333  
    1038A     10.359576  1039A     10.361188  1040A     10.427558  
    1041A     10.439162  1042A     10.488681  1043A     10.489852  
    1044A     10.575256  1045A     10.579266  1046A     10.582476  
    1047A     10.598673  1048A     10.606453  1049A     10.626843  
    1050A     10.685142  1051A     10.727189  1052A     10.746177  
    1053A     10.748674  1054A     10.751050  1055A     10.838308  
    1056A     10.841047  1057A     10.848941  1058A     10.860592  
    1059A     10.869954  1060A     10.911629  1061A     10.921503  
    1062A     10.923884  1063A     11.080529  1064A     11.102952  
    1065A     11.134258  1066A     11.139406  1067A     11.161016  
    1068A     11.215275  1069A     11.395538  1070A     11.504832  
    1071A     11.510525  1072A     11.512078  1073A     11.530071  
    1074A     11.592132  1075A     11.744474  1076A     11.758622  
    1077A     11.816142  1078A     11.817936  1079A     11.820813  
    1080A     11.842441  1081A     12.326631  1082A     12.518611  
    1083A     12.985493  1084A     13.170447  1085A     13.187140  
    1086A     13.345394  1087A     13.363539  1088A     13.378489  
    1089A     13.505236  1090A     13.521934  1091A     13.750727  
    1092A     13.767927  1093A     26.255213  1094A     26.288643  
    1095A     26.743199  1096A     26.877360  1097A     26.970328  
    1098A     27.246603  1099A     27.277522  1100A     27.287897  

    Final Occupation by Irrep:
              A 
    DOCC [    29 ]

  @DF-RHF Final Energy:  -308.85863514486840

   => Energetics <=

    Nuclear Repulsion Energy =            329.1559268977508168
    One-Electron Energy =               -1068.3965918754911399
    Two-Electron Energy =                 430.3820298328719787
    Total Energy =                       -308.8586351448684013

Computation Completed


Properties will be evaluated at   0.000000,   0.000000,   0.000000 [a0]

Properties computed using the SCF density matrix

  Nuclear Dipole Moment: [e a0]
     X:     0.0000      Y:    -0.0000      Z:     4.3498

  Electronic Dipole Moment: [e a0]
     X:    -0.0000      Y:     0.0000      Z:    -4.4157

  Dipole Moment: [e a0]
     X:    -0.0000      Y:     0.0000      Z:    -0.0659     Total:     0.0659

  Dipole Moment: [D]
     X:    -0.0000      Y:     0.0000      Z:    -0.1675     Total:     0.1675


*** tstop() called on node70.bme.utexas.edu at Sat Apr 11 17:38:39 2020
Module time:
	user time   =     478.54 seconds =       7.98 minutes
	system time =       8.56 seconds =       0.14 minutes
	total time  =         85 seconds =       1.42 minutes
Total time:
	user time   =    2435.72 seconds =      40.60 minutes
	system time =      58.87 seconds =       0.98 minutes
	total time  =        475 seconds =       7.92 minutes

*** tstart() called on node70.bme.utexas.edu
*** at Sat Apr 11 17:38:39 2020


  //>>>>>>>>>>>>>>>>>>>>>>>>>>>>>>>>>>>//
  //               DFMP2               //
  //<<<<<<<<<<<<<<<<<<<<<<<<<<<<<<<<<<<//

   => Loading Basis Set <=

    Name: (AUG-CC-PVQZ AUX)
    Role: RIFIT
    Keyword: DF_BASIS_MP2
    atoms 1, 3, 5, 7, 9, 11, 13, 16        entry C          line   184 file /home/liuchw/anaconda3/envs/psi4env/share/psi4/basis/aug-cc-pvqz-ri.gbs 
    atoms 2, 4, 6, 8, 10, 12, 14-15, 17-18 entry H          line    30 file /home/liuchw/anaconda3/envs/psi4env/share/psi4/basis/aug-cc-pvqz-ri.gbs 

	 --------------------------------------------------------
	                          DF-MP2                         
	      2nd-Order Density-Fitted Moller-Plesset Theory     
	              RMP2 Wavefunction,   6 Threads             
	                                                         
	        Rob Parrish, Justin Turney, Andy Simmonett,      
	           Ed Hohenstein, and C. David Sherrill          
	 --------------------------------------------------------

   => Auxiliary Basis Set <=

  Basis Set: (AUG-CC-PVQZ AUX)
    Blend: AUG-CC-PVQZ-RI
    Number of shells: 488
    Number of basis function: 2144
    Number of Cartesian functions: 2946
    Spherical Harmonics?: true
    Max angular momentum: 5

	 --------------------------------------------------------
	                 NBF =  1100, NAUX =  2144
	 --------------------------------------------------------
	   CLASS    FOCC     OCC    AOCC    AVIR     VIR    FVIR
	   PAIRS       0      29      29    1071    1071       0
	 --------------------------------------------------------

	-----------------------------------------------------------
	 ==================> DF-MP2 Energies <==================== 
	-----------------------------------------------------------
	 Reference Energy          =    -308.8586351448684013 [Eh]
	 Singles Energy            =      -0.0000000000000000 [Eh]
	 Same-Spin Energy          =      -0.3556443345709528 [Eh]
	 Opposite-Spin Energy      =      -1.2576750121126832 [Eh]
	 Correlation Energy        =      -1.6133193466836360 [Eh]
	 Total Energy              =    -310.4719544915520260 [Eh]
	-----------------------------------------------------------
	 ================> DF-SCS-MP2 Energies <================== 
	-----------------------------------------------------------
	 SCS Same-Spin Scale       =       0.3333333333333333 [-]
	 SCS Opposite-Spin Scale   =       1.2000000000000000 [-]
	 SCS Same-Spin Energy      =      -0.1185481115236509 [Eh]
	 SCS Opposite-Spin Energy  =      -1.5092100145352199 [Eh]
	 SCS Correlation Energy    =      -1.6277581260588707 [Eh]
	 SCS Total Energy          =    -310.4863932709272945 [Eh]
	-----------------------------------------------------------


*** tstop() called on node70.bme.utexas.edu at Sat Apr 11 17:39:45 2020
Module time:
	user time   =     284.41 seconds =       4.74 minutes
	system time =       8.54 seconds =       0.14 minutes
	total time  =         66 seconds =       1.10 minutes
Total time:
	user time   =    2720.13 seconds =      45.34 minutes
	system time =      67.41 seconds =       1.12 minutes
	total time  =        541 seconds =       9.02 minutes

  //>>>>>>>>>>>>>>>>>>>>>>>>>>>>>>>>>>>//
  //  CBS Results: mp2/aug-cc-pv[tq]z  //
  //<<<<<<<<<<<<<<<<<<<<<<<<<<<<<<<<<<<//


   ==> HF <==

   HI-zeta (4) Energy:               -308.858635144868


   ==> Helgaker 2-point correlated extrapolation for method: MP2 <==

   LO-zeta (3) Energy:               -310.300839437150
   HI-zeta (4) Energy:               -310.471954491552
   Alpha (exponent) Value:             3.000000000000
   Extrapolated Energy:              -310.596822233953

   @Extrapolated MP2/(T,Q):          -310.596822233953



   ==> Helgaker 2-point correlated extrapolation for method: HF <==

   LO-zeta (3) Energy:               -308.840883351664
   HI-zeta (4) Energy:               -308.858635144868
   Alpha (exponent) Value:             3.000000000000
   Extrapolated Energy:              -308.871589156126

   @Extrapolated HF/(T,Q):           -308.871589156126


   ==> Components <==

  ---------------------------------------------------------------------------------------------------------
                          Method / Basis                      Rqd      Energy [Eh]   Variable
  ---------------------------------------------------------------------------------------------------------
                              hf / aug-cc-pvtz                  *    -308.84088335   HF TOTAL ENERGY
                             mp2 / aug-cc-pvtz                  *    -310.30083944   MP2 TOTAL ENERGY
                              hf / aug-cc-pvqz                  *    -308.85863514   HF TOTAL ENERGY
                             mp2 / aug-cc-pvqz                  *    -310.47195449   MP2 TOTAL ENERGY
  ---------------------------------------------------------------------------------------------------------

   ==> Stages <==

  ---------------------------------------------------------------------------------------------------------
      Stage               Method / Basis                       Wt      Energy [Eh]   Scheme
  ---------------------------------------------------------------------------------------------------------
        scf                   hf / aug-cc-pvqz                  1    -308.85863514   xtpl_highest_1
       corl                  mp2 / aug-cc-pv[tq]z               1    -310.59682223   corl_xtpl_helgaker_2
       corl                   hf / aug-cc-pv[tq]z              -1    -308.87158916   corl_xtpl_helgaker_2
  ---------------------------------------------------------------------------------------------------------

   ==> CBS <==

  ---------------------------------------------------------------------------------------------------------
      Stage               Method / Basis                               Energy [Eh]   Scheme
  ---------------------------------------------------------------------------------------------------------
        scf                   hf / aug-cc-pvqz                       -308.85863514   xtpl_highest_1
       corl                  mp2 / aug-cc-pv[tq]z                      -1.72523308   corl_xtpl_helgaker_2
      total                  CBS                                     -310.58386822   
  ---------------------------------------------------------------------------------------------------------
   => Loading Basis Set <=

    Name: DEF2-SVP
    Role: ORBITAL
    Keyword: BASIS
    atoms 1, 3, 5, 7, 9, 11, 13, 16        entry C          line    90 file /home/liuchw/anaconda3/envs/psi4env/share/psi4/basis/def2-svp.gbs 
    atoms 2, 4, 6, 8, 10, 12, 14-15, 17-18 entry H          line    15 file /home/liuchw/anaconda3/envs/psi4env/share/psi4/basis/def2-svp.gbs 


       N-Body: Complex Energy (fragments = (1, 2), basis = (1, 2):  -310.58386822269631)

   ==> N-Body: Counterpoise Corrected (CP) energies <==

   n-Body     Total Energy [Eh]       I.E. [kcal/mol]      Delta [kcal/mol]
        1     -310.580034572337        0.000000000000        0.000000000000
        2     -310.583901913743       -2.426793370361       -2.426793370361

   => Loading Basis Set <=

    Name: DEF2-SVP
    Role: ORBITAL
    Keyword: BASIS
    atoms 1, 3, 5, 7, 9, 11, 13, 16        entry C          line    90 file /home/liuchw/anaconda3/envs/psi4env/share/psi4/basis/def2-svp.gbs 
    atoms 2, 4, 6, 8, 10, 12, 14-15, 17-18 entry H          line    15 file /home/liuchw/anaconda3/envs/psi4env/share/psi4/basis/def2-svp.gbs 


    Psi4 stopped on: Saturday, 11 April 2020 05:39PM
    Psi4 wall time for execution: 0:09:02.22

*** Psi4 exiting successfully. Buy a developer a beer!
