
    -----------------------------------------------------------------------
          Psi4: An Open-Source Ab Initio Electronic Structure Package
                               Psi4 1.4a2.dev224 

                         Git: Rev {master} e453b16 


    R. M. Parrish, L. A. Burns, D. G. A. Smith, A. C. Simmonett,
    A. E. DePrince III, E. G. Hohenstein, U. Bozkaya, A. Yu. Sokolov,
    R. Di Remigio, R. M. Richard, J. F. Gonthier, A. M. James,
    H. R. McAlexander, A. Kumar, M. Saitow, X. Wang, B. P. Pritchard,
    P. Verma, H. F. Schaefer III, K. Patkowski, R. A. King, E. F. Valeev,
    F. A. Evangelista, J. M. Turney, T. D. Crawford, and C. D. Sherrill,
    J. Chem. Theory Comput. 13(7) pp 3185--3197 (2017).
    (doi: 10.1021/acs.jctc.7b00174)


                         Additional Contributions by
    P. Kraus, H. Kruse, M. H. Lechner, M. C. Schieber, R. A. Shaw,
    A. Alenaizan, R. Galvelis, Z. L. Glick, S. Lehtola, and J. P. Misiewicz

    -----------------------------------------------------------------------


    Psi4 started on: Saturday, 11 April 2020 11:17PM

    Process ID: 55235
    Host:       genome.bme.utexas.edu
    PSIDATADIR: /home/liuchw/anaconda3/envs/psi4env/share/psi4
    Memory:     500.0 MiB
    Threads:    8
    
  ==> Input File <==

--------------------------------------------------------------------------
#Generated by lconvert.py for cbs job

memory 40 GB

molecule  {
0 1
  C       -2.5333090    -0.2948790     0.7131490
  H       -2.5636270    -0.9770820    -0.1364230
  H       -2.5669780    -0.8958760     1.6217320
  H       -3.4344260     0.3159570     0.6841040
  C       -1.2718850     0.5576550     0.6743550
  H       -1.2710260     1.2565660     1.5143190
  H       -1.2666330     1.1678960    -0.2318270
  C       -0.0001350    -0.2784180     0.7196030
  H       -0.0001590    -0.8872300     1.6286370
  H       -0.0003650    -0.9807140    -0.1194040
  C        1.2718950     0.5573820     0.6740610
  H        1.2709720     1.2566330     1.5137050
  H        1.2666360     1.1671830    -0.2323870
  C        2.5334040    -0.2949420     0.7132800
  H        2.5639190    -0.9777740    -0.1357780
  H        3.4343100     0.3162540     0.6835990
  H        2.5675580    -0.8952090     1.6223290
--
0 1
  C        2.5335580     0.2976400     4.3845700
  H        2.5681420     0.8974460     3.4752440
  H        2.5640610     0.9808460     5.2333150
  H        3.4342380    -0.3138580     4.4147790
  C        1.2717320    -0.5542480     4.4238740
  H        1.2662880    -1.1639750     5.3303710
  H        1.2706010    -1.2536010     3.5842930
  C       -0.0000430     0.2818520     4.3782580
  H       -0.0001980     0.9841620     5.2172420
  H        0.0000330     0.8906280     3.4691880
  C       -1.2718040    -0.5542900     4.4235290
  H       -1.2664220    -1.1644000     5.3297790
  H       -1.2706980    -1.2533130     3.5836660
  C       -2.5335240     0.2977560     4.3845520
  H       -2.5677170     0.8982900     3.4756750
  H       -3.4343260    -0.3135420     4.4140650
  H       -2.5640630     0.9803420     5.2338130
units angstrom
no_reorient
symmetry c1
}

set {
scf_type DF
mp2_type DF
e_convergence 7
reference rhf
}

energy('mp2/aug-cc-pv[tq]z', bsse_type='cp')
--------------------------------------------------------------------------

  Memory set to  37.253 GiB by Python driver.

Scratch directory: /scratch//


   ===> N-Body Interaction Abacus <===
        BSSE Treatment:                     cp
        Number of 1-body computations:     4
        Number of 2-body computations:     1

   ==> N-Body: Now computing 1-body complexes <==


       N-Body: Computing complex (1/4) with fragments (2,) in the basis of fragments (2,).


Scratch directory: /scratch//

  //>>>>>>>>>>>>>>>>>>>>>>>>>>>>>>>>>>>//
  //   CBS Setup: mp2/aug-cc-pv[tq]z   //
  //<<<<<<<<<<<<<<<<<<<<<<<<<<<<<<<<<<<//

    Naive listing of computations required.
             hf / aug-cc-pvqz              for  HF TOTAL ENERGY
            mp2 / aug-cc-pvtz              for  MP2 TOTAL ENERGY
            mp2 / aug-cc-pvqz              for  MP2 TOTAL ENERGY
             hf / aug-cc-pvtz              for  HF TOTAL ENERGY
             hf / aug-cc-pvqz              for  HF TOTAL ENERGY

    Enlightened listing of computations required.
            mp2 / aug-cc-pvtz              for  MP2 TOTAL ENERGY
            mp2 / aug-cc-pvqz              for  MP2 TOTAL ENERGY

    Full listing of computations to be obtained (required and bonus).
             hf / aug-cc-pvtz              for  HF TOTAL ENERGY
            mp2 / aug-cc-pvtz              for  MP2 TOTAL ENERGY
             hf / aug-cc-pvqz              for  HF TOTAL ENERGY
            mp2 / aug-cc-pvqz              for  MP2 TOTAL ENERGY

  //>>>>>>>>>>>>>>>>>>>>>>>>>>>>>>>>>>>>//
  // CBS Computation: MP2 / AUG-CC-PVTZ //
  //<<<<<<<<<<<<<<<<<<<<<<<<<<<<<<<<<<<<//


Scratch directory: /scratch//

*** tstart() called on genome.bme.utexas.edu
*** at Sat Apr 11 23:17:28 2020

   => Loading Basis Set <=

    Name: AUG-CC-PVTZ
    Role: ORBITAL
    Keyword: BASIS
    atoms 1, 5, 8, 11, 14              entry C          line   239 file /home/liuchw/anaconda3/envs/psi4env/share/psi4/basis/aug-cc-pvtz.gbs 
    atoms 2-4, 6-7, 9-10, 12-13, 15-17 entry H          line    40 file /home/liuchw/anaconda3/envs/psi4env/share/psi4/basis/aug-cc-pvtz.gbs 


         ---------------------------------------------------------
                                   SCF
               by Justin Turney, Rob Parrish, Andy Simmonett
                          and Daniel G. A. Smith
                              RHF Reference
                        8 Threads,  38146 MiB Core
         ---------------------------------------------------------

  ==> Geometry <==

    Molecular point group: c1
    Full point group: C1

    Geometry (in Angstrom), charge = 0, multiplicity = 1:

       Center              X                  Y                   Z               Mass       
    ------------   -----------------  -----------------  -----------------  -----------------
         C            2.533566399192     0.296100314972     1.835647727577    12.000000000000
         H            2.568150399192     0.895906314972     0.926321727577     1.007825032230
         H            2.564069399192     0.979306314972     2.684392727577     1.007825032230
         H            3.434246399192    -0.315397685028     1.865856727577     1.007825032230
         C            1.271740399192    -0.555787685028     1.874951727577    12.000000000000
         H            1.266296399192    -1.165514685028     2.781448727577     1.007825032230
         H            1.270609399192    -1.255140685028     1.035370727577     1.007825032230
         C           -0.000034600808     0.280312314972     1.829335727577    12.000000000000
         H           -0.000189600808     0.982622314972     2.668319727577     1.007825032230
         H            0.000041399192     0.889088314972     0.920265727577     1.007825032230
         C           -1.271795600808    -0.555829685028     1.874606727577    12.000000000000
         H           -1.266413600808    -1.165939685028     2.780856727577     1.007825032230
         H           -1.270689600808    -1.254852685028     1.034743727577     1.007825032230
         C           -2.533515600808     0.296216314972     1.835629727577    12.000000000000
         H           -2.567708600808     0.896750314972     0.926752727577     1.007825032230
         H           -3.434317600808    -0.315081685028     1.865142727577     1.007825032230
         H           -2.564054600808     0.978802314972     2.684890727577     1.007825032230

  Running in c1 symmetry.

  Rotational constants: A =      0.06211  B =      0.06101  C =      0.03343 [cm^-1]
  Rotational constants: A =   1861.91154  B =   1828.88621  C =   1002.24518 [MHz]
  Nuclear repulsion =  185.635575112866235

  Charge       = 0
  Multiplicity = 1
  Electrons    = 42
  Nalpha       = 21
  Nbeta        = 21

  ==> Algorithm <==

  SCF Algorithm Type is DF.
  DIIS enabled.
  MOM disabled.
  Fractional occupation disabled.
  Guess Type is SAD.
  Energy threshold   = 1.00e-07
  Density threshold  = 1.00e-08
  Integral threshold = 0.00e+00

  ==> Primary Basis <==

  Basis Set: AUG-CC-PVTZ
    Blend: AUG-CC-PVTZ
    Number of shells: 178
    Number of basis function: 506
    Number of Cartesian functions: 575
    Spherical Harmonics?: true
    Max angular momentum: 3

   => Loading Basis Set <=

    Name: (AUG-CC-PVTZ AUX)
    Role: JKFIT
    Keyword: DF_BASIS_SCF
    atoms 1, 5, 8, 11, 14              entry C          line   162 file /home/liuchw/anaconda3/envs/psi4env/share/psi4/basis/aug-cc-pvtz-jkfit.gbs 
    atoms 2-4, 6-7, 9-10, 12-13, 15-17 entry H          line    70 file /home/liuchw/anaconda3/envs/psi4env/share/psi4/basis/aug-cc-pvtz-jkfit.gbs 

  ==> Pre-Iterations <==

   -------------------------------------------------------
    Irrep   Nso     Nmo     Nalpha   Nbeta   Ndocc  Nsocc
   -------------------------------------------------------
     A        506     506       0       0       0       0
   -------------------------------------------------------
    Total     506     506      21      21      21       0
   -------------------------------------------------------

  ==> Integral Setup <==

  DFHelper Memory: AOs need 2.045 GiB; user supplied 27.940 GiB. Using in-core AOs.

  ==> MemDFJK: Density-Fitted J/K Matrices <==

    J tasked:                   Yes
    K tasked:                   Yes
    wK tasked:                   No
    OpenMP threads:               8
    Memory [MiB]:             28610
    Algorithm:                 Core
    Schwarz Cutoff:           1E-12
    Mask sparsity (%):       3.6729
    Fitting Condition:        1E-10

   => Auxiliary Basis Set <=

  Basis Set: (AUG-CC-PVTZ AUX)
    Blend: AUG-CC-PVTZ-JKFIT
    Number of shells: 318
    Number of basis function: 1072
    Number of Cartesian functions: 1315
    Spherical Harmonics?: true
    Max angular momentum: 4

  Minimum eigenvalue in the overlap matrix is 5.7433172383E-06.
  Using Symmetric Orthogonalization.

  SCF Guess: Superposition of Atomic Densities via on-the-fly atomic UHF.

  ==> Iterations <==

                           Total Energy        Delta E     RMS |[F,P]|

   @DF-RHF iter SAD:  -195.89590371127252   -1.95896e+02   0.00000e+00 
   @DF-RHF iter   1:  -196.13393558097272   -2.38032e-01   1.29918e-03 DIIS
   @DF-RHF iter   2:  -196.35374931854000   -2.19814e-01   5.96269e-04 DIIS
   @DF-RHF iter   3:  -196.40125104840297   -4.75017e-02   1.03991e-04 DIIS
   @DF-RHF iter   4:  -196.40427306422779   -3.02202e-03   2.22420e-05 DIIS
   @DF-RHF iter   5:  -196.40437171924208   -9.86550e-05   6.70910e-06 DIIS
   @DF-RHF iter   6:  -196.40438150875929   -9.78952e-06   1.03605e-06 DIIS
   @DF-RHF iter   7:  -196.40438181327403   -3.04515e-07   2.13114e-07 DIIS
   @DF-RHF iter   8:  -196.40438182670249   -1.34285e-08   4.07764e-08 DIIS
   @DF-RHF iter   9:  -196.40438182720303   -5.00535e-10   1.30530e-08 DIIS
   @DF-RHF iter  10:  -196.40438182724154   -3.85114e-11   3.37589e-09 DIIS
  Energy and wave function converged.


  ==> Post-Iterations <==

    Orbital Energies [Eh]
    ---------------------

    Doubly Occupied:                                                      

       1A    -11.212586     2A    -11.212513     3A    -11.210144  
       4A    -11.207066     5A    -11.207064     6A     -1.081205  
       7A     -1.015342     8A     -0.918973     9A     -0.819818  
      10A     -0.784967    11A     -0.647296    12A     -0.598306  
      13A     -0.592867    14A     -0.553804    15A     -0.547354  
      16A     -0.525768    17A     -0.494451    18A     -0.475849  
      19A     -0.461723    20A     -0.459061    21A     -0.446772  

    Virtual:                                                              

      22A      0.031619    23A      0.034296    24A      0.037957  
      25A      0.039526    26A      0.053428    27A      0.054243  
      28A      0.056381    29A      0.057969    30A      0.078314  
      31A      0.081324    32A      0.083186    33A      0.084053  
      34A      0.092548    35A      0.115980    36A      0.116981  
      37A      0.128845    38A      0.136686    39A      0.138226  
      40A      0.139452    41A      0.145146    42A      0.154707  
      43A      0.155499    44A      0.155610    45A      0.162490  
      46A      0.169414    47A      0.171232    48A      0.176915  
      49A      0.201394    50A      0.204620    51A      0.214601  
      52A      0.222298    53A      0.225899    54A      0.229479  
      55A      0.246711    56A      0.248486    57A      0.263131  
      58A      0.270412    59A      0.271313    60A      0.277330  
      61A      0.295772    62A      0.298777    63A      0.309622  
      64A      0.312131    65A      0.313841    66A      0.334941  
      67A      0.346466    68A      0.349523    69A      0.354612  
      70A      0.357055    71A      0.361278    72A      0.371462  
      73A      0.374595    74A      0.374851    75A      0.378702  
      76A      0.383822    77A      0.384712    78A      0.387737  
      79A      0.388327    80A      0.402905    81A      0.404840  
      82A      0.409270    83A      0.412536    84A      0.422667  
      85A      0.425945    86A      0.433839    87A      0.434580  
      88A      0.439001    89A      0.451590    90A      0.452770  
      91A      0.455111    92A      0.457441    93A      0.465773  
      94A      0.471916    95A      0.477784    96A      0.479338  
      97A      0.480083    98A      0.490199    99A      0.498204  
     100A      0.510121   101A      0.516488   102A      0.517129  
     103A      0.519628   104A      0.527492   105A      0.528423  
     106A      0.530597   107A      0.547429   108A      0.551734  
     109A      0.553351   110A      0.555706   111A      0.563700  
     112A      0.569955   113A      0.582321   114A      0.590377  
     115A      0.607393   116A      0.611714   117A      0.614127  
     118A      0.617267   119A      0.632739   120A      0.644935  
     121A      0.646571   122A      0.656252   123A      0.667592  
     124A      0.669912   125A      0.701211   126A      0.717592  
     127A      0.718244   128A      0.724911   129A      0.738938  
     130A      0.754366   131A      0.784751   132A      0.786228  
     133A      0.804119   134A      0.824582   135A      0.829561  
     136A      0.834441   137A      0.837397   138A      0.842277  
     139A      0.844848   140A      0.859695   141A      0.862224  
     142A      0.865714   143A      0.876121   144A      0.882475  
     145A      0.886582   146A      0.900520   147A      0.902693  
     148A      0.909816   149A      0.920212   150A      0.922538  
     151A      0.930833   152A      0.931304   153A      0.933617  
     154A      0.936484   155A      0.951932   156A      0.960042  
     157A      0.968649   158A      0.970410   159A      0.972515  
     160A      0.973478   161A      0.984033   162A      0.986918  
     163A      1.008194   164A      1.013390   165A      1.016407  
     166A      1.034744   167A      1.040728   168A      1.044817  
     169A      1.054960   170A      1.079791   171A      1.093711  
     172A      1.097580   173A      1.108340   174A      1.110988  
     175A      1.122551   176A      1.127203   177A      1.141560  
     178A      1.154205   179A      1.155206   180A      1.159545  
     181A      1.162342   182A      1.166402   183A      1.168186  
     184A      1.170786   185A      1.176032   186A      1.176307  
     187A      1.187903   188A      1.204749   189A      1.210906  
     190A      1.241670   191A      1.242332   192A      1.246720  
     193A      1.251562   194A      1.253564   195A      1.263124  
     196A      1.270836   197A      1.282298   198A      1.284727  
     199A      1.307526   200A      1.308362   201A      1.315986  
     202A      1.319735   203A      1.335502   204A      1.343074  
     205A      1.356806   206A      1.356927   207A      1.367683  
     208A      1.390526   209A      1.395135   210A      1.400484  
     211A      1.425555   212A      1.426083   213A      1.443322  
     214A      1.458133   215A      1.463799   216A      1.477803  
     217A      1.500541   218A      1.503354   219A      1.540007  
     220A      1.560943   221A      1.566932   222A      1.574611  
     223A      1.580232   224A      1.580721   225A      1.587568  
     226A      1.602809   227A      1.617550   228A      1.622153  
     229A      1.626653   230A      1.649711   231A      1.653843  
     232A      1.659892   233A      1.670401   234A      1.679758  
     235A      1.687892   236A      1.694589   237A      1.697086  
     238A      1.699506   239A      1.719420   240A      1.726321  
     241A      1.737077   242A      1.743017   243A      1.747706  
     244A      1.753071   245A      1.770552   246A      1.774732  
     247A      1.774997   248A      1.784157   249A      1.795309  
     250A      1.796880   251A      1.806632   252A      1.809751  
     253A      1.815820   254A      1.851543   255A      1.852580  
     256A      1.852846   257A      1.884478   258A      1.893441  
     259A      1.917022   260A      1.917035   261A      1.939772  
     262A      1.941141   263A      1.942038   264A      1.957762  
     265A      1.961971   266A      1.968750   267A      1.986007  
     268A      2.000961   269A      2.005611   270A      2.013276  
     271A      2.043026   272A      2.052267   273A      2.058471  
     274A      2.080972   275A      2.093190   276A      2.096447  
     277A      2.121905   278A      2.153751   279A      2.154628  
     280A      2.167723   281A      2.179497   282A      2.184795  
     283A      2.189886   284A      2.243635   285A      2.247522  
     286A      2.250054   287A      2.252958   288A      2.254622  
     289A      2.287464   290A      2.290980   291A      2.318009  
     292A      2.322795   293A      2.331810   294A      2.340955  
     295A      2.343373   296A      2.360472   297A      2.391721  
     298A      2.399533   299A      2.418274   300A      2.441948  
     301A      2.455002   302A      2.460306   303A      2.477305  
     304A      2.477599   305A      2.492938   306A      2.510147  
     307A      2.573185   308A      2.585744   309A      2.645050  
     310A      2.651184   311A      2.713849   312A      2.725289  
     313A      2.738011   314A      2.830701   315A      2.920142  
     316A      2.931194   317A      3.014789   318A      3.110953  
     319A      3.229298   320A      3.253568   321A      3.283920  
     322A      3.348352   323A      3.424180   324A      3.432341  
     325A      3.451624   326A      3.467302   327A      3.487097  
     328A      3.496660   329A      3.500193   330A      3.522174  
     331A      3.525970   332A      3.533837   333A      3.594725  
     334A      3.598325   335A      3.602701   336A      3.603914  
     337A      3.618726   338A      3.645672   339A      3.683445  
     340A      3.684109   341A      3.687366   342A      3.699106  
     343A      3.725923   344A      3.739252   345A      3.742971  
     346A      3.750134   347A      3.764902   348A      3.767024  
     349A      3.778753   350A      3.797206   351A      3.804906  
     352A      3.807263   353A      3.828808   354A      3.866324  
     355A      3.871792   356A      3.875938   357A      3.878316  
     358A      3.899530   359A      3.906373   360A      3.917628  
     361A      3.930805   362A      3.944242   363A      3.951251  
     364A      3.968908   365A      3.985061   366A      3.990883  
     367A      3.991998   368A      3.995654   369A      4.010110  
     370A      4.025134   371A      4.026296   372A      4.055512  
     373A      4.067362   374A      4.068066   375A      4.077363  
     376A      4.107212   377A      4.156365   378A      4.171400  
     379A      4.185507   380A      4.193345   381A      4.199194  
     382A      4.223307   383A      4.236525   384A      4.253881  
     385A      4.259028   386A      4.262121   387A      4.282872  
     388A      4.301340   389A      4.313458   390A      4.326755  
     391A      4.333763   392A      4.350787   393A      4.360539  
     394A      4.400627   395A      4.411246   396A      4.448044  
     397A      4.464736   398A      4.472623   399A      4.525932  
     400A      4.528085   401A      4.546893   402A      4.560794  
     403A      4.609060   404A      4.619404   405A      4.654464  
     406A      4.666307   407A      4.671691   408A      4.685740  
     409A      4.702946   410A      4.716570   411A      4.735908  
     412A      4.737796   413A      4.751364   414A      4.763994  
     415A      4.799890   416A      4.821850   417A      4.839142  
     418A      4.848227   419A      4.861244   420A      4.871419  
     421A      4.894977   422A      4.896027   423A      4.903217  
     424A      4.913990   425A      4.942348   426A      4.949499  
     427A      4.963573   428A      5.003334   429A      5.023755  
     430A      5.040458   431A      5.090433   432A      5.106471  
     433A      5.111940   434A      5.134677   435A      5.170498  
     436A      5.183971   437A      5.186772   438A      5.202614  
     439A      5.220851   440A      5.230227   441A      5.234965  
     442A      5.260180   443A      5.284025   444A      5.286535  
     445A      5.293496   446A      5.318190   447A      5.359544  
     448A      5.363138   449A      5.376075   450A      5.403699  
     451A      5.405251   452A      5.422383   453A      5.448734  
     454A      5.449931   455A      5.450975   456A      5.504107  
     457A      5.508111   458A      5.511710   459A      5.565149  
     460A      5.577484   461A      5.609444   462A      5.629366  
     463A      5.669639   464A      5.677015   465A      5.694398  
     466A      5.703574   467A      5.721762   468A      5.769143  
     469A      5.777104   470A      5.801119   471A      5.810521  
     472A      5.816083   473A      5.860153   474A      5.880042  
     475A      5.934540   476A      5.970434   477A      5.983839  
     478A      6.008323   479A      6.077372   480A      6.105354  
     481A      6.137531   482A      6.183681   483A      6.201898  
     484A      6.209042   485A      6.222728   486A      6.252973  
     487A      6.289123   488A      6.295909   489A      6.327129  
     490A      6.356248   491A      6.418497   492A      6.448956  
     493A      6.576681   494A      6.626739   495A      6.743330  
     496A      6.794973   497A      6.826319   498A      6.855562  
     499A      6.860770   500A      6.904351   501A      7.064992  
     502A     17.708508   503A     18.076128   504A     18.079758  
     505A     18.457173   506A     19.176546  

    Final Occupation by Irrep:
              A 
    DOCC [    21 ]

  @DF-RHF Final Energy:  -196.40438182724154

   => Energetics <=

    Nuclear Repulsion Energy =            185.6355751128662348
    One-Electron Energy =                -631.1340526999834992
    Two-Electron Energy =                 249.0940957598756995
    Total Energy =                       -196.4043818272415365

Computation Completed


Properties will be evaluated at   0.000000,   0.000000,   0.000000 [a0]

Properties computed using the SCF density matrix

  Nuclear Dipole Moment: [e a0]
     X:    -0.0004      Y:    -2.4252      Z:   146.7852

  Electronic Dipole Moment: [e a0]
     X:     0.0004      Y:     2.3922      Z:  -146.7836

  Dipole Moment: [e a0]
     X:    -0.0000      Y:    -0.0331      Z:     0.0016     Total:     0.0331

  Dipole Moment: [D]
     X:    -0.0000      Y:    -0.0840      Z:     0.0040     Total:     0.0841


*** tstop() called on genome.bme.utexas.edu at Sat Apr 11 23:17:54 2020
Module time:
	user time   =     178.39 seconds =       2.97 minutes
	system time =       7.37 seconds =       0.12 minutes
	total time  =         26 seconds =       0.43 minutes
Total time:
	user time   =     178.39 seconds =       2.97 minutes
	system time =       7.37 seconds =       0.12 minutes
	total time  =         26 seconds =       0.43 minutes

*** tstart() called on genome.bme.utexas.edu
*** at Sat Apr 11 23:17:54 2020


  //>>>>>>>>>>>>>>>>>>>>>>>>>>>>>>>>>>>//
  //               DFMP2               //
  //<<<<<<<<<<<<<<<<<<<<<<<<<<<<<<<<<<<//

   => Loading Basis Set <=

    Name: (AUG-CC-PVTZ AUX)
    Role: RIFIT
    Keyword: DF_BASIS_MP2
    atoms 1, 5, 8, 11, 14              entry C          line   148 file /home/liuchw/anaconda3/envs/psi4env/share/psi4/basis/aug-cc-pvtz-ri.gbs 
    atoms 2-4, 6-7, 9-10, 12-13, 15-17 entry H          line    30 file /home/liuchw/anaconda3/envs/psi4env/share/psi4/basis/aug-cc-pvtz-ri.gbs 

	 --------------------------------------------------------
	                          DF-MP2                         
	      2nd-Order Density-Fitted Moller-Plesset Theory     
	              RMP2 Wavefunction,   8 Threads             
	                                                         
	        Rob Parrish, Justin Turney, Andy Simmonett,      
	           Ed Hohenstein, and C. David Sherrill          
	 --------------------------------------------------------

   => Auxiliary Basis Set <=

  Basis Set: (AUG-CC-PVTZ AUX)
    Blend: AUG-CC-PVTZ-RI
    Number of shells: 308
    Number of basis function: 1082
    Number of Cartesian functions: 1340
    Spherical Harmonics?: true
    Max angular momentum: 4

	 --------------------------------------------------------
	                 NBF =   506, NAUX =  1082
	 --------------------------------------------------------
	   CLASS    FOCC     OCC    AOCC    AVIR     VIR    FVIR
	   PAIRS       0      21      21     485     485       0
	 --------------------------------------------------------

	-----------------------------------------------------------
	 ==================> DF-MP2 Energies <==================== 
	-----------------------------------------------------------
	 Reference Energy          =    -196.4043818272415365 [Eh]
	 Singles Energy            =      -0.0000000000000000 [Eh]
	 Same-Spin Energy          =      -0.2078833651631783 [Eh]
	 Opposite-Spin Energy      =      -0.7930658475245427 [Eh]
	 Correlation Energy        =      -1.0009492126877211 [Eh]
	 Total Energy              =    -197.4053310399292513 [Eh]
	-----------------------------------------------------------
	 ================> DF-SCS-MP2 Energies <================== 
	-----------------------------------------------------------
	 SCS Same-Spin Scale       =       0.3333333333333333 [-]
	 SCS Opposite-Spin Scale   =       1.2000000000000000 [-]
	 SCS Same-Spin Energy      =      -0.0692944550543928 [Eh]
	 SCS Opposite-Spin Energy  =      -0.9516790170294511 [Eh]
	 SCS Correlation Energy    =      -1.0209734720838439 [Eh]
	 SCS Total Energy          =    -197.4253552993253891 [Eh]
	-----------------------------------------------------------


*** tstop() called on genome.bme.utexas.edu at Sat Apr 11 23:18:12 2020
Module time:
	user time   =      65.92 seconds =       1.10 minutes
	system time =       7.86 seconds =       0.13 minutes
	total time  =         18 seconds =       0.30 minutes
Total time:
	user time   =     244.32 seconds =       4.07 minutes
	system time =      15.23 seconds =       0.25 minutes
	total time  =         44 seconds =       0.73 minutes

  //>>>>>>>>>>>>>>>>>>>>>>>>>>>>>>>>>>>>//
  // CBS Computation: MP2 / AUG-CC-PVQZ //
  //<<<<<<<<<<<<<<<<<<<<<<<<<<<<<<<<<<<<//


Scratch directory: /scratch//

*** tstart() called on genome.bme.utexas.edu
*** at Sat Apr 11 23:18:12 2020

   => Loading Basis Set <=

    Name: AUG-CC-PVQZ
    Role: ORBITAL
    Keyword: BASIS
    atoms 1, 5, 8, 11, 14              entry C          line   303 file /home/liuchw/anaconda3/envs/psi4env/share/psi4/basis/aug-cc-pvqz.gbs 
    atoms 2-4, 6-7, 9-10, 12-13, 15-17 entry H          line    40 file /home/liuchw/anaconda3/envs/psi4env/share/psi4/basis/aug-cc-pvqz.gbs 


         ---------------------------------------------------------
                                   SCF
               by Justin Turney, Rob Parrish, Andy Simmonett
                          and Daniel G. A. Smith
                              RHF Reference
                        8 Threads,  38146 MiB Core
         ---------------------------------------------------------

  ==> Geometry <==

    Molecular point group: c1
    Full point group: C1

    Geometry (in Angstrom), charge = 0, multiplicity = 1:

       Center              X                  Y                   Z               Mass       
    ------------   -----------------  -----------------  -----------------  -----------------
         C            2.533566399192     0.296100314972     1.835647727577    12.000000000000
         H            2.568150399192     0.895906314972     0.926321727577     1.007825032230
         H            2.564069399192     0.979306314972     2.684392727577     1.007825032230
         H            3.434246399192    -0.315397685028     1.865856727577     1.007825032230
         C            1.271740399192    -0.555787685028     1.874951727577    12.000000000000
         H            1.266296399192    -1.165514685028     2.781448727577     1.007825032230
         H            1.270609399192    -1.255140685028     1.035370727577     1.007825032230
         C           -0.000034600808     0.280312314972     1.829335727577    12.000000000000
         H           -0.000189600808     0.982622314972     2.668319727577     1.007825032230
         H            0.000041399192     0.889088314972     0.920265727577     1.007825032230
         C           -1.271795600808    -0.555829685028     1.874606727577    12.000000000000
         H           -1.266413600808    -1.165939685028     2.780856727577     1.007825032230
         H           -1.270689600808    -1.254852685028     1.034743727577     1.007825032230
         C           -2.533515600808     0.296216314972     1.835629727577    12.000000000000
         H           -2.567708600808     0.896750314972     0.926752727577     1.007825032230
         H           -3.434317600808    -0.315081685028     1.865142727577     1.007825032230
         H           -2.564054600808     0.978802314972     2.684890727577     1.007825032230

  Running in c1 symmetry.

  Rotational constants: A =      0.06211  B =      0.06101  C =      0.03343 [cm^-1]
  Rotational constants: A =   1861.91154  B =   1828.88621  C =   1002.24518 [MHz]
  Nuclear repulsion =  185.635575112866235

  Charge       = 0
  Multiplicity = 1
  Electrons    = 42
  Nalpha       = 21
  Nbeta        = 21

  ==> Algorithm <==

  SCF Algorithm Type is DF.
  DIIS enabled.
  MOM disabled.
  Fractional occupation disabled.
  Guess Type is SAD.
  Energy threshold   = 1.00e-07
  Density threshold  = 1.00e-08
  Integral threshold = 0.00e+00

  ==> Primary Basis <==

  Basis Set: AUG-CC-PVQZ
    Blend: AUG-CC-PVQZ
    Number of shells: 268
    Number of basis function: 952
    Number of Cartesian functions: 1185
    Spherical Harmonics?: true
    Max angular momentum: 4

   => Loading Basis Set <=

    Name: (AUG-CC-PVQZ AUX)
    Role: JKFIT
    Keyword: DF_BASIS_SCF
    atoms 1, 5, 8, 11, 14              entry C          line   178 file /home/liuchw/anaconda3/envs/psi4env/share/psi4/basis/aug-cc-pvqz-jkfit.gbs 
    atoms 2-4, 6-7, 9-10, 12-13, 15-17 entry H          line    70 file /home/liuchw/anaconda3/envs/psi4env/share/psi4/basis/aug-cc-pvqz-jkfit.gbs 

  ==> Pre-Iterations <==

   -------------------------------------------------------
    Irrep   Nso     Nmo     Nalpha   Nbeta   Ndocc  Nsocc
   -------------------------------------------------------
     A        952     952       0       0       0       0
   -------------------------------------------------------
    Total     952     952      21      21      21       0
   -------------------------------------------------------

  ==> Integral Setup <==

  DFHelper Memory: AOs need 10.460 GiB; user supplied 27.940 GiB. Using in-core AOs.

  ==> MemDFJK: Density-Fitted J/K Matrices <==

    J tasked:                   Yes
    K tasked:                   Yes
    wK tasked:                   No
    OpenMP threads:               8
    Memory [MiB]:             28610
    Algorithm:                 Core
    Schwarz Cutoff:           1E-12
    Mask sparsity (%):       7.2053
    Fitting Condition:        1E-10

   => Auxiliary Basis Set <=

  Basis Set: (AUG-CC-PVQZ AUX)
    Blend: AUG-CC-PVQZ-JKFIT
    Number of shells: 386
    Number of basis function: 1622
    Number of Cartesian functions: 2202
    Spherical Harmonics?: true
    Max angular momentum: 5

  Minimum eigenvalue in the overlap matrix is 9.2327020702E-07.
  Using Symmetric Orthogonalization.

  SCF Guess: Superposition of Atomic Densities via on-the-fly atomic UHF.

  ==> Iterations <==

                           Total Energy        Delta E     RMS |[F,P]|

   @DF-RHF iter SAD:  -195.90799777533238   -1.95908e+02   0.00000e+00 
   @DF-RHF iter   1:  -196.14523345121680   -2.37236e-01   6.91396e-04 DIIS
   @DF-RHF iter   2:  -196.36537027836016   -2.20137e-01   3.17819e-04 DIIS
   @DF-RHF iter   3:  -196.41304887559502   -4.76786e-02   5.57373e-05 DIIS
   @DF-RHF iter   4:  -196.41609253064820   -3.04366e-03   1.19053e-05 DIIS
   @DF-RHF iter   5:  -196.41619371417789   -1.01184e-04   3.65280e-06 DIIS
   @DF-RHF iter   6:  -196.41620369043898   -9.97626e-06   5.77260e-07 DIIS
   @DF-RHF iter   7:  -196.41620402139782   -3.30959e-07   1.16289e-07 DIIS
   @DF-RHF iter   8:  -196.41620403529973   -1.39019e-08   2.25671e-08 DIIS
   @DF-RHF iter   9:  -196.41620403583821   -5.38478e-10   7.04802e-09 DIIS
  Energy and wave function converged.


  ==> Post-Iterations <==

    Orbital Energies [Eh]
    ---------------------

    Doubly Occupied:                                                      

       1A    -11.211520     2A    -11.211447     3A    -11.209075  
       4A    -11.206048     5A    -11.206046     6A     -1.080971  
       7A     -1.015149     8A     -0.918837     9A     -0.819738  
      10A     -0.784942    11A     -0.647406    12A     -0.598437  
      13A     -0.593006    14A     -0.553924    15A     -0.547517  
      16A     -0.525943    17A     -0.494614    18A     -0.476058  
      19A     -0.461869    20A     -0.459286    21A     -0.446898  

    Virtual:                                                              

      22A      0.027595    23A      0.029949    24A      0.034222  
      25A      0.035250    26A      0.047990    27A      0.048836  
      28A      0.050804    29A      0.051651    30A      0.071418  
      31A      0.073911    32A      0.076025    33A      0.076572  
      34A      0.082043    35A      0.101382    36A      0.102269  
      37A      0.111393    38A      0.117455    39A      0.117828  
      40A      0.122748    41A      0.128540    42A      0.133959  
      43A      0.135068    44A      0.135637    45A      0.139698  
      46A      0.147907    47A      0.149794    48A      0.153171  
      49A      0.172821    50A      0.175972    51A      0.186846  
      52A      0.187700    53A      0.192105    54A      0.201769  
      55A      0.215599    56A      0.217345    57A      0.227448  
      58A      0.232017    59A      0.237490    60A      0.238936  
      61A      0.252080    62A      0.257480    63A      0.264360  
      64A      0.268812    65A      0.275045    66A      0.290808  
      67A      0.292454    68A      0.294872    69A      0.295514  
      70A      0.299696    71A      0.302445    72A      0.306493  
      73A      0.309062    74A      0.310814    75A      0.313559  
      76A      0.316896    77A      0.322118    78A      0.324689  
      79A      0.331631    80A      0.334541    81A      0.339364  
      82A      0.342974    83A      0.345960    84A      0.350969  
      85A      0.360455    86A      0.363330    87A      0.366776  
      88A      0.370285    89A      0.371131    90A      0.377645  
      91A      0.380388    92A      0.388145    93A      0.393521  
      94A      0.400762    95A      0.401219    96A      0.406406  
      97A      0.407196    98A      0.408790    99A      0.411207  
     100A      0.422046   101A      0.424901   102A      0.425416  
     103A      0.437331   104A      0.438160   105A      0.440791  
     106A      0.440833   107A      0.452223   108A      0.452488  
     109A      0.458217   110A      0.459367   111A      0.469824  
     112A      0.479171   113A      0.490903   114A      0.494978  
     115A      0.495362   116A      0.498233   117A      0.505165  
     118A      0.506746   119A      0.510388   120A      0.524774  
     121A      0.530218   122A      0.554751   123A      0.562291  
     124A      0.563238   125A      0.563418   126A      0.585686  
     127A      0.586025   128A      0.587423   129A      0.593488  
     130A      0.597586   131A      0.609044   132A      0.614008  
     133A      0.617294   134A      0.618144   135A      0.622521  
     136A      0.632079   137A      0.633941   138A      0.634814  
     139A      0.646799   140A      0.648704   141A      0.651959  
     142A      0.653029   143A      0.659149   144A      0.676658  
     145A      0.677043   146A      0.695054   147A      0.699649  
     148A      0.702031   149A      0.706246   150A      0.707219  
     151A      0.713836   152A      0.717864   153A      0.720676  
     154A      0.721032   155A      0.728438   156A      0.733770  
     157A      0.747340   158A      0.753645   159A      0.757985  
     160A      0.760334   161A      0.766093   162A      0.777091  
     163A      0.777693   164A      0.780381   165A      0.785089  
     166A      0.791597   167A      0.806946   168A      0.812750  
     169A      0.824366   170A      0.838248   171A      0.845310  
     172A      0.846311   173A      0.868747   174A      0.875388  
     175A      0.880936   176A      0.884678   177A      0.886440  
     178A      0.898060   179A      0.901743   180A      0.907005  
     181A      0.913582   182A      0.914417   183A      0.916186  
     184A      0.918697   185A      0.922230   186A      0.932472  
     187A      0.938879   188A      0.941352   189A      0.946088  
     190A      0.948987   191A      0.952886   192A      0.964363  
     193A      0.965227   194A      0.967117   195A      0.987004  
     196A      0.989876   197A      1.006113   198A      1.012474  
     199A      1.018779   200A      1.024312   201A      1.034598  
     202A      1.040919   203A      1.044750   204A      1.046459  
     205A      1.048845   206A      1.057477   207A      1.065046  
     208A      1.069543   209A      1.070257   210A      1.082123  
     211A      1.088327   212A      1.093492   213A      1.102297  
     214A      1.108311   215A      1.118606   216A      1.120945  
     217A      1.121754   218A      1.125020   219A      1.126408  
     220A      1.132475   221A      1.154076   222A      1.167404  
     223A      1.168801   224A      1.174768   225A      1.185412  
     226A      1.189620   227A      1.198204   228A      1.200008  
     229A      1.205831   230A      1.207479   231A      1.213934  
     232A      1.225405   233A      1.228374   234A      1.231547  
     235A      1.242132   236A      1.244316   237A      1.253123  
     238A      1.253986   239A      1.259437   240A      1.268524  
     241A      1.279943   242A      1.291086   243A      1.297605  
     244A      1.307791   245A      1.309256   246A      1.317530  
     247A      1.321962   248A      1.326200   249A      1.336618  
     250A      1.339515   251A      1.346377   252A      1.351947  
     253A      1.354272   254A      1.367885   255A      1.375523  
     256A      1.386795   257A      1.389109   258A      1.398136  
     259A      1.419838   260A      1.426360   261A      1.435558  
     262A      1.437090   263A      1.452121   264A      1.457546  
     265A      1.467624   266A      1.484206   267A      1.484275  
     268A      1.493663   269A      1.508242   270A      1.517769  
     271A      1.525036   272A      1.525525   273A      1.528183  
     274A      1.552587   275A      1.561735   276A      1.579688  
     277A      1.583209   278A      1.586277   279A      1.598104  
     280A      1.602013   281A      1.605515   282A      1.621825  
     283A      1.628970   284A      1.631104   285A      1.634077  
     286A      1.650934   287A      1.680534   288A      1.681784  
     289A      1.690717   290A      1.713478   291A      1.719659  
     292A      1.722425   293A      1.735463   294A      1.739798  
     295A      1.749080   296A      1.761960   297A      1.766503  
     298A      1.768448   299A      1.789083   300A      1.797316  
     301A      1.799995   302A      1.808329   303A      1.820094  
     304A      1.826906   305A      1.835037   306A      1.839960  
     307A      1.840868   308A      1.863333   309A      1.865724  
     310A      1.885071   311A      1.890416   312A      1.892328  
     313A      1.901508   314A      1.904347   315A      1.920914  
     316A      1.923350   317A      1.937187   318A      1.961662  
     319A      1.963899   320A      1.967259   321A      1.975876  
     322A      1.992085   323A      1.998120   324A      2.000846  
     325A      2.016791   326A      2.032404   327A      2.037178  
     328A      2.041764   329A      2.042736   330A      2.049126  
     331A      2.058364   332A      2.063021   333A      2.066286  
     334A      2.078871   335A      2.084517   336A      2.094026  
     337A      2.101319   338A      2.102393   339A      2.119921  
     340A      2.124494   341A      2.131455   342A      2.133512  
     343A      2.142136   344A      2.146968   345A      2.153915  
     346A      2.154391   347A      2.158392   348A      2.161035  
     349A      2.175499   350A      2.180681   351A      2.182593  
     352A      2.191868   353A      2.192349   354A      2.194550  
     355A      2.195142   356A      2.204397   357A      2.209942  
     358A      2.215321   359A      2.226307   360A      2.227443  
     361A      2.235659   362A      2.237780   363A      2.246184  
     364A      2.251281   365A      2.254455   366A      2.264418  
     367A      2.265290   368A      2.267615   369A      2.287913  
     370A      2.312772   371A      2.320133   372A      2.332222  
     373A      2.332430   374A      2.343789   375A      2.344651  
     376A      2.351927   377A      2.356408   378A      2.361697  
     379A      2.366131   380A      2.373093   381A      2.386006  
     382A      2.386978   383A      2.390673   384A      2.391590  
     385A      2.396064   386A      2.412969   387A      2.413570  
     388A      2.421255   389A      2.448111   390A      2.456074  
     391A      2.465376   392A      2.477713   393A      2.479288  
     394A      2.485007   395A      2.488793   396A      2.498018  
     397A      2.506549   398A      2.507529   399A      2.514266  
     400A      2.514706   401A      2.523781   402A      2.547981  
     403A      2.549323   404A      2.551390   405A      2.554525  
     406A      2.573373   407A      2.584740   408A      2.595444  
     409A      2.620299   410A      2.628806   411A      2.638751  
     412A      2.639558   413A      2.644012   414A      2.662474  
     415A      2.665152   416A      2.686997   417A      2.689655  
     418A      2.695690   419A      2.697110   420A      2.726055  
     421A      2.734606   422A      2.753383   423A      2.781670  
     424A      2.785849   425A      2.793598   426A      2.796727  
     427A      2.815619   428A      2.822290   429A      2.824386  
     430A      2.836710   431A      2.842600   432A      2.845006  
     433A      2.847044   434A      2.862206   435A      2.867355  
     436A      2.868542   437A      2.881669   438A      2.890272  
     439A      2.899423   440A      2.906933   441A      2.914112  
     442A      2.918061   443A      2.930012   444A      2.937626  
     445A      2.955168   446A      2.957536   447A      2.959148  
     448A      2.964064   449A      2.970874   450A      2.991826  
     451A      3.014417   452A      3.015778   453A      3.016337  
     454A      3.020617   455A      3.026622   456A      3.027183  
     457A      3.056339   458A      3.074308   459A      3.081607  
     460A      3.090569   461A      3.103168   462A      3.113943  
     463A      3.135502   464A      3.149496   465A      3.150740  
     466A      3.152719   467A      3.172904   468A      3.180494  
     469A      3.195642   470A      3.196099   471A      3.204653  
     472A      3.219527   473A      3.231556   474A      3.245314  
     475A      3.260457   476A      3.261450   477A      3.262677  
     478A      3.288259   479A      3.291219   480A      3.303540  
     481A      3.317968   482A      3.318340   483A      3.329502  
     484A      3.341668   485A      3.352787   486A      3.357512  
     487A      3.359318   488A      3.397210   489A      3.416733  
     490A      3.422338   491A      3.427567   492A      3.429078  
     493A      3.431120   494A      3.446472   495A      3.466763  
     496A      3.506239   497A      3.507997   498A      3.516379  
     499A      3.520262   500A      3.526660   501A      3.530080  
     502A      3.532171   503A      3.545310   504A      3.564647  
     505A      3.566249   506A      3.571179   507A      3.611914  
     508A      3.621669   509A      3.632930   510A      3.636630  
     511A      3.655634   512A      3.669831   513A      3.682292  
     514A      3.715043   515A      3.722242   516A      3.729776  
     517A      3.739220   518A      3.791299   519A      3.799509  
     520A      3.808824   521A      3.817328   522A      3.829484  
     523A      3.834558   524A      3.844380   525A      3.845491  
     526A      3.849807   527A      3.889529   528A      3.895153  
     529A      3.912599   530A      3.914298   531A      3.918082  
     532A      3.929556   533A      3.934370   534A      3.964707  
     535A      3.981029   536A      3.982638   537A      3.990867  
     538A      4.017402   539A      4.027262   540A      4.048287  
     541A      4.066189   542A      4.067338   543A      4.089744  
     544A      4.092027   545A      4.093876   546A      4.111438  
     547A      4.118561   548A      4.119462   549A      4.128061  
     550A      4.145089   551A      4.145696   552A      4.159977  
     553A      4.166642   554A      4.171637   555A      4.209714  
     556A      4.219058   557A      4.223357   558A      4.223765  
     559A      4.251279   560A      4.255221   561A      4.258273  
     562A      4.288328   563A      4.295910   564A      4.318109  
     565A      4.333381   566A      4.339722   567A      4.361455  
     568A      4.379480   569A      4.382160   570A      4.385072  
     571A      4.394947   572A      4.395297   573A      4.440920  
     574A      4.444628   575A      4.458926   576A      4.463088  
     577A      4.474218   578A      4.516542   579A      4.541867  
     580A      4.544515   581A      4.547245   582A      4.564883  
     583A      4.567588   584A      4.571364   585A      4.582222  
     586A      4.604631   587A      4.624747   588A      4.650413  
     589A      4.650726   590A      4.660485   591A      4.683593  
     592A      4.692314   593A      4.692869   594A      4.693938  
     595A      4.710203   596A      4.735635   597A      4.741636  
     598A      4.747918   599A      4.764195   600A      4.769627  
     601A      4.800307   602A      4.827279   603A      4.833964  
     604A      4.869796   605A      4.878358   606A      4.890854  
     607A      4.891915   608A      4.899307   609A      4.935494  
     610A      4.941613   611A      4.963648   612A      5.001190  
     613A      5.041163   614A      5.118343   615A      5.119321  
     616A      5.136757   617A      5.139552   618A      5.150993  
     619A      5.178695   620A      5.183680   621A      5.205253  
     622A      5.225570   623A      5.230737   624A      5.262618  
     625A      5.282475   626A      5.284861   627A      5.306514  
     628A      5.317682   629A      5.349679   630A      5.406090  
     631A      5.425332   632A      5.433748   633A      5.508642  
     634A      5.523438   635A      5.539794   636A      6.222915  
     637A      6.225224   638A      6.225504   639A      6.259374  
     640A      6.287646   641A      6.295123   642A      6.342886  
     643A      6.379118   644A      6.397767   645A      6.399991  
     646A      6.401357   647A      6.430405   648A      6.448214  
     649A      6.458594   650A      6.494163   651A      6.508354  
     652A      6.537948   653A      6.546094   654A      6.547248  
     655A      6.591226   656A      6.594520   657A      6.611343  
     658A      6.658921   659A      6.675252   660A      6.686277  
     661A      6.703779   662A      6.719312   663A      6.729654  
     664A      6.753097   665A      6.758019   666A      6.775763  
     667A      6.820319   668A      6.844879   669A      6.866744  
     670A      6.874293   671A      6.908896   672A      6.912851  
     673A      6.916148   674A      6.937102   675A      6.937881  
     676A      6.940870   677A      6.951619   678A      6.953174  
     679A      6.964831   680A      6.972698   681A      6.980023  
     682A      6.982574   683A      7.001711   684A      7.012616  
     685A      7.021421   686A      7.032415   687A      7.049561  
     688A      7.059278   689A      7.060594   690A      7.082093  
     691A      7.089864   692A      7.095230   693A      7.097131  
     694A      7.105171   695A      7.109525   696A      7.115253  
     697A      7.132378   698A      7.144276   699A      7.146183  
     700A      7.149012   701A      7.166143   702A      7.177121  
     703A      7.188602   704A      7.207050   705A      7.214448  
     706A      7.216180   707A      7.238232   708A      7.263663  
     709A      7.285679   710A      7.307813   711A      7.315622  
     712A      7.342005   713A      7.347576   714A      7.352884  
     715A      7.356272   716A      7.364184   717A      7.408822  
     718A      7.416792   719A      7.417413   720A      7.430374  
     721A      7.450965   722A      7.451637   723A      7.487779  
     724A      7.498397   725A      7.527447   726A      7.529573  
     727A      7.547913   728A      7.562570   729A      7.579594  
     730A      7.588257   731A      7.597437   732A      7.624657  
     733A      7.654595   734A      7.664755   735A      7.688525  
     736A      7.693015   737A      7.713545   738A      7.738032  
     739A      7.760132   740A      7.763357   741A      7.785531  
     742A      7.792834   743A      7.827837   744A      7.833327  
     745A      7.835941   746A      7.843968   747A      7.866330  
     748A      7.882063   749A      7.890468   750A      7.923407  
     751A      7.943360   752A      7.949272   753A      7.974719  
     754A      7.979555   755A      7.981703   756A      8.013584  
     757A      8.018959   758A      8.019455   759A      8.024789  
     760A      8.042990   761A      8.043822   762A      8.091536  
     763A      8.096869   764A      8.127036   765A      8.139469  
     766A      8.156222   767A      8.156839   768A      8.161605  
     769A      8.232893   770A      8.261679   771A      8.270229  
     772A      8.290213   773A      8.293062   774A      8.316876  
     775A      8.323242   776A      8.328658   777A      8.361382  
     778A      8.386831   779A      8.437609   780A      8.475636  
     781A      8.505178   782A      8.571322   783A      8.577813  
     784A      8.592806   785A      8.597634   786A      8.598267  
     787A      8.600896   788A      8.608783   789A      8.630119  
     790A      8.645385   791A      8.684640   792A      8.685238  
     793A      8.689153   794A      8.722776   795A      8.727602  
     796A      8.751408   797A      8.763350   798A      8.788586  
     799A      8.792493   800A      8.794955   801A      8.804663  
     802A      8.805975   803A      8.842990   804A      8.847339  
     805A      8.849074   806A      8.902781   807A      8.929040  
     808A      8.930492   809A      8.948200   810A      8.961568  
     811A      8.975686   812A      8.985641   813A      9.006458  
     814A      9.048874   815A      9.064299   816A      9.086291  
     817A      9.215595   818A      9.215982   819A      9.263589  
     820A      9.269894   821A      9.273586   822A      9.278925  
     823A      9.279550   824A      9.340455   825A      9.357526  
     826A      9.367583   827A      9.374841   828A      9.399481  
     829A      9.414001   830A      9.443244   831A      9.452909  
     832A      9.453373   833A      9.468569   834A      9.505001  
     835A      9.506520   836A      9.514297   837A      9.554057  
     838A      9.580425   839A      9.598901   840A      9.608869  
     841A      9.610268   842A      9.611666   843A      9.618019  
     844A      9.631170   845A      9.638050   846A      9.639238  
     847A      9.658505   848A      9.688202   849A      9.691371  
     850A      9.695056   851A      9.709384   852A      9.716562  
     853A      9.723491   854A      9.743615   855A      9.776848  
     856A      9.785313   857A      9.837907   858A      9.838106  
     859A      9.846124   860A      9.862069   861A      9.884307  
     862A      9.886468   863A      9.888503   864A      9.910902  
     865A      9.926836   866A      9.951557   867A      9.972573  
     868A      9.984555   869A     10.005409   870A     10.032484  
     871A     10.056770   872A     10.064823   873A     10.087561  
     874A     10.088750   875A     10.098939   876A     10.152224  
     877A     10.154787   878A     10.171371   879A     10.181659  
     880A     10.183091   881A     10.199656   882A     10.230366  
     883A     10.255247   884A     10.269275   885A     10.279020  
     886A     10.291118   887A     10.301010   888A     10.338705  
     889A     10.369042   890A     10.390549   891A     10.402129  
     892A     10.421717   893A     10.424002   894A     10.445320  
     895A     10.492991   896A     10.497927   897A     10.505373  
     898A     10.511831   899A     10.524087   900A     10.529083  
     901A     10.533846   902A     10.583355   903A     10.593743  
     904A     10.602660   905A     10.643170   906A     10.699094  
     907A     10.715270   908A     10.735968   909A     10.883172  
     910A     10.928388   911A     10.996348   912A     11.000066  
     913A     11.039122   914A     11.039910   915A     11.073648  
     916A     11.075312   917A     11.107063   918A     11.107421  
     919A     11.112884   920A     11.124467   921A     11.134376  
     922A     11.190036   923A     11.196832   924A     11.240867  
     925A     11.246163   926A     11.246592   927A     11.468086  
     928A     11.470148   929A     11.494163   930A     11.507187  
     931A     11.525796   932A     11.533603   933A     11.606838  
     934A     11.632961   935A     11.659825   936A     13.426757  
     937A     13.427420   938A     13.475263   939A     13.481238  
     940A     13.513298   941A     13.529352   942A     13.568873  
     943A     13.629136   944A     13.639096   945A     13.709736  
     946A     13.778418   947A     13.782655   948A     28.336285  
     949A     28.477091   950A     28.580462   951A     29.098707  
     952A     29.140107  

    Final Occupation by Irrep:
              A 
    DOCC [    21 ]

  @DF-RHF Final Energy:  -196.41620403583821

   => Energetics <=

    Nuclear Repulsion Energy =            185.6355751128662348
    One-Electron Energy =                -631.1660967336148360
    Two-Electron Energy =                 249.1143175849103670
    Total Energy =                       -196.4162040358382058

Computation Completed


Properties will be evaluated at   0.000000,   0.000000,   0.000000 [a0]

Properties computed using the SCF density matrix

  Nuclear Dipole Moment: [e a0]
     X:    -0.0004      Y:    -2.4252      Z:   146.7852

  Electronic Dipole Moment: [e a0]
     X:     0.0004      Y:     2.3922      Z:  -146.7836

  Dipole Moment: [e a0]
     X:    -0.0000      Y:    -0.0330      Z:     0.0016     Total:     0.0331

  Dipole Moment: [D]
     X:    -0.0000      Y:    -0.0840      Z:     0.0040     Total:     0.0841


*** tstop() called on genome.bme.utexas.edu at Sat Apr 11 23:21:11 2020
Module time:
	user time   =     590.10 seconds =       9.83 minutes
	system time =     583.16 seconds =       9.72 minutes
	total time  =        179 seconds =       2.98 minutes
Total time:
	user time   =     834.55 seconds =      13.91 minutes
	system time =     598.40 seconds =       9.97 minutes
	total time  =        223 seconds =       3.72 minutes

*** tstart() called on genome.bme.utexas.edu
*** at Sat Apr 11 23:21:11 2020


  //>>>>>>>>>>>>>>>>>>>>>>>>>>>>>>>>>>>//
  //               DFMP2               //
  //<<<<<<<<<<<<<<<<<<<<<<<<<<<<<<<<<<<//

   => Loading Basis Set <=

    Name: (AUG-CC-PVQZ AUX)
    Role: RIFIT
    Keyword: DF_BASIS_MP2
    atoms 1, 5, 8, 11, 14              entry C          line   184 file /home/liuchw/anaconda3/envs/psi4env/share/psi4/basis/aug-cc-pvqz-ri.gbs 
    atoms 2-4, 6-7, 9-10, 12-13, 15-17 entry H          line    30 file /home/liuchw/anaconda3/envs/psi4env/share/psi4/basis/aug-cc-pvqz-ri.gbs 

	 --------------------------------------------------------
	                          DF-MP2                         
	      2nd-Order Density-Fitted Moller-Plesset Theory     
	              RMP2 Wavefunction,   8 Threads             
	                                                         
	        Rob Parrish, Justin Turney, Andy Simmonett,      
	           Ed Hohenstein, and C. David Sherrill          
	 --------------------------------------------------------

   => Auxiliary Basis Set <=

  Basis Set: (AUG-CC-PVQZ AUX)
    Blend: AUG-CC-PVQZ-RI
    Number of shells: 420
    Number of basis function: 1800
    Number of Cartesian functions: 2445
    Spherical Harmonics?: true
    Max angular momentum: 5

	 --------------------------------------------------------
	                 NBF =   952, NAUX =  1800
	 --------------------------------------------------------
	   CLASS    FOCC     OCC    AOCC    AVIR     VIR    FVIR
	   PAIRS       0      21      21     931     931       0
	 --------------------------------------------------------

	-----------------------------------------------------------
	 ==================> DF-MP2 Energies <==================== 
	-----------------------------------------------------------
	 Reference Energy          =    -196.4162040358382058 [Eh]
	 Singles Energy            =      -0.0000000000000000 [Eh]
	 Same-Spin Energy          =      -0.2196503237812689 [Eh]
	 Opposite-Spin Energy      =      -0.8784569657049577 [Eh]
	 Correlation Energy        =      -1.0981072894862265 [Eh]
	 Total Energy              =    -197.5143113253244280 [Eh]
	-----------------------------------------------------------
	 ================> DF-SCS-MP2 Energies <================== 
	-----------------------------------------------------------
	 SCS Same-Spin Scale       =       0.3333333333333333 [-]
	 SCS Opposite-Spin Scale   =       1.2000000000000000 [-]
	 SCS Same-Spin Energy      =      -0.0732167745937563 [Eh]
	 SCS Opposite-Spin Energy  =      -1.0541483588459493 [Eh]
	 SCS Correlation Energy    =      -1.1273651334397055 [Eh]
	 SCS Total Energy          =    -197.5435691692779017 [Eh]
	-----------------------------------------------------------


*** tstop() called on genome.bme.utexas.edu at Sat Apr 11 23:24:24 2020
Module time:
	user time   =     300.15 seconds =       5.00 minutes
	system time =     142.08 seconds =       2.37 minutes
	total time  =        193 seconds =       3.22 minutes
Total time:
	user time   =    1134.71 seconds =      18.91 minutes
	system time =     740.48 seconds =      12.34 minutes
	total time  =        416 seconds =       6.93 minutes

  //>>>>>>>>>>>>>>>>>>>>>>>>>>>>>>>>>>>//
  //  CBS Results: mp2/aug-cc-pv[tq]z  //
  //<<<<<<<<<<<<<<<<<<<<<<<<<<<<<<<<<<<//


   ==> HF <==

   HI-zeta (4) Energy:               -196.416204035838


   ==> Helgaker 2-point correlated extrapolation for method: MP2 <==

   LO-zeta (3) Energy:               -197.405331039929
   HI-zeta (4) Energy:               -197.514311325324
   Alpha (exponent) Value:             3.000000000000
   Extrapolated Energy:              -197.593837479532

   @Extrapolated MP2/(T,Q):          -197.593837479532



   ==> Helgaker 2-point correlated extrapolation for method: HF <==

   LO-zeta (3) Energy:               -196.404381827242
   HI-zeta (4) Energy:               -196.416204035838
   Alpha (exponent) Value:             3.000000000000
   Extrapolated Energy:              -196.424831052922

   @Extrapolated HF/(T,Q):           -196.424831052922


   ==> Components <==

  ---------------------------------------------------------------------------------------------------------
                          Method / Basis                      Rqd      Energy [Eh]   Variable
  ---------------------------------------------------------------------------------------------------------
                              hf / aug-cc-pvtz                  *    -196.40438183   HF TOTAL ENERGY
                             mp2 / aug-cc-pvtz                  *    -197.40533104   MP2 TOTAL ENERGY
                              hf / aug-cc-pvqz                  *    -196.41620404   HF TOTAL ENERGY
                             mp2 / aug-cc-pvqz                  *    -197.51431133   MP2 TOTAL ENERGY
  ---------------------------------------------------------------------------------------------------------

   ==> Stages <==

  ---------------------------------------------------------------------------------------------------------
      Stage               Method / Basis                       Wt      Energy [Eh]   Scheme
  ---------------------------------------------------------------------------------------------------------
        scf                   hf / aug-cc-pvqz                  1    -196.41620404   xtpl_highest_1
       corl                  mp2 / aug-cc-pv[tq]z               1    -197.59383748   corl_xtpl_helgaker_2
       corl                   hf / aug-cc-pv[tq]z              -1    -196.42483105   corl_xtpl_helgaker_2
  ---------------------------------------------------------------------------------------------------------

   ==> CBS <==

  ---------------------------------------------------------------------------------------------------------
      Stage               Method / Basis                               Energy [Eh]   Scheme
  ---------------------------------------------------------------------------------------------------------
        scf                   hf / aug-cc-pvqz                       -196.41620404   xtpl_highest_1
       corl                  mp2 / aug-cc-pv[tq]z                      -1.16900643   corl_xtpl_helgaker_2
      total                  CBS                                     -197.58521046   
  ---------------------------------------------------------------------------------------------------------
   => Loading Basis Set <=

    Name: DEF2-SVP
    Role: ORBITAL
    Keyword: BASIS
    atoms 1, 5, 8, 11, 14              entry C          line    90 file /home/liuchw/anaconda3/envs/psi4env/share/psi4/basis/def2-svp.gbs 
    atoms 2-4, 6-7, 9-10, 12-13, 15-17 entry H          line    15 file /home/liuchw/anaconda3/envs/psi4env/share/psi4/basis/def2-svp.gbs 


       N-Body: Complex Energy (fragments = (2,), basis = (2,):  -197.58521046244769)

       N-Body: Computing complex (2/4) with fragments (2,) in the basis of fragments (1, 2).


Scratch directory: /scratch//

  //>>>>>>>>>>>>>>>>>>>>>>>>>>>>>>>>>>>//
  //   CBS Setup: mp2/aug-cc-pv[tq]z   //
  //<<<<<<<<<<<<<<<<<<<<<<<<<<<<<<<<<<<//

    Naive listing of computations required.
             hf / aug-cc-pvqz              for  HF TOTAL ENERGY
            mp2 / aug-cc-pvtz              for  MP2 TOTAL ENERGY
            mp2 / aug-cc-pvqz              for  MP2 TOTAL ENERGY
             hf / aug-cc-pvtz              for  HF TOTAL ENERGY
             hf / aug-cc-pvqz              for  HF TOTAL ENERGY

    Enlightened listing of computations required.
            mp2 / aug-cc-pvtz              for  MP2 TOTAL ENERGY
            mp2 / aug-cc-pvqz              for  MP2 TOTAL ENERGY

    Full listing of computations to be obtained (required and bonus).
             hf / aug-cc-pvtz              for  HF TOTAL ENERGY
            mp2 / aug-cc-pvtz              for  MP2 TOTAL ENERGY
             hf / aug-cc-pvqz              for  HF TOTAL ENERGY
            mp2 / aug-cc-pvqz              for  MP2 TOTAL ENERGY

  //>>>>>>>>>>>>>>>>>>>>>>>>>>>>>>>>>>>>//
  // CBS Computation: MP2 / AUG-CC-PVTZ //
  //<<<<<<<<<<<<<<<<<<<<<<<<<<<<<<<<<<<<//


Scratch directory: /scratch//

*** tstart() called on genome.bme.utexas.edu
*** at Sat Apr 11 23:24:29 2020

   => Loading Basis Set <=

    Name: AUG-CC-PVTZ
    Role: ORBITAL
    Keyword: BASIS
    atoms 1, 5, 8, 11, 14, 18, 22, 25, 28, 31                             entry C          line   239 file /home/liuchw/anaconda3/envs/psi4env/share/psi4/basis/aug-cc-pvtz.gbs 
    atoms 2-4, 6-7, 9-10, 12-13, 15-17, 19-21, 23-24, 26-27, 29-30, 32-34 entry H          line    40 file /home/liuchw/anaconda3/envs/psi4env/share/psi4/basis/aug-cc-pvtz.gbs 


         ---------------------------------------------------------
                                   SCF
               by Justin Turney, Rob Parrish, Andy Simmonett
                          and Daniel G. A. Smith
                              RHF Reference
                        8 Threads,  38146 MiB Core
         ---------------------------------------------------------

  ==> Geometry <==

    Molecular point group: c1
    Full point group: C1

    Geometry (in Angstrom), charge = 0, multiplicity = 1:

       Center              X                  Y                   Z               Mass       
    ------------   -----------------  -----------------  -----------------  -----------------
      Gh(C)          -2.533300600808    -0.296418685028    -1.835773272423    12.000000000000
      Gh(H)          -2.563618600808    -0.978621685028    -2.685345272423     1.007825032230
      Gh(H)          -2.566969600808    -0.897415685028    -0.927190272423     1.007825032230
      Gh(H)          -3.434417600808     0.314417314972    -1.864818272423     1.007825032230
      Gh(C)          -1.271876600808     0.556115314972    -1.874567272423    12.000000000000
      Gh(H)          -1.271017600808     1.255026314972    -1.034603272423     1.007825032230
      Gh(H)          -1.266624600808     1.166356314972    -2.780749272423     1.007825032230
      Gh(C)          -0.000126600808    -0.279957685028    -1.829319272423    12.000000000000
      Gh(H)          -0.000150600808    -0.888769685028    -0.920285272423     1.007825032230
      Gh(H)          -0.000356600808    -0.982253685028    -2.668326272423     1.007825032230
      Gh(C)           1.271903399192     0.555842314972    -1.874861272423    12.000000000000
      Gh(H)           1.270980399192     1.255093314972    -1.035217272423     1.007825032230
      Gh(H)           1.266644399192     1.165643314972    -2.781309272423     1.007825032230
      Gh(C)           2.533412399192    -0.296481685028    -1.835642272423    12.000000000000
      Gh(H)           2.563927399192    -0.979313685028    -2.684700272423     1.007825032230
      Gh(H)           3.434318399192     0.314714314972    -1.865323272423     1.007825032230
      Gh(H)           2.567566399192    -0.896748685028    -0.926593272423     1.007825032230
         C            2.533566399192     0.296100314972     1.835647727577    12.000000000000
         H            2.568150399192     0.895906314972     0.926321727577     1.007825032230
         H            2.564069399192     0.979306314972     2.684392727577     1.007825032230
         H            3.434246399192    -0.315397685028     1.865856727577     1.007825032230
         C            1.271740399192    -0.555787685028     1.874951727577    12.000000000000
         H            1.266296399192    -1.165514685028     2.781448727577     1.007825032230
         H            1.270609399192    -1.255140685028     1.035370727577     1.007825032230
         C           -0.000034600808     0.280312314972     1.829335727577    12.000000000000
         H           -0.000189600808     0.982622314972     2.668319727577     1.007825032230
         H            0.000041399192     0.889088314972     0.920265727577     1.007825032230
         C           -1.271795600808    -0.555829685028     1.874606727577    12.000000000000
         H           -1.266413600808    -1.165939685028     2.780856727577     1.007825032230
         H           -1.270689600808    -1.254852685028     1.034743727577     1.007825032230
         C           -2.533515600808     0.296216314972     1.835629727577    12.000000000000
         H           -2.567708600808     0.896750314972     0.926752727577     1.007825032230
         H           -3.434317600808    -0.315081685028     1.865142727577     1.007825032230
         H           -2.564054600808     0.978802314972     2.684890727577     1.007825032230

  Running in c1 symmetry.

  Rotational constants: A =      0.03105  B =      0.03050  C =      0.01672 [cm^-1]
  Rotational constants: A =    930.97668  B =    914.42998  C =    501.13286 [MHz]
  Nuclear repulsion =  185.635575112866235

  Charge       = 0
  Multiplicity = 1
  Electrons    = 42
  Nalpha       = 21
  Nbeta        = 21

  ==> Algorithm <==

  SCF Algorithm Type is DF.
  DIIS enabled.
  MOM disabled.
  Fractional occupation disabled.
  Guess Type is SAD.
  Energy threshold   = 1.00e-07
  Density threshold  = 1.00e-08
  Integral threshold = 0.00e+00

  ==> Primary Basis <==

  Basis Set: AUG-CC-PVTZ
    Blend: AUG-CC-PVTZ
    Number of shells: 356
    Number of basis function: 1012
    Number of Cartesian functions: 1150
    Spherical Harmonics?: true
    Max angular momentum: 3

   => Loading Basis Set <=

    Name: (AUG-CC-PVTZ AUX)
    Role: JKFIT
    Keyword: DF_BASIS_SCF
    atoms 1, 5, 8, 11, 14, 18, 22, 25, 28, 31                             entry C          line   162 file /home/liuchw/anaconda3/envs/psi4env/share/psi4/basis/aug-cc-pvtz-jkfit.gbs 
    atoms 2-4, 6-7, 9-10, 12-13, 15-17, 19-21, 23-24, 26-27, 29-30, 32-34 entry H          line    70 file /home/liuchw/anaconda3/envs/psi4env/share/psi4/basis/aug-cc-pvtz-jkfit.gbs 

  ==> Pre-Iterations <==

   -------------------------------------------------------
    Irrep   Nso     Nmo     Nalpha   Nbeta   Ndocc  Nsocc
   -------------------------------------------------------
     A       1012    1012       0       0       0       0
   -------------------------------------------------------
    Total    1012    1012      21      21      21       0
   -------------------------------------------------------

  ==> Integral Setup <==

  DFHelper Memory: AOs need 15.243 GiB; user supplied 27.940 GiB. Using in-core AOs.

  ==> MemDFJK: Density-Fitted J/K Matrices <==

    J tasked:                   Yes
    K tasked:                   Yes
    wK tasked:                   No
    OpenMP threads:               8
    Memory [MiB]:             28610
    Algorithm:                 Core
    Schwarz Cutoff:           1E-12
    Mask sparsity (%):       8.6687
    Fitting Condition:        1E-10

   => Auxiliary Basis Set <=

  Basis Set: (AUG-CC-PVTZ AUX)
    Blend: AUG-CC-PVTZ-JKFIT
    Number of shells: 636
    Number of basis function: 2144
    Number of Cartesian functions: 2630
    Spherical Harmonics?: true
    Max angular momentum: 4

  Minimum eigenvalue in the overlap matrix is 1.1514170261E-06.
  Using Symmetric Orthogonalization.

  SCF Guess: Superposition of Atomic Densities via on-the-fly atomic UHF.

  ==> Iterations <==

                           Total Energy        Delta E     RMS |[F,P]|

   @DF-RHF iter SAD:  -195.89590484570209   -1.95896e+02   0.00000e+00 
   @DF-RHF iter   1:  -196.13394085076686   -2.38036e-01   6.49651e-04 DIIS
   @DF-RHF iter   2:  -196.35379690096460   -2.19856e-01   2.98228e-04 DIIS
   @DF-RHF iter   3:  -196.40132729500786   -4.75304e-02   5.20108e-05 DIIS
   @DF-RHF iter   4:  -196.40435041814766   -3.02312e-03   1.11286e-05 DIIS
   @DF-RHF iter   5:  -196.40444924503029   -9.88269e-05   3.35865e-06 DIIS
   @DF-RHF iter   6:  -196.40445905094387   -9.80591e-06   5.18906e-07 DIIS
   @DF-RHF iter   7:  -196.40445935641947   -3.05476e-07   1.06689e-07 DIIS
   @DF-RHF iter   8:  -196.40445936987282   -1.34534e-08   2.04333e-08 DIIS
   @DF-RHF iter   9:  -196.40445937037566   -5.02837e-10   6.53334e-09 DIIS
  Energy and wave function converged.


  ==> Post-Iterations <==

    Orbital Energies [Eh]
    ---------------------

    Doubly Occupied:                                                      

       1A    -11.212605     2A    -11.212532     3A    -11.210165  
       4A    -11.207083     5A    -11.207081     6A     -1.081208  
       7A     -1.015343     8A     -0.918974     9A     -0.819820  
      10A     -0.784972    11A     -0.647299    12A     -0.598307  
      13A     -0.592869    14A     -0.553807    15A     -0.547354  
      16A     -0.525769    17A     -0.494453    18A     -0.475851  
      19A     -0.461724    20A     -0.459064    21A     -0.446771  

    Virtual:                                                              

      22A      0.020350    23A      0.028170    24A      0.031407  
      25A      0.032002    26A      0.041561    27A      0.045146  
      28A      0.045350    29A      0.047138    30A      0.053404  
      31A      0.061080    32A      0.063476    33A      0.064491  
      34A      0.067966    35A      0.071231    36A      0.071688  
      37A      0.074313    38A      0.082549    39A      0.085643  
      40A      0.089112    41A      0.090055    42A      0.092264  
      43A      0.092607    44A      0.101784    45A      0.103469  
      46A      0.107192    47A      0.115256    48A      0.118086  
      49A      0.120014    50A      0.121376    51A      0.123401  
      52A      0.127347    53A      0.131411    54A      0.134112  
      55A      0.139143    56A      0.140101    57A      0.145460  
      58A      0.145980    59A      0.146322    60A      0.154936  
      61A      0.161026    62A      0.161623    63A      0.164808  
      64A      0.168907    65A      0.173237    66A      0.175338  
      67A      0.182014    68A      0.182629    69A      0.185297  
      70A      0.186811    71A      0.188215    72A      0.191809  
      73A      0.192604    74A      0.193912    75A      0.199082  
      76A      0.207646    77A      0.214608    78A      0.215683  
      79A      0.219328    80A      0.225295    81A      0.231106  
      82A      0.235604    83A      0.236088    84A      0.242280  
      85A      0.255861    86A      0.259535    87A      0.264865  
      88A      0.269540    89A      0.273580    90A      0.277314  
      91A      0.287829    92A      0.289337    93A      0.289949  
      94A      0.292546    95A      0.297881    96A      0.304473  
      97A      0.306616    98A      0.309120    99A      0.312631  
     100A      0.314795   101A      0.324400   102A      0.324804  
     103A      0.332025   104A      0.334522   105A      0.336120  
     106A      0.339650   107A      0.345399   108A      0.346431  
     109A      0.349252   110A      0.354792   111A      0.355242  
     112A      0.360545   113A      0.364708   114A      0.366386  
     115A      0.370160   116A      0.371406   117A      0.373688  
     118A      0.375486   119A      0.380674   120A      0.383775  
     121A      0.384240   122A      0.389490   123A      0.394231  
     124A      0.394571   125A      0.400638   126A      0.401347  
     127A      0.404745   128A      0.406282   129A      0.408585  
     130A      0.419854   131A      0.420444   132A      0.421168  
     133A      0.425995   134A      0.429626   135A      0.433658  
     136A      0.435680   137A      0.439477   138A      0.445229  
     139A      0.445513   140A      0.449637   141A      0.451868  
     142A      0.456557   143A      0.460454   144A      0.464913  
     145A      0.470775   146A      0.475410   147A      0.475823  
     148A      0.477640   149A      0.481116   150A      0.485148  
     151A      0.488435   152A      0.489401   153A      0.494752  
     154A      0.496621   155A      0.500979   156A      0.507392  
     157A      0.508720   158A      0.515140   159A      0.518042  
     160A      0.518046   161A      0.524169   162A      0.524693  
     163A      0.528781   164A      0.532589   165A      0.533161  
     166A      0.534726   167A      0.544148   168A      0.551778  
     169A      0.554934   170A      0.556077   171A      0.560823  
     172A      0.562485   173A      0.564572   174A      0.570731  
     175A      0.577169   176A      0.580892   177A      0.584543  
     178A      0.587658   179A      0.592881   180A      0.600856  
     181A      0.601999   182A      0.603270   183A      0.608567  
     184A      0.614721   185A      0.617980   186A      0.620255  
     187A      0.623631   188A      0.628251   189A      0.629531  
     190A      0.642336   191A      0.646212   192A      0.649648  
     193A      0.652717   194A      0.658734   195A      0.660654  
     196A      0.664496   197A      0.665166   198A      0.668355  
     199A      0.668813   200A      0.677518   201A      0.678963  
     202A      0.681522   203A      0.689812   204A      0.691159  
     205A      0.693961   206A      0.696465   207A      0.701357  
     208A      0.701820   209A      0.707055   210A      0.708350  
     211A      0.713025   212A      0.715048   213A      0.724186  
     214A      0.729216   215A      0.735409   216A      0.736552  
     217A      0.738872   218A      0.742422   219A      0.749499  
     220A      0.753496   221A      0.753654   222A      0.756660  
     223A      0.761657   224A      0.762126   225A      0.767689  
     226A      0.770677   227A      0.775785   228A      0.782679  
     229A      0.786426   230A      0.795208   231A      0.800331  
     232A      0.805206   233A      0.805845   234A      0.807257  
     235A      0.817520   236A      0.821384   237A      0.822728  
     238A      0.826551   239A      0.828769   240A      0.831994  
     241A      0.839156   242A      0.846336   243A      0.851872  
     244A      0.860425   245A      0.864498   246A      0.866185  
     247A      0.867909   248A      0.872819   249A      0.880228  
     250A      0.881167   251A      0.886156   252A      0.888892  
     253A      0.897603   254A      0.903352   255A      0.907730  
     256A      0.908219   257A      0.912111   258A      0.920770  
     259A      0.925028   260A      0.925175   261A      0.935493  
     262A      0.936676   263A      0.950205   264A      0.951044  
     265A      0.951477   266A      0.959067   267A      0.961463  
     268A      0.967347   269A      0.969300   270A      0.977597  
     271A      0.979828   272A      0.984451   273A      0.991576  
     274A      0.993780   275A      1.007534   276A      1.010370  
     277A      1.012137   278A      1.016836   279A      1.024783  
     280A      1.027686   281A      1.030677   282A      1.046077  
     283A      1.047217   284A      1.052524   285A      1.057406  
     286A      1.060691   287A      1.062900   288A      1.069243  
     289A      1.072403   290A      1.086464   291A      1.086690  
[...]
    1432A      7.503538  1433A      7.504297  1434A      7.507053  
    1435A      7.533790  1436A      7.539393  1437A      7.547398  
    1438A      7.551264  1439A      7.554034  1440A      7.556481  
    1441A      7.568802  1442A      7.578046  1443A      7.583140  
    1444A      7.586185  1445A      7.586923  1446A      7.612805  
    1447A      7.617444  1448A      7.626387  1449A      7.628276  
    1450A      7.644887  1451A      7.654522  1452A      7.655059  
    1453A      7.663741  1454A      7.667308  1455A      7.681192  
    1456A      7.681256  1457A      7.703567  1458A      7.720334  
    1459A      7.728653  1460A      7.729203  1461A      7.731674  
    1462A      7.744599  1463A      7.757759  1464A      7.759943  
    1465A      7.776996  1466A      7.781557  1467A      7.790144  
    1468A      7.795193  1469A      7.797375  1470A      7.808467  
    1471A      7.814825  1472A      7.817907  1473A      7.845762  
    1474A      7.864279  1475A      7.868566  1476A      7.870948  
    1477A      7.876026  1478A      7.883516  1479A      7.901869  
    1480A      7.901940  1481A      7.903956  1482A      7.910541  
    1483A      7.916436  1484A      7.941529  1485A      7.943647  
    1486A      7.944400  1487A      7.945137  1488A      7.952976  
    1489A      7.957085  1490A      7.975323  1491A      7.976818  
    1492A      7.980178  1493A      7.989671  1494A      7.990270  
    1495A      7.990909  1496A      8.002961  1497A      8.017253  
    1498A      8.020146  1499A      8.029073  1500A      8.041607  
    1501A      8.048816  1502A      8.051733  1503A      8.063197  
    1504A      8.065790  1505A      8.091351  1506A      8.094583  
    1507A      8.096585  1508A      8.102149  1509A      8.116844  
    1510A      8.120710  1511A      8.129271  1512A      8.136651  
    1513A      8.146933  1514A      8.151965  1515A      8.159440  
    1516A      8.167248  1517A      8.167719  1518A      8.168421  
    1519A      8.180700  1520A      8.198831  1521A      8.201335  
    1522A      8.202334  1523A      8.212919  1524A      8.218387  
    1525A      8.220464  1526A      8.240197  1527A      8.250371  
    1528A      8.254516  1529A      8.257953  1530A      8.261033  
    1531A      8.273189  1532A      8.281996  1533A      8.316181  
    1534A      8.317633  1535A      8.331548  1536A      8.342558  
    1537A      8.359435  1538A      8.372208  1539A      8.374880  
    1540A      8.380115  1541A      8.397331  1542A      8.404755  
    1543A      8.410028  1544A      8.410153  1545A      8.415996  
    1546A      8.420828  1547A      8.431035  1548A      8.436856  
    1549A      8.455987  1550A      8.470273  1551A      8.473761  
    1552A      8.495598  1553A      8.496334  1554A      8.510817  
    1555A      8.516948  1556A      8.519705  1557A      8.546273  
    1558A      8.548089  1559A      8.570666  1560A      8.613369  
    1561A      8.615020  1562A      8.627451  1563A      8.628719  
    1564A      8.653636  1565A      8.659351  1566A      8.660088  
    1567A      8.661411  1568A      8.672397  1569A      8.679165  
    1570A      8.692021  1571A      8.705236  1572A      8.710409  
    1573A      8.722283  1574A      8.729706  1575A      8.730035  
    1576A      8.740494  1577A      8.744995  1578A      8.751401  
    1579A      8.754266  1580A      8.767117  1581A      8.772954  
    1582A      8.779588  1583A      8.791799  1584A      8.791803  
    1585A      8.798049  1586A      8.810297  1587A      8.814654  
    1588A      8.825237  1589A      8.836524  1590A      8.848218  
    1591A      8.858610  1592A      8.863243  1593A      8.868002  
    1594A      8.877089  1595A      8.879182  1596A      8.880623  
    1597A      8.885842  1598A      8.902504  1599A      8.905148  
    1600A      8.905584  1601A      8.907576  1602A      8.908536  
    1603A      8.922502  1604A      8.936058  1605A      8.936644  
    1606A      8.959874  1607A      8.975922  1608A      8.983847  
    1609A      9.003550  1610A      9.020701  1611A      9.022111  
    1612A      9.022185  1613A      9.028305  1614A      9.038526  
    1615A      9.048390  1616A      9.049651  1617A      9.050746  
    1618A      9.057096  1619A      9.057965  1620A      9.088310  
    1621A      9.092008  1622A      9.107969  1623A      9.128769  
    1624A      9.131304  1625A      9.148758  1626A      9.153784  
    1627A      9.190367  1628A      9.198765  1629A      9.217278  
    1630A      9.236637  1631A      9.242483  1632A      9.250006  
    1633A      9.267462  1634A      9.269266  1635A      9.295772  
    1636A      9.296693  1637A      9.338071  1638A      9.340905  
    1639A      9.354845  1640A      9.370858  1641A      9.372607  
    1642A      9.377280  1643A      9.381480  1644A      9.387427  
    1645A      9.389669  1646A      9.398009  1647A      9.437151  
    1648A      9.449493  1649A      9.469211  1650A      9.479990  
    1651A      9.480196  1652A      9.487055  1653A      9.495572  
    1654A      9.497177  1655A      9.501538  1656A      9.518450  
    1657A      9.528864  1658A      9.537007  1659A      9.541194  
    1660A      9.541739  1661A      9.545233  1662A      9.576338  
    1663A      9.580720  1664A      9.581513  1665A      9.586762  
    1666A      9.589480  1667A      9.601610  1668A      9.605486  
    1669A      9.605636  1670A      9.618496  1671A      9.621193  
    1672A      9.644560  1673A      9.646331  1674A      9.652383  
    1675A      9.672191  1676A      9.673625  1677A      9.677799  
    1678A      9.681418  1679A      9.685392  1680A      9.685650  
    1681A      9.695110  1682A      9.699830  1683A      9.700918  
    1684A      9.701864  1685A      9.710565  1686A      9.720137  
    1687A      9.739618  1688A      9.740003  1689A      9.743758  
    1690A      9.748162  1691A      9.751211  1692A      9.756030  
    1693A      9.762588  1694A      9.785352  1695A      9.787135  
    1696A      9.792052  1697A      9.793611  1698A      9.796129  
    1699A      9.806652  1700A      9.808990  1701A      9.811687  
    1702A      9.835012  1703A      9.852501  1704A      9.852635  
    1705A      9.857993  1706A      9.860918  1707A      9.883014  
    1708A      9.888310  1709A      9.900138  1710A      9.904406  
    1711A      9.924459  1712A      9.933661  1713A      9.935371  
    1714A      9.942031  1715A      9.949701  1716A      9.952497  
    1717A      9.958818  1718A      9.962482  1719A      9.968520  
    1720A      9.971642  1721A      9.981950  1722A      9.983047  
    1723A      9.983848  1724A      9.993138  1725A     10.027692  
    1726A     10.032097  1727A     10.049698  1728A     10.051428  
    1729A     10.052084  1730A     10.073978  1731A     10.087377  
    1732A     10.092005  1733A     10.093623  1734A     10.105081  
    1735A     10.114140  1736A     10.118856  1737A     10.141322  
    1738A     10.145102  1739A     10.152221  1740A     10.153519  
    1741A     10.174356  1742A     10.174646  1743A     10.185833  
    1744A     10.191104  1745A     10.210187  1746A     10.217254  
    1747A     10.221905  1748A     10.222856  1749A     10.232006  
    1750A     10.253671  1751A     10.256916  1752A     10.272696  
    1753A     10.278384  1754A     10.279284  1755A     10.280912  
    1756A     10.292703  1757A     10.303452  1758A     10.306942  
    1759A     10.316509  1760A     10.322458  1761A     10.331733  
    1762A     10.338110  1763A     10.365306  1764A     10.374055  
    1765A     10.383557  1766A     10.393024  1767A     10.393278  
    1768A     10.409362  1769A     10.430972  1770A     10.434236  
    1771A     10.438361  1772A     10.447669  1773A     10.462281  
    1774A     10.463100  1775A     10.467031  1776A     10.475770  
    1777A     10.491758  1778A     10.500616  1779A     10.502492  
    1780A     10.517132  1781A     10.526612  1782A     10.540837  
    1783A     10.550813  1784A     10.559028  1785A     10.572667  
    1786A     10.573371  1787A     10.580743  1788A     10.581729  
    1789A     10.587114  1790A     10.590612  1791A     10.593054  
    1792A     10.604596  1793A     10.604797  1794A     10.606404  
    1795A     10.618951  1796A     10.632152  1797A     10.632848  
    1798A     10.656765  1799A     10.658812  1800A     10.669402  
    1801A     10.675173  1802A     10.683982  1803A     10.689323  
    1804A     10.704405  1805A     10.727923  1806A     10.751113  
    1807A     10.773353  1808A     10.784117  1809A     10.796598  
    1810A     10.822088  1811A     10.827291  1812A     10.827443  
    1813A     10.834376  1814A     10.834904  1815A     10.902862  
    1816A     10.912937  1817A     10.976717  1818A     10.978526  
    1819A     11.000240  1820A     11.002083  1821A     11.063158  
    1822A     11.093206  1823A     11.095858  1824A     11.113292  
    1825A     11.114425  1826A     11.122663  1827A     11.126449  
    1828A     11.140018  1829A     11.148699  1830A     11.153760  
    1831A     11.160211  1832A     11.165702  1833A     11.176186  
    1834A     11.193156  1835A     11.202064  1836A     11.224730  
    1837A     11.228954  1838A     11.244371  1839A     11.258236  
    1840A     11.262859  1841A     11.263602  1842A     11.295173  
    1843A     11.331576  1844A     11.339528  1845A     11.345178  
    1846A     11.348287  1847A     11.383908  1848A     11.388252  
    1849A     11.402527  1850A     11.426237  1851A     11.440508  
    1852A     11.484580  1853A     11.526565  1854A     11.535816  
    1855A     11.539663  1856A     11.561388  1857A     11.565941  
    1858A     11.576738  1859A     11.580027  1860A     11.588815  
    1861A     11.601146  1862A     11.606829  1863A     11.607682  
    1864A     11.615454  1865A     11.711472  1866A     11.746368  
    1867A     11.746828  1868A     11.775060  1869A     11.792106  
    1870A     11.846708  1871A     13.555297  1872A     13.569968  
    1873A     13.598512  1874A     13.605556  1875A     13.609793  
    1876A     13.618153  1877A     13.652146  1878A     13.654250  
    1879A     13.664502  1880A     13.692958  1881A     13.709819  
    1882A     13.752483  1883A     13.758529  1884A     13.775884  
    1885A     13.789484  1886A     13.796530  1887A     13.893495  
    1888A     13.894386  1889A     13.919598  1890A     13.977204  
    1891A     13.994833  1892A     14.000911  1893A     14.021568  
    1894A     14.093552  1895A     28.547499  1896A     28.613601  
    1897A     28.652673  1898A     28.713121  1899A     28.842381  
    1900A     28.845604  1901A     29.225494  1902A     29.299846  
    1903A     29.307437  1904A     29.309047  

    Final Occupation by Irrep:
              A 
    DOCC [    42 ]

  @DF-RHF Final Energy:  -392.82452394409086

   => Energetics <=

    Nuclear Repulsion Energy =            583.3513883253809809
    One-Electron Energy =               -1686.4317571183194104
    Two-Electron Energy =                 710.2558448488474596
    Total Energy =                       -392.8245239440908563

Computation Completed


Properties will be evaluated at   0.000000,   0.000000,   0.000000 [a0]

Properties computed using the SCF density matrix

  Nuclear Dipole Moment: [e a0]
     X:     0.0003      Y:    -0.0012      Z:    -0.0001

  Electronic Dipole Moment: [e a0]
     X:    -0.0003      Y:     0.0012      Z:     0.0001

  Dipole Moment: [e a0]
     X:    -0.0000      Y:    -0.0000      Z:    -0.0000     Total:     0.0000

  Dipole Moment: [D]
     X:    -0.0000      Y:    -0.0000      Z:    -0.0000     Total:     0.0000


*** tstop() called on genome.bme.utexas.edu at Sun Apr 12 01:36:56 2020
Module time:
	user time   =    9262.21 seconds =     154.37 minutes
	system time =     564.24 seconds =       9.40 minutes
	total time  =       1809 seconds =      30.15 minutes
Total time:
	user time   =   36980.26 seconds =     616.34 minutes
	system time =    3792.75 seconds =      63.21 minutes
	total time  =       8368 seconds =     139.47 minutes

*** tstart() called on genome.bme.utexas.edu
*** at Sun Apr 12 01:36:56 2020


  //>>>>>>>>>>>>>>>>>>>>>>>>>>>>>>>>>>>//
  //               DFMP2               //
  //<<<<<<<<<<<<<<<<<<<<<<<<<<<<<<<<<<<//

   => Loading Basis Set <=

    Name: (AUG-CC-PVQZ AUX)
    Role: RIFIT
    Keyword: DF_BASIS_MP2
    atoms 1, 5, 8, 11, 14, 18, 22, 25, 28, 31                             entry C          line   184 file /home/liuchw/anaconda3/envs/psi4env/share/psi4/basis/aug-cc-pvqz-ri.gbs 
    atoms 2-4, 6-7, 9-10, 12-13, 15-17, 19-21, 23-24, 26-27, 29-30, 32-34 entry H          line    30 file /home/liuchw/anaconda3/envs/psi4env/share/psi4/basis/aug-cc-pvqz-ri.gbs 

	 --------------------------------------------------------
	                          DF-MP2                         
	      2nd-Order Density-Fitted Moller-Plesset Theory     
	              RMP2 Wavefunction,   8 Threads             
	                                                         
	        Rob Parrish, Justin Turney, Andy Simmonett,      
	           Ed Hohenstein, and C. David Sherrill          
	 --------------------------------------------------------

   => Auxiliary Basis Set <=

  Basis Set: (AUG-CC-PVQZ AUX)
    Blend: AUG-CC-PVQZ-RI
    Number of shells: 840
    Number of basis function: 3600
    Number of Cartesian functions: 4890
    Spherical Harmonics?: true
    Max angular momentum: 5

	 --------------------------------------------------------
	                 NBF =  1904, NAUX =  3600
	 --------------------------------------------------------
	   CLASS    FOCC     OCC    AOCC    AVIR     VIR    FVIR
	   PAIRS       0      42      42    1862    1862       0
	 --------------------------------------------------------

	-----------------------------------------------------------
	 ==================> DF-MP2 Energies <==================== 
	-----------------------------------------------------------
	 Reference Energy          =    -392.8245239440908563 [Eh]
	 Singles Energy            =      -0.0000000000000000 [Eh]
	 Same-Spin Energy          =      -0.4463265954433461 [Eh]
	 Opposite-Spin Energy      =      -1.7660017767548379 [Eh]
	 Correlation Energy        =      -2.2123283721981841 [Eh]
	 Total Energy              =    -395.0368523162890142 [Eh]
	-----------------------------------------------------------
	 ================> DF-SCS-MP2 Energies <================== 
	-----------------------------------------------------------
	 SCS Same-Spin Scale       =       0.3333333333333333 [-]
	 SCS Opposite-Spin Scale   =       1.2000000000000000 [-]
	 SCS Same-Spin Energy      =      -0.1487755318144487 [Eh]
	 SCS Opposite-Spin Energy  =      -2.1192021321058054 [Eh]
	 SCS Correlation Energy    =      -2.2679776639202540 [Eh]
	 SCS Total Energy          =    -395.0925016080111050 [Eh]
	-----------------------------------------------------------


*** tstop() called on genome.bme.utexas.edu at Sun Apr 12 01:45:40 2020
Module time:
	user time   =    3395.11 seconds =      56.59 minutes
	system time =      37.00 seconds =       0.62 minutes
	total time  =        524 seconds =       8.73 minutes
Total time:
	user time   =   40375.37 seconds =     672.92 minutes
	system time =    3829.75 seconds =      63.83 minutes
	total time  =       8892 seconds =     148.20 minutes

  //>>>>>>>>>>>>>>>>>>>>>>>>>>>>>>>>>>>//
  //  CBS Results: mp2/aug-cc-pv[tq]z  //
  //<<<<<<<<<<<<<<<<<<<<<<<<<<<<<<<<<<<//


   ==> HF <==

   HI-zeta (4) Energy:               -392.824523944091


   ==> Helgaker 2-point correlated extrapolation for method: MP2 <==

   LO-zeta (3) Energy:               -394.822323402055
   HI-zeta (4) Energy:               -395.036852316289
   Alpha (exponent) Value:             3.000000000000
   Extrapolated Energy:              -395.193400442892

   @Extrapolated MP2/(T,Q):          -395.193400442892



   ==> Helgaker 2-point correlated extrapolation for method: HF <==

   LO-zeta (3) Energy:               -392.800966848583
   HI-zeta (4) Energy:               -392.824523944091
   Alpha (exponent) Value:             3.000000000000
   Extrapolated Energy:              -392.841714257029

   @Extrapolated HF/(T,Q):           -392.841714257029


   ==> Components <==

  ---------------------------------------------------------------------------------------------------------
                          Method / Basis                      Rqd      Energy [Eh]   Variable
  ---------------------------------------------------------------------------------------------------------
                              hf / aug-cc-pvtz                  *    -392.80096685   HF TOTAL ENERGY
                             mp2 / aug-cc-pvtz                  *    -394.82232340   MP2 TOTAL ENERGY
                              hf / aug-cc-pvqz                  *    -392.82452394   HF TOTAL ENERGY
                             mp2 / aug-cc-pvqz                  *    -395.03685232   MP2 TOTAL ENERGY
  ---------------------------------------------------------------------------------------------------------

   ==> Stages <==

  ---------------------------------------------------------------------------------------------------------
      Stage               Method / Basis                       Wt      Energy [Eh]   Scheme
  ---------------------------------------------------------------------------------------------------------
        scf                   hf / aug-cc-pvqz                  1    -392.82452394   xtpl_highest_1
       corl                  mp2 / aug-cc-pv[tq]z               1    -395.19340044   corl_xtpl_helgaker_2
       corl                   hf / aug-cc-pv[tq]z              -1    -392.84171426   corl_xtpl_helgaker_2
  ---------------------------------------------------------------------------------------------------------

   ==> CBS <==

  ---------------------------------------------------------------------------------------------------------
      Stage               Method / Basis                               Energy [Eh]   Scheme
  ---------------------------------------------------------------------------------------------------------
        scf                   hf / aug-cc-pvqz                       -392.82452394   xtpl_highest_1
       corl                  mp2 / aug-cc-pv[tq]z                      -2.35168619   corl_xtpl_helgaker_2
      total                  CBS                                     -395.17621013   
  ---------------------------------------------------------------------------------------------------------
   => Loading Basis Set <=

    Name: DEF2-SVP
    Role: ORBITAL
    Keyword: BASIS
    atoms 1, 5, 8, 11, 14, 18, 22, 25, 28, 31                             entry C          line    90 file /home/liuchw/anaconda3/envs/psi4env/share/psi4/basis/def2-svp.gbs 
    atoms 2-4, 6-7, 9-10, 12-13, 15-17, 19-21, 23-24, 26-27, 29-30, 32-34 entry H          line    15 file /home/liuchw/anaconda3/envs/psi4env/share/psi4/basis/def2-svp.gbs 


       N-Body: Complex Energy (fragments = (1, 2), basis = (1, 2):  -395.17621012995392)

   ==> N-Body: Counterpoise Corrected (CP) energies <==

   n-Body     Total Energy [Eh]       I.E. [kcal/mol]      Delta [kcal/mol]
        1     -395.170420973461        0.000000000000        0.000000000000
        2     -395.176680081359       -3.927649503188       -3.927649503188

   => Loading Basis Set <=

    Name: DEF2-SVP
    Role: ORBITAL
    Keyword: BASIS
    atoms 1, 5, 8, 11, 14, 18, 22, 25, 28, 31                             entry C          line    90 file /home/liuchw/anaconda3/envs/psi4env/share/psi4/basis/def2-svp.gbs 
    atoms 2-4, 6-7, 9-10, 12-13, 15-17, 19-21, 23-24, 26-27, 29-30, 32-34 entry H          line    15 file /home/liuchw/anaconda3/envs/psi4env/share/psi4/basis/def2-svp.gbs 


    Psi4 stopped on: Sunday, 12 April 2020 01:45AM
    Psi4 wall time for execution: 2:28:24.97

*** Psi4 exiting successfully. Buy a developer a beer!
