
    -----------------------------------------------------------------------
          Psi4: An Open-Source Ab Initio Electronic Structure Package
                               Psi4 1.4a2.dev224 

                         Git: Rev {master} e453b16 


    R. M. Parrish, L. A. Burns, D. G. A. Smith, A. C. Simmonett,
    A. E. DePrince III, E. G. Hohenstein, U. Bozkaya, A. Yu. Sokolov,
    R. Di Remigio, R. M. Richard, J. F. Gonthier, A. M. James,
    H. R. McAlexander, A. Kumar, M. Saitow, X. Wang, B. P. Pritchard,
    P. Verma, H. F. Schaefer III, K. Patkowski, R. A. King, E. F. Valeev,
    F. A. Evangelista, J. M. Turney, T. D. Crawford, and C. D. Sherrill,
    J. Chem. Theory Comput. 13(7) pp 3185--3197 (2017).
    (doi: 10.1021/acs.jctc.7b00174)


                         Additional Contributions by
    P. Kraus, H. Kruse, M. H. Lechner, M. C. Schieber, R. A. Shaw,
    A. Alenaizan, R. Galvelis, Z. L. Glick, S. Lehtola, and J. P. Misiewicz

    -----------------------------------------------------------------------


    Psi4 started on: Saturday, 11 April 2020 11:44PM

    Process ID: 90766
    Host:       node43.bme.utexas.edu
    PSIDATADIR: /home/liuchw/anaconda3/envs/psi4env/share/psi4
    Memory:     500.0 MiB
    Threads:    8
    
  ==> Input File <==

--------------------------------------------------------------------------
#Generated by lconvert.py for cbs job

memory 40 GB

molecule  {
0 1
  C       -2.5303830    -0.4175750     0.6813060
  H       -2.5598860    -0.9827900    -0.2501560
  H       -2.5540360    -1.1338650     1.5026580
  H       -3.4362140     0.1841440     0.7367710
  C       -1.2761570     0.4436350     0.7500250
  H       -1.2780840     1.0252180     1.6750850
  H       -1.2803390     1.1685560    -0.0671580
  C        0.0022050    -0.3807160     0.6789930
  H        0.0078290    -1.1114130     1.4938310
  H        0.0062490    -0.9605230    -0.2488200
  C        1.2683330     0.4623960     0.7493690
  H        1.2620200     1.0442500     1.6742460
  H        1.2616350     1.1870570    -0.0680350
  C        2.5349660    -0.3804250     0.6806860
  H        2.5724400    -0.9457170    -0.2504520
  H        3.4319810     0.2344150     0.7355780
  H        2.5692080    -1.0958100     1.5024560
--
0 1
  C       -0.0005090     0.0599790     5.1008430
  C        0.0005630    -0.0801520     6.6205760
  H       -0.8864730     0.3839240     7.0539450
  H        0.0098140    -1.1309320     6.9135860
  H        0.8792230     0.3995120     7.0542190
  C       -1.2399640    -0.6216730     4.5269450
  H       -1.2632640    -0.5327160     3.4401150
  H       -1.2520500    -1.6829490     4.7799580
  H       -2.1509080    -0.1693820     4.9220300
  C        1.2520960    -0.5975620     4.5273730
  H        1.2734230    -0.5092760     3.4404020
  H        1.2852270    -1.6581230     4.7814650
  H        2.1539080    -0.1269190     4.9217940
  C       -0.0147570     1.5397710     4.7262220
  H        0.8630090     2.0503580     5.1251770
  H       -0.0152810     1.6662260     3.6425700
  H       -0.9028630     2.0331050     5.1240100
units angstrom
no_reorient
symmetry c1
}

set {
scf_type DF
mp2_type DF
e_convergence 7
reference rhf
}

energy('mp2/aug-cc-pv[tq]z', bsse_type='cp')
--------------------------------------------------------------------------

  Memory set to  37.253 GiB by Python driver.

Scratch directory: /scratch//


   ===> N-Body Interaction Abacus <===
        BSSE Treatment:                     cp
        Number of 1-body computations:     4
        Number of 2-body computations:     1

   ==> N-Body: Now computing 1-body complexes <==


       N-Body: Computing complex (1/4) with fragments (2,) in the basis of fragments (2,).


Scratch directory: /scratch//

  //>>>>>>>>>>>>>>>>>>>>>>>>>>>>>>>>>>>//
  //   CBS Setup: mp2/aug-cc-pv[tq]z   //
  //<<<<<<<<<<<<<<<<<<<<<<<<<<<<<<<<<<<//

    Naive listing of computations required.
             hf / aug-cc-pvqz              for  HF TOTAL ENERGY
            mp2 / aug-cc-pvtz              for  MP2 TOTAL ENERGY
            mp2 / aug-cc-pvqz              for  MP2 TOTAL ENERGY
             hf / aug-cc-pvtz              for  HF TOTAL ENERGY
             hf / aug-cc-pvqz              for  HF TOTAL ENERGY

    Enlightened listing of computations required.
            mp2 / aug-cc-pvtz              for  MP2 TOTAL ENERGY
            mp2 / aug-cc-pvqz              for  MP2 TOTAL ENERGY

    Full listing of computations to be obtained (required and bonus).
             hf / aug-cc-pvtz              for  HF TOTAL ENERGY
            mp2 / aug-cc-pvtz              for  MP2 TOTAL ENERGY
             hf / aug-cc-pvqz              for  HF TOTAL ENERGY
            mp2 / aug-cc-pvqz              for  MP2 TOTAL ENERGY

  //>>>>>>>>>>>>>>>>>>>>>>>>>>>>>>>>>>>>//
  // CBS Computation: MP2 / AUG-CC-PVTZ //
  //<<<<<<<<<<<<<<<<<<<<<<<<<<<<<<<<<<<<//


Scratch directory: /scratch//

*** tstart() called on node43.bme.utexas.edu
*** at Sat Apr 11 23:44:22 2020

   => Loading Basis Set <=

    Name: AUG-CC-PVTZ
    Role: ORBITAL
    Keyword: BASIS
    atoms 1-2, 6, 10, 14         entry C          line   239 file /home/liuchw/anaconda3/envs/psi4env/share/psi4/basis/aug-cc-pvtz.gbs 
    atoms 3-5, 7-9, 11-13, 15-17 entry H          line    40 file /home/liuchw/anaconda3/envs/psi4env/share/psi4/basis/aug-cc-pvtz.gbs 


         ---------------------------------------------------------
                                   SCF
               by Justin Turney, Rob Parrish, Andy Simmonett
                          and Daniel G. A. Smith
                              RHF Reference
                        8 Threads,  38146 MiB Core
         ---------------------------------------------------------

  ==> Geometry <==

    Molecular point group: c1
    Full point group: C1

    Geometry (in Angstrom), charge = 0, multiplicity = 1:

       Center              X                  Y                   Z               Mass       
    ------------   -----------------  -----------------  -----------------  -----------------
         C           -0.000184819624     0.062314198129     2.197072868095    12.000000000000
         C            0.000887180376    -0.077816801871     3.716805868095    12.000000000000
         H           -0.886148819624     0.386259198129     4.150174868095     1.007825032230
         H            0.010138180376    -1.128596801871     4.009815868095     1.007825032230
         H            0.879547180376     0.401847198129     4.150448868095     1.007825032230
         C           -1.239639819624    -0.619337801871     1.623174868095    12.000000000000
         H           -1.262939819624    -0.530380801871     0.536344868095     1.007825032230
         H           -1.251725819624    -1.680613801871     1.876187868095     1.007825032230
         H           -2.150583819624    -0.167046801871     2.018259868095     1.007825032230
         C            1.252420180376    -0.595226801871     1.623602868095    12.000000000000
         H            1.273747180376    -0.506940801871     0.536631868095     1.007825032230
         H            1.285551180376    -1.655787801871     1.877694868095     1.007825032230
         H            2.154232180376    -0.124583801871     2.018023868095     1.007825032230
         C           -0.014432819624     1.542106198129     1.822451868095    12.000000000000
         H            0.863333180376     2.052693198129     2.221406868095     1.007825032230
         H           -0.014956819624     1.668561198129     0.738799868095     1.007825032230
         H           -0.902538819624     2.035440198129     2.220239868095     1.007825032230

  Running in c1 symmetry.

  Rotational constants: A =      0.14987  B =      0.03660  C =      0.03660 [cm^-1]
  Rotational constants: A =   4492.88127  B =   1097.14908  C =   1097.11333 [MHz]
  Nuclear repulsion =  199.368981835625988

  Charge       = 0
  Multiplicity = 1
  Electrons    = 42
  Nalpha       = 21
  Nbeta        = 21

  ==> Algorithm <==

  SCF Algorithm Type is DF.
  DIIS enabled.
  MOM disabled.
  Fractional occupation disabled.
  Guess Type is SAD.
  Energy threshold   = 1.00e-07
  Density threshold  = 1.00e-08
  Integral threshold = 0.00e+00

  ==> Primary Basis <==

  Basis Set: AUG-CC-PVTZ
    Blend: AUG-CC-PVTZ
    Number of shells: 178
    Number of basis function: 506
    Number of Cartesian functions: 575
    Spherical Harmonics?: true
    Max angular momentum: 3

   => Loading Basis Set <=

    Name: (AUG-CC-PVTZ AUX)
    Role: JKFIT
    Keyword: DF_BASIS_SCF
    atoms 1-2, 6, 10, 14         entry C          line   162 file /home/liuchw/anaconda3/envs/psi4env/share/psi4/basis/aug-cc-pvtz-jkfit.gbs 
    atoms 3-5, 7-9, 11-13, 15-17 entry H          line    70 file /home/liuchw/anaconda3/envs/psi4env/share/psi4/basis/aug-cc-pvtz-jkfit.gbs 

  ==> Pre-Iterations <==

   -------------------------------------------------------
    Irrep   Nso     Nmo     Nalpha   Nbeta   Ndocc  Nsocc
   -------------------------------------------------------
     A        506     506       0       0       0       0
   -------------------------------------------------------
    Total     506     506      21      21      21       0
   -------------------------------------------------------

  ==> Integral Setup <==

  DFHelper Memory: AOs need 2.105 GiB; user supplied 27.940 GiB. Using in-core AOs.

  ==> MemDFJK: Density-Fitted J/K Matrices <==

    J tasked:                   Yes
    K tasked:                   Yes
    wK tasked:                   No
    OpenMP threads:               8
    Memory [MiB]:             28610
    Algorithm:                 Core
    Schwarz Cutoff:           1E-12
    Mask sparsity (%):       0.7671
    Fitting Condition:        1E-10

   => Auxiliary Basis Set <=

  Basis Set: (AUG-CC-PVTZ AUX)
    Blend: AUG-CC-PVTZ-JKFIT
    Number of shells: 318
    Number of basis function: 1072
    Number of Cartesian functions: 1315
    Spherical Harmonics?: true
    Max angular momentum: 4

  Minimum eigenvalue in the overlap matrix is 2.7890970660E-06.
  Using Symmetric Orthogonalization.

  SCF Guess: Superposition of Atomic Densities via on-the-fly atomic UHF.

  ==> Iterations <==

                           Total Energy        Delta E     RMS |[F,P]|

   @DF-RHF iter SAD:  -196.10280747878079   -1.96103e+02   0.00000e+00 
   @DF-RHF iter   1:  -196.10503300079228   -2.22552e-03   1.37213e-03 DIIS
   @DF-RHF iter   2:  -196.33644286978381   -2.31410e-01   6.96318e-04 DIIS
   @DF-RHF iter   3:  -196.40076830816122   -6.43254e-02   1.28666e-04 DIIS
   @DF-RHF iter   4:  -196.40424014380088   -3.47184e-03   4.17522e-05 DIIS
   @DF-RHF iter   5:  -196.40454005927580   -2.99915e-04   5.65134e-06 DIIS
   @DF-RHF iter   6:  -196.40454811413781   -8.05486e-06   6.38979e-07 DIIS
   @DF-RHF iter   7:  -196.40454825728378   -1.43146e-07   1.19498e-07 DIIS
   @DF-RHF iter   8:  -196.40454826164890   -4.36512e-09   1.59390e-08 DIIS
   @DF-RHF iter   9:  -196.40454826171089   -6.19877e-11   1.87515e-09 DIIS
  Energy and wave function converged.


  ==> Post-Iterations <==

    Orbital Energies [Eh]
    ---------------------

    Doubly Occupied:                                                      

       1A    -11.226803     2A    -11.205594     3A    -11.205584  
       4A    -11.205570     5A    -11.205535     6A     -1.106557  
       7A     -0.928823     8A     -0.928688     9A     -0.928683  
      10A     -0.729926    11A     -0.611861    12A     -0.611793  
      13A     -0.611763    14A     -0.552881    15A     -0.552846  
      16A     -0.509274    17A     -0.509229    18A     -0.509194  
      19A     -0.452521    20A     -0.452395    21A     -0.452387  

    Virtual:                                                              

      22A      0.030188    23A      0.038395    24A      0.038397  
      25A      0.038399    26A      0.059240    27A      0.059243  
      28A      0.059278    29A      0.059284    30A      0.059284  
      31A      0.079634    32A      0.079647    33A      0.079650  
      34A      0.105673    35A      0.121203    36A      0.121216  
      37A      0.121227    38A      0.136761    39A      0.137187  
      40A      0.137188    41A      0.137195    42A      0.157912  
      43A      0.157920    44A      0.163596    45A      0.163627  
      46A      0.163659    47A      0.185433    48A      0.185436  
      49A      0.185460    50A      0.190955    51A      0.190990  
      52A      0.191002    53A      0.211534    54A      0.256697  
      55A      0.256733    56A      0.273053    57A      0.273083  
      58A      0.273092    59A      0.279883    60A      0.279884  
      61A      0.279927    62A      0.325705    63A      0.325714  
      64A      0.325737    65A      0.329988    66A      0.351435  
      67A      0.351456    68A      0.356975    69A      0.357000  
      70A      0.357047    71A      0.383657    72A      0.385000  
      73A      0.385003    74A      0.385015    75A      0.388572  
      76A      0.388667    77A      0.388678    78A      0.397504  
      79A      0.397521    80A      0.397526    81A      0.403848  
      82A      0.403888    83A      0.421023    84A      0.421030  
      85A      0.421103    86A      0.427740    87A      0.435476  
      88A      0.435539    89A      0.450492    90A      0.450563  
      91A      0.450572    92A      0.501998    93A      0.502087  
      94A      0.502115    95A      0.510349    96A      0.510355  
      97A      0.510496    98A      0.511718    99A      0.514225  
     100A      0.514238   101A      0.514286   102A      0.518090  
     103A      0.521323   104A      0.521327   105A      0.521453  
     106A      0.556358   107A      0.556412   108A      0.556421  
     109A      0.575294   110A      0.575309   111A      0.600281  
     112A      0.600321   113A      0.600382   114A      0.604690  
     115A      0.641095   116A      0.641101   117A      0.641112  
     118A      0.652263   119A      0.652294   120A      0.652346  
     121A      0.654036   122A      0.654039   123A      0.654147  
     124A      0.661930   125A      0.662019   126A      0.726710  
     127A      0.726738   128A      0.754769   129A      0.754849  
     130A      0.755067   131A      0.794613   132A      0.794641  
     133A      0.794719   134A      0.810176   135A      0.810193  
     136A      0.810276   137A      0.837146   138A      0.837235  
     139A      0.837262   140A      0.839830   141A      0.839947  
     142A      0.846700   143A      0.867284   144A      0.888662  
     145A      0.888681   146A      0.888720   147A      0.894638  
     148A      0.894886   149A      0.894923   150A      0.902529  
     151A      0.902576   152A      0.924651   153A      0.953362  
     154A      0.953374   155A      0.953425   156A      0.994348  
     157A      1.007371   158A      1.007388   159A      1.007559  
     160A      1.012850   161A      1.018850   162A      1.018880  
     163A      1.018991   164A      1.021238   165A      1.021335  
     166A      1.021417   167A      1.043606   168A      1.043732  
     169A      1.043767   170A      1.074007   171A      1.074080  
     172A      1.074085   173A      1.085071   174A      1.085133  
     175A      1.160841   176A      1.160853   177A      1.160869  
     178A      1.181492   179A      1.181699   180A      1.181720  
     181A      1.213514   182A      1.213810   183A      1.215832  
     184A      1.215839   185A      1.216058   186A      1.228999  
     187A      1.229069   188A      1.229155   189A      1.238620  
     190A      1.238705   191A      1.255376   192A      1.279128  
     193A      1.279283   194A      1.279383   195A      1.289274  
     196A      1.289310   197A      1.289339   198A      1.394106  
     199A      1.394144   200A      1.394221   201A      1.396118  
     202A      1.396305   203A      1.409454   204A      1.409493  
     205A      1.409547   206A      1.422620   207A      1.422697  
     208A      1.422894   209A      1.455219   210A      1.455260  
     211A      1.506531   212A      1.506601   213A      1.506615  
     214A      1.516128   215A      1.535376   216A      1.544946  
     217A      1.544955   218A      1.545227   219A      1.554775  
     220A      1.554896   221A      1.577755   222A      1.577895  
     223A      1.578012   224A      1.611064   225A      1.611183  
     226A      1.611232   227A      1.624243   228A      1.664106  
     229A      1.664184   230A      1.664425   231A      1.666719  
     232A      1.681741   233A      1.681779   234A      1.682045  
     235A      1.702222   236A      1.702384   237A      1.702479  
     238A      1.744090   239A      1.744095   240A      1.777636  
     241A      1.777644   242A      1.777727   243A      1.781707  
     244A      1.789855   245A      1.789900   246A      1.789924  
     247A      1.800968   248A      1.832193   249A      1.832344  
     250A      1.832476   251A      1.836867   252A      1.837014  
     253A      1.880791   254A      1.881002   255A      1.881028  
     256A      1.926664   257A      1.926721   258A      1.926953  
     259A      1.931415   260A      1.931560   261A      1.931593  
     262A      1.983253   263A      2.008031   264A      2.008186  
     265A      2.073730   266A      2.073750   267A      2.074325  
     268A      2.099643   269A      2.100022   270A      2.100101  
     271A      2.100692   272A      2.100893   273A      2.100924  
     274A      2.112546   275A      2.112787   276A      2.172019  
     277A      2.176504   278A      2.176538   279A      2.176629  
     280A      2.220577   281A      2.220710   282A      2.220880  
     283A      2.241584   284A      2.241754   285A      2.241852  
     286A      2.265061   287A      2.265117   288A      2.265284  
     289A      2.295307   290A      2.295370   291A      2.346167  
     292A      2.346270   293A      2.346385   294A      2.379817  
     295A      2.380014   296A      2.452843   297A      2.452881  
     298A      2.453167   299A      2.483524   300A      2.483956  
     301A      2.484105   302A      2.498080   303A      2.498083  
     304A      2.498296   305A      2.555174   306A      2.555282  
     307A      2.578352   308A      2.578399   309A      2.578498  
     310A      2.745659   311A      2.753115   312A      2.753264  
     313A      2.753411   314A      2.756307   315A      3.015937  
     316A      3.016002   317A      3.016092   318A      3.124513  
     319A      3.294025   320A      3.294053   321A      3.294543  
     322A      3.397194   323A      3.397407   324A      3.485390  
     325A      3.515005   326A      3.515063   327A      3.515359  
     328A      3.531355   329A      3.531571   330A      3.531640  
     331A      3.561770   332A      3.561844   333A      3.562042  
     334A      3.623514   335A      3.639495   336A      3.639617  
     337A      3.639787   338A      3.760055   339A      3.760149  
     340A      3.760773   341A      3.798408   342A      3.798415  
     343A      3.798453   344A      3.803774   345A      3.803860  
     346A      3.823861   347A      3.833589   348A      3.833914  
     349A      3.849089   350A      3.849182   351A      3.849325  
     352A      3.861825   353A      3.862196   354A      3.862272  
     355A      3.866410   356A      3.924564   357A      3.924566  
     358A      3.924677   359A      3.944453   360A      3.944499  
     361A      3.945141   362A      4.002525   363A      4.002564  
     364A      4.044726   365A      4.044740   366A      4.044767  
     367A      4.074181   368A      4.074674   369A      4.074682  
     370A      4.089940   371A      4.089963   372A      4.090850  
     373A      4.135134   374A      4.135356   375A      4.135428  
     376A      4.174848   377A      4.175032   378A      4.218188  
     379A      4.218248   380A      4.218564   381A      4.251527  
     382A      4.282540   383A      4.282563   384A      4.288284  
     385A      4.288362   386A      4.288430   387A      4.303061  
     388A      4.303078   389A      4.303144   390A      4.314619  
     391A      4.314653   392A      4.369267   393A      4.369507  
     394A      4.369527   395A      4.509223   396A      4.512823  
     397A      4.524782   398A      4.524883   399A      4.525760  
     400A      4.531453   401A      4.531529   402A      4.531547  
     403A      4.569836   404A      4.569948   405A      4.657471  
     406A      4.657765   407A      4.658031   408A      4.693377  
     409A      4.694689   410A      4.694853   411A      4.694971  
     412A      4.830084   413A      4.830086   414A      4.830364  
     415A      4.836690   416A      4.836782   417A      4.836819  
     418A      4.909462   419A      4.909673   420A      4.913079  
     421A      4.913563   422A      4.913622   423A      4.944526  
     424A      4.944779   425A      4.944845   426A      4.990462  
     427A      4.990504   428A      5.012636   429A      5.012726  
     430A      5.013098   431A      5.074138   432A      5.113684  
     433A      5.114066   434A      5.114374   435A      5.182235  
     436A      5.182793   437A      5.182825   438A      5.230815  
     439A      5.295512   440A      5.295859   441A      5.304220  
     442A      5.304575   443A      5.304700   444A      5.364931  
     445A      5.365039   446A      5.365845   447A      5.374814  
     448A      5.374871   449A      5.375204   450A      5.455581  
     451A      5.455872   452A      5.456020   453A      5.462690  
     454A      5.462845   455A      5.533777   456A      5.534040  
     457A      5.534108   458A      5.543197   459A      5.543305  
     460A      5.543378   461A      5.588039   462A      5.589021  
     463A      5.703978   464A      5.704308   465A      5.704783  
     466A      5.785528   467A      5.786259   468A      5.786494  
     469A      5.797125   470A      5.844760   471A      5.845049  
     472A      5.898803   473A      5.898954   474A      5.899292  
     475A      5.955201   476A      5.955461   477A      5.955906  
     478A      6.099438   479A      6.099810   480A      6.099978  
     481A      6.141400   482A      6.166121   483A      6.166499  
     484A      6.224040   485A      6.224268   486A      6.224419  
     487A      6.400482   488A      6.400655   489A      6.400740  
     490A      6.403771   491A      6.404119   492A      6.404411  
     493A      6.444121   494A      6.838832   495A      6.839222  
     496A      6.963448   497A      6.963733   498A      6.963840  
     499A      7.021516   500A      7.021850   501A      7.021908  
     502A     17.580252   503A     18.669231   504A     18.669897  
     505A     18.672651   506A     20.312251  

    Final Occupation by Irrep:
              A 
    DOCC [    21 ]

  @DF-RHF Final Energy:  -196.40454826171089

   => Energetics <=

    Nuclear Repulsion Energy =            199.3689818356259877
    One-Electron Energy =                -658.5512461229442351
    Two-Electron Energy =                 262.7777160256073898
    Total Energy =                       -196.4045482617108860

Computation Completed


Properties will be evaluated at   0.000000,   0.000000,   0.000000 [a0]

Properties computed using the SCF density matrix

  Nuclear Dipole Moment: [e a0]
     X:    -0.0152      Y:     4.9569      Z:   174.3323

  Electronic Dipole Moment: [e a0]
     X:     0.0152      Y:    -4.9567      Z:  -174.3325

  Dipole Moment: [e a0]
     X:    -0.0000      Y:     0.0002      Z:    -0.0002     Total:     0.0003

  Dipole Moment: [D]
     X:    -0.0000      Y:     0.0004      Z:    -0.0006     Total:     0.0008


*** tstop() called on node43.bme.utexas.edu at Sat Apr 11 23:44:32 2020
Module time:
	user time   =      67.79 seconds =       1.13 minutes
	system time =       2.12 seconds =       0.04 minutes
	total time  =         10 seconds =       0.17 minutes
Total time:
	user time   =      67.79 seconds =       1.13 minutes
	system time =       2.12 seconds =       0.04 minutes
	total time  =         10 seconds =       0.17 minutes

*** tstart() called on node43.bme.utexas.edu
*** at Sat Apr 11 23:44:32 2020


  //>>>>>>>>>>>>>>>>>>>>>>>>>>>>>>>>>>>//
  //               DFMP2               //
  //<<<<<<<<<<<<<<<<<<<<<<<<<<<<<<<<<<<//

   => Loading Basis Set <=

    Name: (AUG-CC-PVTZ AUX)
    Role: RIFIT
    Keyword: DF_BASIS_MP2
    atoms 1-2, 6, 10, 14         entry C          line   148 file /home/liuchw/anaconda3/envs/psi4env/share/psi4/basis/aug-cc-pvtz-ri.gbs 
    atoms 3-5, 7-9, 11-13, 15-17 entry H          line    30 file /home/liuchw/anaconda3/envs/psi4env/share/psi4/basis/aug-cc-pvtz-ri.gbs 

	 --------------------------------------------------------
	                          DF-MP2                         
	      2nd-Order Density-Fitted Moller-Plesset Theory     
	              RMP2 Wavefunction,   8 Threads             
	                                                         
	        Rob Parrish, Justin Turney, Andy Simmonett,      
	           Ed Hohenstein, and C. David Sherrill          
	 --------------------------------------------------------

   => Auxiliary Basis Set <=

  Basis Set: (AUG-CC-PVTZ AUX)
    Blend: AUG-CC-PVTZ-RI
    Number of shells: 308
    Number of basis function: 1082
    Number of Cartesian functions: 1340
    Spherical Harmonics?: true
    Max angular momentum: 4

	 --------------------------------------------------------
	                 NBF =   506, NAUX =  1082
	 --------------------------------------------------------
	   CLASS    FOCC     OCC    AOCC    AVIR     VIR    FVIR
	   PAIRS       0      21      21     485     485       0
	 --------------------------------------------------------

	-----------------------------------------------------------
	 ==================> DF-MP2 Energies <==================== 
	-----------------------------------------------------------
	 Reference Energy          =    -196.4045482617108860 [Eh]
	 Singles Energy            =      -0.0000000000000000 [Eh]
	 Same-Spin Energy          =      -0.2117454939281234 [Eh]
	 Opposite-Spin Energy      =      -0.7978323169634416 [Eh]
	 Correlation Energy        =      -1.0095778108915650 [Eh]
	 Total Energy              =    -197.4141260726024427 [Eh]
	-----------------------------------------------------------
	 ================> DF-SCS-MP2 Energies <================== 
	-----------------------------------------------------------
	 SCS Same-Spin Scale       =       0.3333333333333333 [-]
	 SCS Opposite-Spin Scale   =       1.2000000000000000 [-]
	 SCS Same-Spin Energy      =      -0.0705818313093745 [Eh]
	 SCS Opposite-Spin Energy  =      -0.9573987803561299 [Eh]
	 SCS Correlation Energy    =      -1.0279806116655044 [Eh]
	 SCS Total Energy          =    -197.4325288733763841 [Eh]
	-----------------------------------------------------------


*** tstop() called on node43.bme.utexas.edu at Sat Apr 11 23:44:38 2020
Module time:
	user time   =      36.77 seconds =       0.61 minutes
	system time =       1.25 seconds =       0.02 minutes
	total time  =          6 seconds =       0.10 minutes
Total time:
	user time   =     104.57 seconds =       1.74 minutes
	system time =       3.37 seconds =       0.06 minutes
	total time  =         16 seconds =       0.27 minutes

  //>>>>>>>>>>>>>>>>>>>>>>>>>>>>>>>>>>>>//
  // CBS Computation: MP2 / AUG-CC-PVQZ //
  //<<<<<<<<<<<<<<<<<<<<<<<<<<<<<<<<<<<<//


Scratch directory: /scratch//

*** tstart() called on node43.bme.utexas.edu
*** at Sat Apr 11 23:44:38 2020

   => Loading Basis Set <=

    Name: AUG-CC-PVQZ
    Role: ORBITAL
    Keyword: BASIS
    atoms 1-2, 6, 10, 14         entry C          line   303 file /home/liuchw/anaconda3/envs/psi4env/share/psi4/basis/aug-cc-pvqz.gbs 
    atoms 3-5, 7-9, 11-13, 15-17 entry H          line    40 file /home/liuchw/anaconda3/envs/psi4env/share/psi4/basis/aug-cc-pvqz.gbs 


         ---------------------------------------------------------
                                   SCF
               by Justin Turney, Rob Parrish, Andy Simmonett
                          and Daniel G. A. Smith
                              RHF Reference
                        8 Threads,  38146 MiB Core
         ---------------------------------------------------------

  ==> Geometry <==

    Molecular point group: c1
    Full point group: C1

    Geometry (in Angstrom), charge = 0, multiplicity = 1:

       Center              X                  Y                   Z               Mass       
    ------------   -----------------  -----------------  -----------------  -----------------
         C           -0.000184819624     0.062314198129     2.197072868095    12.000000000000
         C            0.000887180376    -0.077816801871     3.716805868095    12.000000000000
         H           -0.886148819624     0.386259198129     4.150174868095     1.007825032230
         H            0.010138180376    -1.128596801871     4.009815868095     1.007825032230
         H            0.879547180376     0.401847198129     4.150448868095     1.007825032230
         C           -1.239639819624    -0.619337801871     1.623174868095    12.000000000000
         H           -1.262939819624    -0.530380801871     0.536344868095     1.007825032230
         H           -1.251725819624    -1.680613801871     1.876187868095     1.007825032230
         H           -2.150583819624    -0.167046801871     2.018259868095     1.007825032230
         C            1.252420180376    -0.595226801871     1.623602868095    12.000000000000
         H            1.273747180376    -0.506940801871     0.536631868095     1.007825032230
         H            1.285551180376    -1.655787801871     1.877694868095     1.007825032230
         H            2.154232180376    -0.124583801871     2.018023868095     1.007825032230
         C           -0.014432819624     1.542106198129     1.822451868095    12.000000000000
         H            0.863333180376     2.052693198129     2.221406868095     1.007825032230
         H           -0.014956819624     1.668561198129     0.738799868095     1.007825032230
         H           -0.902538819624     2.035440198129     2.220239868095     1.007825032230

  Running in c1 symmetry.

  Rotational constants: A =      0.14987  B =      0.03660  C =      0.03660 [cm^-1]
  Rotational constants: A =   4492.88127  B =   1097.14908  C =   1097.11333 [MHz]
  Nuclear repulsion =  199.368981835625988

  Charge       = 0
  Multiplicity = 1
  Electrons    = 42
  Nalpha       = 21
  Nbeta        = 21

  ==> Algorithm <==

  SCF Algorithm Type is DF.
  DIIS enabled.
  MOM disabled.
  Fractional occupation disabled.
  Guess Type is SAD.
  Energy threshold   = 1.00e-07
  Density threshold  = 1.00e-08
  Integral threshold = 0.00e+00

  ==> Primary Basis <==

  Basis Set: AUG-CC-PVQZ
    Blend: AUG-CC-PVQZ
    Number of shells: 268
    Number of basis function: 952
    Number of Cartesian functions: 1185
    Spherical Harmonics?: true
    Max angular momentum: 4

   => Loading Basis Set <=

    Name: (AUG-CC-PVQZ AUX)
    Role: JKFIT
    Keyword: DF_BASIS_SCF
    atoms 1-2, 6, 10, 14         entry C          line   178 file /home/liuchw/anaconda3/envs/psi4env/share/psi4/basis/aug-cc-pvqz-jkfit.gbs 
    atoms 3-5, 7-9, 11-13, 15-17 entry H          line    70 file /home/liuchw/anaconda3/envs/psi4env/share/psi4/basis/aug-cc-pvqz-jkfit.gbs 

  ==> Pre-Iterations <==

   -------------------------------------------------------
    Irrep   Nso     Nmo     Nalpha   Nbeta   Ndocc  Nsocc
   -------------------------------------------------------
     A        952     952       0       0       0       0
   -------------------------------------------------------
    Total     952     952      21      21      21       0
   -------------------------------------------------------

  ==> Integral Setup <==

  DFHelper Memory: AOs need 10.935 GiB; user supplied 27.940 GiB. Using in-core AOs.

  ==> MemDFJK: Density-Fitted J/K Matrices <==

    J tasked:                   Yes
    K tasked:                   Yes
    wK tasked:                   No
    OpenMP threads:               8
    Memory [MiB]:             28610
    Algorithm:                 Core
    Schwarz Cutoff:           1E-12
    Mask sparsity (%):       2.8637
    Fitting Condition:        1E-10

   => Auxiliary Basis Set <=

  Basis Set: (AUG-CC-PVQZ AUX)
    Blend: AUG-CC-PVQZ-JKFIT
    Number of shells: 386
    Number of basis function: 1622
    Number of Cartesian functions: 2202
    Spherical Harmonics?: true
    Max angular momentum: 5

  Minimum eigenvalue in the overlap matrix is 6.5932254969E-07.
  Using Symmetric Orthogonalization.

  SCF Guess: Superposition of Atomic Densities via on-the-fly atomic UHF.

  ==> Iterations <==

                           Total Energy        Delta E     RMS |[F,P]|

   @DF-RHF iter SAD:  -196.11383839751281   -1.96114e+02   0.00000e+00 
   @DF-RHF iter   1:  -196.11652120620187   -2.68281e-03   7.30008e-04 DIIS
   @DF-RHF iter   2:  -196.34815274128417   -2.31632e-01   3.70990e-04 DIIS
   @DF-RHF iter   3:  -196.41258905532686   -6.44363e-02   6.88062e-05 DIIS
   @DF-RHF iter   4:  -196.41608374645011   -3.49469e-03   2.22984e-05 DIIS
   @DF-RHF iter   5:  -196.41638668180929   -3.02935e-04   3.05290e-06 DIIS
   @DF-RHF iter   6:  -196.41639490023732   -8.21843e-06   3.47589e-07 DIIS
   @DF-RHF iter   7:  -196.41639504909887   -1.48862e-07   6.48484e-08 DIIS
   @DF-RHF iter   8:  -196.41639505360362   -4.50476e-09   8.38261e-09 DIIS
  Energy and wave function converged.


  ==> Post-Iterations <==

    Orbital Energies [Eh]
    ---------------------

    Doubly Occupied:                                                      

       1A    -11.225627     2A    -11.204570     3A    -11.204560  
       4A    -11.204546     5A    -11.204511     6A     -1.106280  
       7A     -0.928696     8A     -0.928561     9A     -0.928557  
      10A     -0.729867    11A     -0.611995    12A     -0.611927  
      13A     -0.611897    14A     -0.553043    15A     -0.553008  
      16A     -0.509473    17A     -0.509428    18A     -0.509393  
      19A     -0.452644    20A     -0.452518    21A     -0.452510  

    Virtual:                                                              

      22A      0.026961    23A      0.033531    24A      0.033531  
      25A      0.033533    26A      0.053506    27A      0.053507  
      28A      0.053893    29A      0.053898    30A      0.053898  
      31A      0.072380    32A      0.072392    33A      0.072395  
      34A      0.093213    35A      0.106792    36A      0.106801  
      37A      0.106810    38A      0.116557    39A      0.116559  
      40A      0.116566    41A      0.119706    42A      0.137774  
      43A      0.137777    44A      0.143011    45A      0.143036  
      46A      0.143047    47A      0.160654    48A      0.160655  
      49A      0.160673    50A      0.166455    51A      0.166485  
      52A      0.166492    53A      0.186916    54A      0.224707  
      55A      0.224730    56A      0.232116    57A      0.232118  
      58A      0.232152    59A      0.239411    60A      0.239429  
      61A      0.239443    62A      0.269385    63A      0.269386  
      64A      0.269411    65A      0.270388    66A      0.297367  
      67A      0.297373    68A      0.305587    69A      0.305624  
      70A      0.305642    71A      0.319207    72A      0.319322  
      73A      0.319338    74A      0.321459    75A      0.323578  
      76A      0.323582    77A      0.323586    78A      0.327537  
      79A      0.327554    80A      0.338411    81A      0.338427  
      82A      0.338428    83A      0.350651    84A      0.353525  
      85A      0.353530    86A      0.353576    87A      0.366506  
      88A      0.366568    89A      0.366568    90A      0.379549  
      91A      0.379622    92A      0.418137    93A      0.418142  
      94A      0.418146    95A      0.425813    96A      0.428174  
      97A      0.428197    98A      0.428205    99A      0.431373  
     100A      0.436933   101A      0.436942   102A      0.437041  
     103A      0.445163   104A      0.445178   105A      0.445268  
     106A      0.457108   107A      0.457111   108A      0.462763  
     109A      0.462796   110A      0.462797   111A      0.490272  
     112A      0.490362   113A      0.490367   114A      0.502375  
     115A      0.502396   116A      0.502473   117A      0.514977  
     118A      0.524610   119A      0.524619   120A      0.524688  
     121A      0.530166   122A      0.530212   123A      0.549112  
     124A      0.549113   125A      0.549158   126A      0.560053  
     127A      0.560087   128A      0.564323   129A      0.564341  
     130A      0.564349   131A      0.618391   132A      0.618492  
     133A      0.618522   134A      0.635003   135A      0.635066  
     136A      0.635082   137A      0.651981   138A      0.651990  
     139A      0.678166   140A      0.682989   141A      0.683030  
     142A      0.683223   143A      0.690338   144A      0.694420  
     145A      0.694441   146A      0.694525   147A      0.702115  
     148A      0.702167   149A      0.716149   150A      0.716170  
     151A      0.716275   152A      0.741806   153A      0.741820  
     154A      0.741926   155A      0.746602   156A      0.746633  
     157A      0.746897   158A      0.769788   159A      0.771886  
     160A      0.771910   161A      0.772033   162A      0.792954  
     163A      0.793012   164A      0.793026   165A      0.803037  
     166A      0.803131   167A      0.805220   168A      0.832480  
     169A      0.832580   170A      0.832608   171A      0.839102  
     172A      0.845489   173A      0.845567   174A      0.845578  
     175A      0.894441   176A      0.894472   177A      0.894490  
     178A      0.914015   179A      0.914032   180A      0.939315  
     181A      0.939657   182A      0.939665   183A      0.949647  
     184A      0.949678   185A      0.949927   186A      0.961904  
     187A      0.961996   188A      0.962041   189A      0.992186  
     190A      0.992230   191A      0.992232   192A      0.995849  
     193A      0.995900   194A      0.996045   195A      0.996278  
     196A      0.996341   197A      1.017488   198A      1.045422  
     199A      1.053717   200A      1.053733   201A      1.053869  
     202A      1.061876   203A      1.061992   204A      1.100656  
     205A      1.100739   206A      1.100766   207A      1.113933  
     208A      1.113980   209A      1.131646   210A      1.131717  
     211A      1.131857   212A      1.141903   213A      1.141919  
     214A      1.142003   215A      1.153463   216A      1.154229  
     217A      1.154234   218A      1.154313   219A      1.170884  
     220A      1.170964   221A      1.183155   222A      1.183168  
     223A      1.183351   224A      1.205883   225A      1.206479  
     226A      1.206480   227A      1.206544   228A      1.214719  
     229A      1.214961   230A      1.215036   231A      1.235060  
     232A      1.244646   233A      1.244734   234A      1.244766  
     235A      1.263094   236A      1.263162   237A      1.263731  
     238A      1.264119   239A      1.264147   240A      1.289405  
     241A      1.289496   242A      1.289505   243A      1.291044  
     244A      1.322412   245A      1.322427   246A      1.322532  
     247A      1.326711   248A      1.326808   249A      1.329366  
     250A      1.329434   251A      1.329516   252A      1.377727  
     253A      1.377751   254A      1.377781   255A      1.392813  
     256A      1.429755   257A      1.440833   258A      1.441004  
     259A      1.441075   260A      1.458221   261A      1.458277  
     262A      1.458656   263A      1.485990   264A      1.486104  
     265A      1.507919   266A      1.507970   267A      1.508027  
     268A      1.527297   269A      1.527375   270A      1.527462  
     271A      1.592416   272A      1.592450   273A      1.592556  
     274A      1.593764   275A      1.593790   276A      1.602430  
     277A      1.626883   278A      1.626993   279A      1.627042  
     280A      1.629811   281A      1.629841   282A      1.630947  
     283A      1.630983   284A      1.631017   285A      1.697054  
     286A      1.697122   287A      1.697207   288A      1.714725  
     289A      1.714801   290A      1.714890   291A      1.725644  
     292A      1.725926   293A      1.726087   294A      1.771757  
     295A      1.798746   296A      1.798855   297A      1.798991  
     298A      1.801522   299A      1.801766   300A      1.805395  
     301A      1.805621   302A      1.805674   303A      1.815069  
     304A      1.815267   305A      1.815276   306A      1.868470  
     307A      1.868637   308A      1.905454   309A      1.907992  
     310A      1.908222   311A      1.909764   312A      1.909784  
     313A      1.909878   314A      1.923280   315A      1.923324  
     316A      1.923663   317A      1.928367   318A      1.928793  
     319A      1.929069   320A      2.020179   321A      2.037821  
     322A      2.038057   323A      2.038069   324A      2.040992  
     325A      2.041092   326A      2.041254   327A      2.055542  
     328A      2.055571   329A      2.055732   330A      2.057832  
     331A      2.057964   332A      2.085006   333A      2.085094  
     334A      2.085652   335A      2.088549   336A      2.120794  
     337A      2.121009   338A      2.137353   339A      2.138197  
     340A      2.138237   341A      2.159412   342A      2.159471  
     343A      2.159695   344A      2.168828   345A      2.168979  
     346A      2.169237   347A      2.169284   348A      2.205300  
     349A      2.205416   350A      2.205588   351A      2.209477  
     352A      2.215026   353A      2.215048   354A      2.215099  
     355A      2.246392   356A      2.278753   357A      2.278897  
     358A      2.285567   359A      2.286057   360A      2.286066  
     361A      2.304430   362A      2.304516   363A      2.304772  
     364A      2.321053   365A      2.321167   366A      2.321405  
     367A      2.334363   368A      2.334410   369A      2.352436  
     370A      2.352485   371A      2.352540   372A      2.365445  
     373A      2.385655   374A      2.385711   375A      2.385856  
     376A      2.415799   377A      2.416522   378A      2.416545  
     379A      2.430332   380A      2.430497   381A      2.430578  
     382A      2.437105   383A      2.448530   384A      2.448615  
     385A      2.448647   386A      2.490542   387A      2.490689  
     388A      2.501786   389A      2.501869   390A      2.502146  
     391A      2.512260   392A      2.512434   393A      2.512471  
     394A      2.523798   395A      2.535201   396A      2.535227  
     397A      2.535476   398A      2.539618   399A      2.539675  
     400A      2.582651   401A      2.582686   402A      2.583132  
     403A      2.597340   404A      2.641803   405A      2.641812  
     406A      2.642103   407A      2.662468   408A      2.662717  
     409A      2.662801   410A      2.669965   411A      2.670240  
     412A      2.690895   413A      2.690977   414A      2.690983  
     415A      2.704664   416A      2.704931   417A      2.705015  
     418A      2.765426   419A      2.765854   420A      2.765891  
     421A      2.790111   422A      2.790179   423A      2.829454  
     424A      2.858188   425A      2.858664   426A      2.858704  
     427A      2.887774   428A      2.887951   429A      2.901857  
     430A      2.901895   431A      2.902428   432A      2.903685  
     433A      2.903705   434A      2.904290   435A      2.947825  
     436A      2.948325   437A      2.948444   438A      2.958657  
     439A      2.958750   440A      3.000508   441A      3.012592  
     442A      3.026556   443A      3.026730   444A      3.026873  
     445A      3.046302   446A      3.046571   447A      3.046577  
     448A      3.068757   449A      3.068807   450A      3.069078  
     451A      3.100650   452A      3.115901   453A      3.116076  
     454A      3.116324   455A      3.135553   456A      3.135648  
     457A      3.137014   458A      3.137101   459A      3.137465  
     460A      3.175216   461A      3.175369   462A      3.186308  
     463A      3.205961   464A      3.206120   465A      3.206169  
     466A      3.216000   467A      3.216554   468A      3.216720  
     469A      3.221612   470A      3.221768   471A      3.222241  
     472A      3.271048   473A      3.271244   474A      3.288840  
     475A      3.289055   476A      3.289072   477A      3.301762  
     478A      3.302212   479A      3.302220   480A      3.337217  
     481A      3.407336   482A      3.421293   483A      3.421463  
     484A      3.421684   485A      3.422099   486A      3.458103  
     487A      3.458756   488A      3.458858   489A      3.467862  
     490A      3.468097   491A      3.521656   492A      3.521668  
     493A      3.521785   494A      3.530109   495A      3.530185  
     496A      3.530477   497A      3.552054   498A      3.552207  
     499A      3.552659   500A      3.593608   501A      3.593660  
     502A      3.601852   503A      3.601869   504A      3.602186  
     505A      3.653326   506A      3.653903   507A      3.654073  
     508A      3.724869   509A      3.725074   510A      3.745886  
     511A      3.745925   512A      3.745985   513A      3.772726  
     514A      3.772815   515A      3.772910   516A      3.787374  
     517A      3.787613   518A      3.787650   519A      3.831508  
     520A      3.831788   521A      3.831914   522A      3.838024  
     523A      3.864914   524A      3.894874   525A      3.895033  
     526A      3.896108   527A      3.933404   528A      3.942741  
     529A      3.942818   530A      3.943586   531A      3.993576  
     532A      3.993689   533A      3.993855   534A      4.037617  
     535A      4.037790   536A      4.074746   537A      4.074830  
     538A      4.075092   539A      4.096595   540A      4.096785  
     541A      4.096905   542A      4.103550   543A      4.103697  
     544A      4.127692   545A      4.127752   546A      4.127955  
     547A      4.171725   548A      4.171992   549A      4.172001  
     550A      4.172840   551A      4.210246   552A      4.243071  
     553A      4.243170   554A      4.243316   555A      4.256068  
     556A      4.256079   557A      4.256177   558A      4.257900  
     559A      4.258180   560A      4.309968   561A      4.310156  
     562A      4.310307   563A      4.401009   564A      4.401227  
     565A      4.401358   566A      4.465314   567A      4.465586  
     568A      4.465603   569A      4.491916   570A      4.492213  
     571A      4.495211   572A      4.495591   573A      4.495596  
     574A      4.503053   575A      4.513647   576A      4.517645  
     577A      4.517681   578A      4.518021   579A      4.533829  
     580A      4.533835   581A      4.558658   582A      4.558841  
     583A      4.559241   584A      4.586489   585A      4.586649  
     586A      4.586807   587A      4.637888   588A      4.638147  
     589A      4.694985   590A      4.695046   591A      4.695167  
     592A      4.733099   593A      4.733713   594A      4.733820  
     595A      4.735705   596A      4.758123   597A      4.758247  
     598A      4.759026   599A      4.860821   600A      4.865070  
     601A      4.865226   602A      4.865306   603A      4.883644  
     604A      4.883719   605A      4.908543   606A      4.908695  
     607A      4.908806   608A      4.948506   609A      4.948529  
     610A      4.997309   611A      4.997406   612A      4.997593  
     613A      5.074802   614A      5.104487   615A      5.104547  
     616A      5.104788   617A      5.190749   618A      5.207442  
     619A      5.207687   620A      5.207699   621A      5.249601  
     622A      5.249738   623A      5.249854   624A      5.346026  
     625A      5.346081   626A      5.348828   627A      5.348944  
     628A      5.348962   629A      5.481087   630A      5.481397  
     631A      5.481511   632A      5.549288   633A      5.549349  
     634A      5.549551   635A      5.601445   636A      6.295581  
     637A      6.295610   638A      6.295798   639A      6.312808  
     640A      6.313252   641A      6.313511   642A      6.414107  
     643A      6.414290   644A      6.440789   645A      6.495982  
     646A      6.496115   647A      6.496643   648A      6.511847  
     649A      6.511893   650A      6.512035   651A      6.517046  
     652A      6.569532   653A      6.569972   654A      6.570019  
     655A      6.603398   656A      6.603480   657A      6.715523  
     658A      6.715959   659A      6.716645   660A      6.784950  
     661A      6.785595   662A      6.785716   663A      6.846916  
     664A      6.847013   665A      6.852341   666A      6.861136  
     667A      6.861341   668A      6.861426   669A      6.934155  
     670A      6.934201   671A      6.934286   672A      6.937825  
     673A      6.937865   674A      6.950672   675A      6.950694  
     676A      6.950925   677A      6.968697   678A      6.968895  
     679A      6.969052   680A      7.028292   681A      7.028686  
     682A      7.028775   683A      7.055243   684A      7.059585  
     685A      7.059930   686A      7.060305   687A      7.104405  
     688A      7.104697   689A      7.105074   690A      7.122254  
     691A      7.133871   692A      7.134201   693A      7.162830  
     694A      7.163142   695A      7.163267   696A      7.220539  
     697A      7.224152   698A      7.225034   699A      7.225135  
     700A      7.258001   701A      7.258086   702A      7.258352  
     703A      7.262053   704A      7.262236   705A      7.268554  
     706A      7.268759   707A      7.268974   708A      7.370308  
     709A      7.370948   710A      7.371103   711A      7.390637  
     712A      7.390734   713A      7.390972   714A      7.391950  
     715A      7.392031   716A      7.463555   717A      7.517209  
     718A      7.517390   719A      7.517711   720A      7.525435  
     721A      7.525881   722A      7.536817   723A      7.536993  
     724A      7.537178   725A      7.594810   726A      7.595682  
     727A      7.595756   728A      7.609582   729A      7.609790  
     730A      7.640025   731A      7.691991   732A      7.692357  
     733A      7.692550   734A      7.705914   735A      7.706132  
     736A      7.706266   737A      7.713120   738A      7.732018  
     739A      7.822920   740A      7.823171   741A      7.823217  
     742A      7.902733   743A      7.903167   744A      7.904771  
     745A      7.905764   746A      7.906038   747A      7.907205  
     748A      7.977759   749A      7.977998   750A      7.978080  
     751A      7.983761   752A      7.984109   753A      8.039659  
     754A      8.039770   755A      8.040064   756A      8.048883  
     757A      8.049112   758A      8.072396   759A      8.072731  
     760A      8.072919   761A      8.093881   762A      8.106939  
     763A      8.107143   764A      8.107527   765A      8.197436  
     766A      8.198005   767A      8.198512   768A      8.255863  
     769A      8.282917   770A      8.283158   771A      8.283428  
     772A      8.292034   773A      8.292118   774A      8.293005  
     775A      8.380313   776A      8.380523   777A      8.381382  
     778A      8.443090   779A      8.444187   780A      8.444308  
     781A      8.484319   782A      8.484673   783A      8.523701  
     784A      8.524483   785A      8.616301   786A      8.673587  
     787A      8.673755   788A      8.674038   789A      8.712951  
     790A      8.712958   791A      8.713829   792A      8.767117  
     793A      8.767130   794A      8.767260   795A      8.767483  
     796A      8.767907   797A      8.816702   798A      8.830175  
     799A      8.830503   800A      8.830935   801A      8.945527  
     802A      8.945718   803A      8.946079   804A      8.953113  
     805A      8.953451   806A      8.953788   807A      8.960248  
     808A      8.960313   809A      8.998267   810A      8.998407  
     811A      8.998921   812A      9.080403   813A      9.080600  
     814A      9.217672   815A      9.218263   816A      9.218625  
     817A      9.220859   818A      9.236705   819A      9.274256  
     820A      9.274301   821A      9.274476   822A      9.291216  
     823A      9.291456   824A      9.307634   825A      9.307850  
     826A      9.307916   827A      9.439815   828A      9.440004  
     829A      9.440073   830A      9.451458   831A      9.451669  
     832A      9.452390   833A      9.557049   834A      9.557645  
     835A      9.557793   836A      9.600293   837A      9.602137  
     838A      9.602251   839A      9.602509   840A      9.610137  
     841A      9.638902   842A      9.639673   843A      9.639944  
     844A      9.674382   845A      9.709251   846A      9.709382  
     847A      9.709702   848A      9.722309   849A      9.722891  
     850A      9.723107   851A      9.766761   852A      9.767163  
     853A      9.783383   854A      9.783780   855A      9.784614  
     856A      9.836952   857A      9.837069   858A      9.837155  
     859A      9.854169   860A      9.854312   861A      9.897139  
     862A      9.897294   863A      9.897888   864A      9.960413  
     865A      9.960555   866A      9.961149   867A     10.011746  
     868A     10.011912   869A     10.012553   870A     10.018554  
     871A     10.019047   872A     10.064483   873A     10.065347  
     874A     10.065719   875A     10.124211   876A     10.193009  
     877A     10.193652   878A     10.193841   879A     10.205322  
     880A     10.205355   881A     10.216699   882A     10.216729  
     883A     10.218007   884A     10.318580   885A     10.318764  
     886A     10.318878   887A     10.384113   888A     10.384296  
     889A     10.384371   890A     10.458908   891A     10.467925  
     892A     10.467961   893A     10.468390   894A     10.538619  
     895A     10.538638   896A     10.539772   897A     10.590689  
     898A     10.591208   899A     10.592071   900A     10.596869  
     901A     10.597047   902A     10.601265   903A     10.613875  
     904A     10.614203   905A     10.614656   906A     10.650958  
     907A     10.650987   908A     10.651394   909A     10.718959  
     910A     10.718997   911A     10.809058   912A     11.050290  
     913A     11.087865   914A     11.087888   915A     11.088104  
     916A     11.137877   917A     11.138449   918A     11.138700  
     919A     11.201586   920A     11.201933   921A     11.202215  
     922A     11.216416   923A     11.217278   924A     11.513533  
     925A     11.514037   926A     11.514487   927A     11.596169  
     928A     11.596294   929A     11.596400   930A     11.612783  
     931A     11.632490   932A     11.632649   933A     11.632924  
     934A     11.810992   935A     11.811375   936A     13.532005  
     937A     13.532271   938A     13.532973   939A     13.559447  
     940A     13.559474   941A     13.626506   942A     13.688445  
     943A     13.689291   944A     13.690004   945A     13.927466  
     946A     13.928021   947A     13.928570   948A     26.559322  
     949A     29.179248   950A     29.314162   951A     29.315281  
     952A     29.316328  

    Final Occupation by Irrep:
              A 
    DOCC [    21 ]

  @DF-RHF Final Energy:  -196.41639505360362

   => Energetics <=

    Nuclear Repulsion Energy =            199.3689818356259877
    One-Electron Energy =                -658.5835514859778641
    Two-Electron Energy =                 262.7981745967483107
    Total Energy =                       -196.4163950536035941

Computation Completed


Properties will be evaluated at   0.000000,   0.000000,   0.000000 [a0]

Properties computed using the SCF density matrix

  Nuclear Dipole Moment: [e a0]
     X:    -0.0152      Y:     4.9569      Z:   174.3323

  Electronic Dipole Moment: [e a0]
     X:     0.0152      Y:    -4.9567      Z:  -174.3325

  Dipole Moment: [e a0]
     X:    -0.0000      Y:     0.0002      Z:    -0.0002     Total:     0.0003

  Dipole Moment: [D]
     X:    -0.0000      Y:     0.0004      Z:    -0.0006     Total:     0.0008


*** tstop() called on node43.bme.utexas.edu at Sat Apr 11 23:45:25 2020
Module time:
	user time   =     336.08 seconds =       5.60 minutes
	system time =       7.44 seconds =       0.12 minutes
	total time  =         47 seconds =       0.78 minutes
Total time:
	user time   =     440.72 seconds =       7.35 minutes
	system time =      10.82 seconds =       0.18 minutes
	total time  =         63 seconds =       1.05 minutes

*** tstart() called on node43.bme.utexas.edu
*** at Sat Apr 11 23:45:25 2020


  //>>>>>>>>>>>>>>>>>>>>>>>>>>>>>>>>>>>//
  //               DFMP2               //
  //<<<<<<<<<<<<<<<<<<<<<<<<<<<<<<<<<<<//

   => Loading Basis Set <=

    Name: (AUG-CC-PVQZ AUX)
    Role: RIFIT
    Keyword: DF_BASIS_MP2
    atoms 1-2, 6, 10, 14         entry C          line   184 file /home/liuchw/anaconda3/envs/psi4env/share/psi4/basis/aug-cc-pvqz-ri.gbs 
    atoms 3-5, 7-9, 11-13, 15-17 entry H          line    30 file /home/liuchw/anaconda3/envs/psi4env/share/psi4/basis/aug-cc-pvqz-ri.gbs 

	 --------------------------------------------------------
	                          DF-MP2                         
	      2nd-Order Density-Fitted Moller-Plesset Theory     
	              RMP2 Wavefunction,   8 Threads             
	                                                         
	        Rob Parrish, Justin Turney, Andy Simmonett,      
	           Ed Hohenstein, and C. David Sherrill          
	 --------------------------------------------------------

   => Auxiliary Basis Set <=

  Basis Set: (AUG-CC-PVQZ AUX)
    Blend: AUG-CC-PVQZ-RI
    Number of shells: 420
    Number of basis function: 1800
    Number of Cartesian functions: 2445
    Spherical Harmonics?: true
    Max angular momentum: 5

	 --------------------------------------------------------
	                 NBF =   952, NAUX =  1800
	 --------------------------------------------------------
	   CLASS    FOCC     OCC    AOCC    AVIR     VIR    FVIR
	   PAIRS       0      21      21     931     931       0
	 --------------------------------------------------------

	-----------------------------------------------------------
	 ==================> DF-MP2 Energies <==================== 
	-----------------------------------------------------------
	 Reference Energy          =    -196.4163950536036225 [Eh]
	 Singles Energy            =      -0.0000000000000000 [Eh]
	 Same-Spin Energy          =      -0.2235183342979137 [Eh]
	 Opposite-Spin Energy      =      -0.8827556216220511 [Eh]
	 Correlation Energy        =      -1.1062739559199648 [Eh]
	 Total Energy              =    -197.5226690095235824 [Eh]
	-----------------------------------------------------------
	 ================> DF-SCS-MP2 Energies <================== 
	-----------------------------------------------------------
	 SCS Same-Spin Scale       =       0.3333333333333333 [-]
	 SCS Opposite-Spin Scale   =       1.2000000000000000 [-]
	 SCS Same-Spin Energy      =      -0.0745061114326379 [Eh]
	 SCS Opposite-Spin Energy  =      -1.0593067459464613 [Eh]
	 SCS Correlation Energy    =      -1.1338128573790993 [Eh]
	 SCS Total Energy          =    -197.5502079109827207 [Eh]
	-----------------------------------------------------------


*** tstop() called on node43.bme.utexas.edu at Sat Apr 11 23:45:51 2020
Module time:
	user time   =     147.14 seconds =       2.45 minutes
	system time =       3.74 seconds =       0.06 minutes
	total time  =         26 seconds =       0.43 minutes
Total time:
	user time   =     587.87 seconds =       9.80 minutes
	system time =      14.56 seconds =       0.24 minutes
	total time  =         89 seconds =       1.48 minutes

  //>>>>>>>>>>>>>>>>>>>>>>>>>>>>>>>>>>>//
  //  CBS Results: mp2/aug-cc-pv[tq]z  //
  //<<<<<<<<<<<<<<<<<<<<<<<<<<<<<<<<<<<//


   ==> HF <==

   HI-zeta (4) Energy:               -196.416395053604


   ==> Helgaker 2-point correlated extrapolation for method: MP2 <==

   LO-zeta (3) Energy:               -197.414126072602
   HI-zeta (4) Energy:               -197.522669009524
   Alpha (exponent) Value:             3.000000000000
   Extrapolated Energy:              -197.601876017547

   @Extrapolated MP2/(T,Q):          -197.601876017547



   ==> Helgaker 2-point correlated extrapolation for method: HF <==

   LO-zeta (3) Energy:               -196.404548261711
   HI-zeta (4) Energy:               -196.416395053604
   Alpha (exponent) Value:             3.000000000000
   Extrapolated Energy:              -196.425040009850

   @Extrapolated HF/(T,Q):           -196.425040009850


   ==> Components <==

  ---------------------------------------------------------------------------------------------------------
                          Method / Basis                      Rqd      Energy [Eh]   Variable
  ---------------------------------------------------------------------------------------------------------
                              hf / aug-cc-pvtz                  *    -196.40454826   HF TOTAL ENERGY
                             mp2 / aug-cc-pvtz                  *    -197.41412607   MP2 TOTAL ENERGY
                              hf / aug-cc-pvqz                  *    -196.41639505   HF TOTAL ENERGY
                             mp2 / aug-cc-pvqz                  *    -197.52266901   MP2 TOTAL ENERGY
  ---------------------------------------------------------------------------------------------------------

   ==> Stages <==

  ---------------------------------------------------------------------------------------------------------
      Stage               Method / Basis                       Wt      Energy [Eh]   Scheme
  ---------------------------------------------------------------------------------------------------------
        scf                   hf / aug-cc-pvqz                  1    -196.41639505   xtpl_highest_1
       corl                  mp2 / aug-cc-pv[tq]z               1    -197.60187602   corl_xtpl_helgaker_2
       corl                   hf / aug-cc-pv[tq]z              -1    -196.42504001   corl_xtpl_helgaker_2
  ---------------------------------------------------------------------------------------------------------

   ==> CBS <==

  ---------------------------------------------------------------------------------------------------------
      Stage               Method / Basis                               Energy [Eh]   Scheme
  ---------------------------------------------------------------------------------------------------------
        scf                   hf / aug-cc-pvqz                       -196.41639505   xtpl_highest_1
       corl                  mp2 / aug-cc-pv[tq]z                      -1.17683601   corl_xtpl_helgaker_2
      total                  CBS                                     -197.59323106   
  ---------------------------------------------------------------------------------------------------------
   => Loading Basis Set <=

    Name: DEF2-SVP
    Role: ORBITAL
    Keyword: BASIS
    atoms 1-2, 6, 10, 14         entry C          line    90 file /home/liuchw/anaconda3/envs/psi4env/share/psi4/basis/def2-svp.gbs 
    atoms 3-5, 7-9, 11-13, 15-17 entry H          line    15 file /home/liuchw/anaconda3/envs/psi4env/share/psi4/basis/def2-svp.gbs 


       N-Body: Complex Energy (fragments = (2,), basis = (2,):  -197.59323106130108)

       N-Body: Computing complex (2/4) with fragments (2,) in the basis of fragments (1, 2).


Scratch directory: /scratch//

  //>>>>>>>>>>>>>>>>>>>>>>>>>>>>>>>>>>>//
  //   CBS Setup: mp2/aug-cc-pv[tq]z   //
  //<<<<<<<<<<<<<<<<<<<<<<<<<<<<<<<<<<<//

    Naive listing of computations required.
             hf / aug-cc-pvqz              for  HF TOTAL ENERGY
            mp2 / aug-cc-pvtz              for  MP2 TOTAL ENERGY
            mp2 / aug-cc-pvqz              for  MP2 TOTAL ENERGY
             hf / aug-cc-pvtz              for  HF TOTAL ENERGY
             hf / aug-cc-pvqz              for  HF TOTAL ENERGY

    Enlightened listing of computations required.
            mp2 / aug-cc-pvtz              for  MP2 TOTAL ENERGY
            mp2 / aug-cc-pvqz              for  MP2 TOTAL ENERGY

    Full listing of computations to be obtained (required and bonus).
             hf / aug-cc-pvtz              for  HF TOTAL ENERGY
            mp2 / aug-cc-pvtz              for  MP2 TOTAL ENERGY
             hf / aug-cc-pvqz              for  HF TOTAL ENERGY
            mp2 / aug-cc-pvqz              for  MP2 TOTAL ENERGY

  //>>>>>>>>>>>>>>>>>>>>>>>>>>>>>>>>>>>>//
  // CBS Computation: MP2 / AUG-CC-PVTZ //
  //<<<<<<<<<<<<<<<<<<<<<<<<<<<<<<<<<<<<//


Scratch directory: /scratch//

*** tstart() called on node43.bme.utexas.edu
*** at Sat Apr 11 23:45:54 2020

   => Loading Basis Set <=

    Name: AUG-CC-PVTZ
    Role: ORBITAL
    Keyword: BASIS
    atoms 1, 5, 8, 11, 14, 18-19, 23, 27, 31                       entry C          line   239 file /home/liuchw/anaconda3/envs/psi4env/share/psi4/basis/aug-cc-pvtz.gbs 
    atoms 2-4, 6-7, 9-10, 12-13, 15-17, 20-22, 24-26, 28-30, 32-34 entry H          line    40 file /home/liuchw/anaconda3/envs/psi4env/share/psi4/basis/aug-cc-pvtz.gbs 


         ---------------------------------------------------------
                                   SCF
               by Justin Turney, Rob Parrish, Andy Simmonett
                          and Daniel G. A. Smith
                              RHF Reference
                        8 Threads,  38146 MiB Core
         ---------------------------------------------------------

  ==> Geometry <==

    Molecular point group: c1
    Full point group: C1

    Geometry (in Angstrom), charge = 0, multiplicity = 1:

       Center              X                  Y                   Z               Mass       
    ------------   -----------------  -----------------  -----------------  -----------------
      Gh(C)          -2.530058819624    -0.415239801871    -2.222464131905    12.000000000000
      Gh(H)          -2.559561819624    -0.980454801871    -3.153926131905     1.007825032230
      Gh(H)          -2.553711819624    -1.131529801871    -1.401112131905     1.007825032230
      Gh(H)          -3.435889819624     0.186479198129    -2.166999131905     1.007825032230
      Gh(C)          -1.275832819624     0.445970198129    -2.153745131905    12.000000000000
      Gh(H)          -1.277759819624     1.027553198129    -1.228685131905     1.007825032230
      Gh(H)          -1.280014819624     1.170891198129    -2.970928131905     1.007825032230
      Gh(C)           0.002529180376    -0.378380801871    -2.224777131905    12.000000000000
      Gh(H)           0.008153180376    -1.109077801871    -1.409939131905     1.007825032230
      Gh(H)           0.006573180376    -0.958187801871    -3.152590131905     1.007825032230
      Gh(C)           1.268657180376     0.464731198129    -2.154401131905    12.000000000000
      Gh(H)           1.262344180376     1.046585198129    -1.229524131905     1.007825032230
      Gh(H)           1.261959180376     1.189392198129    -2.971805131905     1.007825032230
      Gh(C)           2.535290180376    -0.378089801871    -2.223084131905    12.000000000000
      Gh(H)           2.572764180376    -0.943381801871    -3.154222131905     1.007825032230
      Gh(H)           3.432305180376     0.236750198129    -2.168192131905     1.007825032230
      Gh(H)           2.569532180376    -1.093474801871    -1.401314131905     1.007825032230
         C           -0.000184819624     0.062314198129     2.197072868095    12.000000000000
         C            0.000887180376    -0.077816801871     3.716805868095    12.000000000000
         H           -0.886148819624     0.386259198129     4.150174868095     1.007825032230
         H            0.010138180376    -1.128596801871     4.009815868095     1.007825032230
         H            0.879547180376     0.401847198129     4.150448868095     1.007825032230
         C           -1.239639819624    -0.619337801871     1.623174868095    12.000000000000
         H           -1.262939819624    -0.530380801871     0.536344868095     1.007825032230
         H           -1.251725819624    -1.680613801871     1.876187868095     1.007825032230
         H           -2.150583819624    -0.167046801871     2.018259868095     1.007825032230
         C            1.252420180376    -0.595226801871     1.623602868095    12.000000000000
         H            1.273747180376    -0.506940801871     0.536631868095     1.007825032230
         H            1.285551180376    -1.655787801871     1.877694868095     1.007825032230
         H            2.154232180376    -0.124583801871     2.018023868095     1.007825032230
         C           -0.014432819624     1.542106198129     1.822451868095    12.000000000000
         H            0.863333180376     2.052693198129     2.221406868095     1.007825032230
         H           -0.014956819624     1.668561198129     0.738799868095     1.007825032230
         H           -0.902538819624     2.035440198129     2.220239868095     1.007825032230

  Running in c1 symmetry.

  Rotational constants: A =      0.04393  B =      0.02011  C =      0.01581 [cm^-1]
  Rotational constants: A =   1316.88135  B =    602.80331  C =    473.97788 [MHz]
  Nuclear repulsion =  199.368981835625988

  Charge       = 0
  Multiplicity = 1
  Electrons    = 42
  Nalpha       = 21
  Nbeta        = 21

  ==> Algorithm <==

  SCF Algorithm Type is DF.
  DIIS enabled.
  MOM disabled.
  Fractional occupation disabled.
  Guess Type is SAD.
  Energy threshold   = 1.00e-07
  Density threshold  = 1.00e-08
  Integral threshold = 0.00e+00

  ==> Primary Basis <==

  Basis Set: AUG-CC-PVTZ
    Blend: AUG-CC-PVTZ
    Number of shells: 356
    Number of basis function: 1012
    Number of Cartesian functions: 1150
    Spherical Harmonics?: true
    Max angular momentum: 3

   => Loading Basis Set <=

    Name: (AUG-CC-PVTZ AUX)
    Role: JKFIT
    Keyword: DF_BASIS_SCF
    atoms 1, 5, 8, 11, 14, 18-19, 23, 27, 31                       entry C          line   162 file /home/liuchw/anaconda3/envs/psi4env/share/psi4/basis/aug-cc-pvtz-jkfit.gbs 
    atoms 2-4, 6-7, 9-10, 12-13, 15-17, 20-22, 24-26, 28-30, 32-34 entry H          line    70 file /home/liuchw/anaconda3/envs/psi4env/share/psi4/basis/aug-cc-pvtz-jkfit.gbs 

  ==> Pre-Iterations <==

   -------------------------------------------------------
    Irrep   Nso     Nmo     Nalpha   Nbeta   Ndocc  Nsocc
   -------------------------------------------------------
     A       1012    1012       0       0       0       0
   -------------------------------------------------------
    Total    1012    1012      21      21      21       0
   -------------------------------------------------------

  ==> Integral Setup <==

  DFHelper Memory: AOs need 15.016 GiB; user supplied 27.940 GiB. Using in-core AOs.

  ==> MemDFJK: Density-Fitted J/K Matrices <==

    J tasked:                   Yes
    K tasked:                   Yes
    wK tasked:                   No
    OpenMP threads:               8
    Memory [MiB]:             28610
    Algorithm:                 Core
    Schwarz Cutoff:           1E-12
    Mask sparsity (%):      10.0570
    Fitting Condition:        1E-10

   => Auxiliary Basis Set <=

  Basis Set: (AUG-CC-PVTZ AUX)
    Blend: AUG-CC-PVTZ-JKFIT
    Number of shells: 636
    Number of basis function: 2144
    Number of Cartesian functions: 2630
    Spherical Harmonics?: true
    Max angular momentum: 4

  Minimum eigenvalue in the overlap matrix is 7.7600438903E-07.
  Using Symmetric Orthogonalization.

  SCF Guess: Superposition of Atomic Densities via on-the-fly atomic UHF.

  ==> Iterations <==

                           Total Energy        Delta E     RMS |[F,P]|

   @DF-RHF iter SAD:  -196.10280825358566   -1.96103e+02   0.00000e+00 
   @DF-RHF iter   1:  -196.10505796058501   -2.24971e-03   6.86093e-04 DIIS
   @DF-RHF iter   2:  -196.33648737115146   -2.31429e-01   3.48237e-04 DIIS
   @DF-RHF iter   3:  -196.40083471618834   -6.43473e-02   6.43432e-05 DIIS
   @DF-RHF iter   4:  -196.40430733390875   -3.47262e-03   2.08800e-05 DIIS
   @DF-RHF iter   5:  -196.40460740445184   -3.00071e-04   2.82760e-06 DIIS
   @DF-RHF iter   6:  -196.40461546857978   -8.06413e-06   3.19906e-07 DIIS
   @DF-RHF iter   7:  -196.40461561207144   -1.43492e-07   5.98070e-08 DIIS
   @DF-RHF iter   8:  -196.40461561644130   -4.36987e-09   7.96544e-09 DIIS
  Energy and wave function converged.


  ==> Post-Iterations <==

    Orbital Energies [Eh]
    ---------------------

    Doubly Occupied:                                                      

       1A    -11.226802     2A    -11.205607     3A    -11.205598  
       4A    -11.205583     5A    -11.205547     6A     -1.106559  
       7A     -0.928826     8A     -0.928690     9A     -0.928687  
      10A     -0.729927    11A     -0.611865    12A     -0.611797  
      13A     -0.611765    14A     -0.552883    15A     -0.552848  
      16A     -0.509276    17A     -0.509231    18A     -0.509195  
      19A     -0.452521    20A     -0.452394    21A     -0.452385  

    Virtual:                                                              

      22A      0.018633    23A      0.027682    24A      0.030140  
      25A      0.032263    26A      0.043442    27A      0.043535  
      28A      0.045352    29A      0.047797    30A      0.048164  
      31A      0.061786    32A      0.063318    33A      0.064276  
      34A      0.066195    35A      0.067392    36A      0.070470  
      37A      0.075137    38A      0.082858    39A      0.083552  
      40A      0.085640    41A      0.088487    42A      0.091364  
      43A      0.093676    44A      0.098954    45A      0.100912  
      46A      0.106939    47A      0.109347    48A      0.121219  
      49A      0.121542    50A      0.126589    51A      0.128590  
      52A      0.129426    53A      0.133637    54A      0.135443  
      55A      0.138919    56A      0.142993    57A      0.147466  
      58A      0.147995    59A      0.153010    60A      0.157107  
      61A      0.160507    62A      0.162979    63A      0.163749  
      64A      0.166705    65A      0.168705    66A      0.174671  
      67A      0.175491    68A      0.178403    69A      0.182292  
      70A      0.185600    71A      0.187719    72A      0.191355  
      73A      0.192610    74A      0.197918    75A      0.198460  
      76A      0.203599    77A      0.210717    78A      0.212900  
      79A      0.215418    80A      0.218860    81A      0.228933  
      82A      0.233563    83A      0.236216    84A      0.237724  
      85A      0.241006    86A      0.254491    87A      0.262381  
      88A      0.268792    89A      0.283238    90A      0.284655  
      91A      0.289078    92A      0.290439    93A      0.293149  
      94A      0.298506    95A      0.299290    96A      0.303154  
      97A      0.306943    98A      0.311907    99A      0.318547  
     100A      0.320222   101A      0.325200   102A      0.330673  
     103A      0.333499   104A      0.334042   105A      0.336344  
     106A      0.341425   107A      0.344222   108A      0.345361  
     109A      0.349080   110A      0.349492   111A      0.355499  
     112A      0.357512   113A      0.359912   114A      0.361719  
     115A      0.366760   116A      0.371025   117A      0.372255  
     118A      0.373653   119A      0.381529   120A      0.382478  
     121A      0.383922   122A      0.384892   123A      0.389691  
     124A      0.391898   125A      0.396547   126A      0.400077  
     127A      0.402741   128A      0.405503   129A      0.409727  
     130A      0.409996   131A      0.412550   132A      0.421045  
     133A      0.423255   134A      0.424208   135A      0.430040  
     136A      0.431126   137A      0.434299   138A      0.435716  
     139A      0.438496   140A      0.440888   141A      0.449670  
     142A      0.454117   143A      0.456758   144A      0.458434  
     145A      0.462039   146A      0.468630   147A      0.471169  
     148A      0.477416   149A      0.479890   150A      0.485016  
     151A      0.489366   152A      0.491323   153A      0.496899  
     154A      0.501837   155A      0.503316   156A      0.507684  
     157A      0.508961   158A      0.510188   159A      0.513234  
     160A      0.518055   161A      0.520716   162A      0.521114  
     163A      0.529232   164A      0.534001   165A      0.534670  
     166A      0.537720   167A      0.539114   168A      0.541957  
     169A      0.545485   170A      0.553041   171A      0.554482  
     172A      0.559030   173A      0.559939   174A      0.561222  
     175A      0.568429   176A      0.574447   177A      0.582010  
     178A      0.583874   179A      0.587804   180A      0.588890  
     181A      0.595033   182A      0.597949   183A      0.603670  
     184A      0.606826   185A      0.607062   186A      0.616004  
     187A      0.617138   188A      0.622957   189A      0.623273  
     190A      0.629808   191A      0.633709   192A      0.636138  
     193A      0.636427   194A      0.643034   195A      0.646141  
     196A      0.648034   197A      0.648349   198A      0.655468  
     199A      0.658456   200A      0.662784   201A      0.668989  
     202A      0.674012   203A      0.679205   204A      0.681590  
     205A      0.681818   206A      0.685787   207A      0.690337  
     208A      0.694899   209A      0.696376   210A      0.701013  
     211A      0.702589   212A      0.709941   213A      0.716099  
     214A      0.723762   215A      0.724480   216A      0.726452  
     217A      0.726813   218A      0.728869   219A      0.729793  
     220A      0.739299   221A      0.740337   222A      0.749747  
     223A      0.757773   224A      0.759223   225A      0.770015  
     226A      0.770165   227A      0.775131   228A      0.779096  
     229A      0.781506   230A      0.787480   231A      0.788458  
     232A      0.796276   233A      0.806452   234A      0.806557  
     235A      0.812323   236A      0.817576   237A      0.823308  
     238A      0.823422   239A      0.832958   240A      0.835581  
     241A      0.841687   242A      0.843951   243A      0.846872  
     244A      0.854061   245A      0.855905   246A      0.861205  
     247A      0.863773   248A      0.874766   249A      0.875424  
     250A      0.886191   251A      0.886410   252A      0.887600  
     253A      0.893139   254A      0.908991   255A      0.909797  
     256A      0.916124   257A      0.916553   258A      0.923339  
     259A      0.924209   260A      0.927330   261A      0.937125  
     262A      0.937554   263A      0.946333   264A      0.949171  
     265A      0.956113   266A      0.957200   267A      0.959905  
     268A      0.964528   269A      0.966284   270A      0.974051  
     271A      0.983930   272A      0.986122   273A      0.996169  
     274A      1.006025   275A      1.012007   276A      1.023412  
     277A      1.025420   278A      1.026838   279A      1.028507  
     280A      1.036096   281A      1.038212   282A      1.044722  
     283A      1.052556   284A      1.053291   285A      1.056706  
     286A      1.060364   287A      1.060527   288A      1.066256  
     289A      1.073558   290A      1.075304   291A      1.084065  
     292A      1.085886   293A      1.087282   294A      1.088065  
     295A      1.091000   296A      1.091552   297A      1.099174  
     298A      1.110301   299A      1.117991   300A      1.125524  
     301A      1.129478   302A      1.133387   303A      1.136295  
     304A      1.144197   305A      1.145286   306A      1.154518  
[...]
    1432A      7.513512  1433A      7.521437  1434A      7.532771  
    1435A      7.545089  1436A      7.548550  1437A      7.553657  
    1438A      7.558809  1439A      7.563135  1440A      7.570666  
    1441A      7.578369  1442A      7.585491  1443A      7.592615  
    1444A      7.599240  1445A      7.605354  1446A      7.616250  
    1447A      7.619739  1448A      7.632241  1449A      7.633170  
    1450A      7.637323  1451A      7.639133  1452A      7.646358  
    1453A      7.658987  1454A      7.665109  1455A      7.687484  
    1456A      7.694234  1457A      7.694372  1458A      7.704168  
    1459A      7.716211  1460A      7.725296  1461A      7.727855  
    1462A      7.736259  1463A      7.743379  1464A      7.752749  
    1465A      7.764071  1466A      7.770415  1467A      7.783298  
    1468A      7.784453  1469A      7.787674  1470A      7.796161  
    1471A      7.797987  1472A      7.808807  1473A      7.812727  
    1474A      7.827831  1475A      7.842863  1476A      7.843544  
    1477A      7.865000  1478A      7.874052  1479A      7.875958  
    1480A      7.890839  1481A      7.897392  1482A      7.903604  
    1483A      7.912850  1484A      7.923196  1485A      7.937546  
    1486A      7.942049  1487A      7.950550  1488A      7.957891  
    1489A      7.958430  1490A      7.969664  1491A      7.971232  
    1492A      7.973352  1493A      7.979857  1494A      7.980208  
    1495A      7.997791  1496A      8.001692  1497A      8.024041  
    1498A      8.024327  1499A      8.037908  1500A      8.039707  
    1501A      8.052239  1502A      8.054167  1503A      8.063213  
    1504A      8.064672  1505A      8.076386  1506A      8.079638  
    1507A      8.089892  1508A      8.092944  1509A      8.103365  
    1510A      8.107663  1511A      8.113990  1512A      8.116370  
    1513A      8.117991  1514A      8.124681  1515A      8.126648  
    1516A      8.136749  1517A      8.143965  1518A      8.158505  
    1519A      8.174790  1520A      8.175483  1521A      8.181285  
    1522A      8.197772  1523A      8.199620  1524A      8.210198  
    1525A      8.218404  1526A      8.223942  1527A      8.240301  
    1528A      8.251251  1529A      8.254069  1530A      8.262418  
    1531A      8.283545  1532A      8.290327  1533A      8.290863  
    1534A      8.292909  1535A      8.308885  1536A      8.331647  
    1537A      8.343278  1538A      8.348790  1539A      8.356501  
    1540A      8.376258  1541A      8.384267  1542A      8.386365  
    1543A      8.393185  1544A      8.393575  1545A      8.411328  
    1546A      8.417370  1547A      8.427852  1548A      8.429609  
    1549A      8.435245  1550A      8.444372  1551A      8.445926  
    1552A      8.469860  1553A      8.484796  1554A      8.487148  
    1555A      8.512609  1556A      8.516739  1557A      8.529051  
    1558A      8.542532  1559A      8.544655  1560A      8.548087  
    1561A      8.579193  1562A      8.593202  1563A      8.628810  
    1564A      8.629254  1565A      8.650027  1566A      8.659368  
    1567A      8.674405  1568A      8.678210  1569A      8.685479  
    1570A      8.701916  1571A      8.715132  1572A      8.718331  
    1573A      8.729144  1574A      8.739749  1575A      8.742427  
    1576A      8.748016  1577A      8.750306  1578A      8.758064  
    1579A      8.767804  1580A      8.777929  1581A      8.782158  
    1582A      8.782536  1583A      8.791395  1584A      8.802477  
    1585A      8.806437  1586A      8.818872  1587A      8.820712  
    1588A      8.829716  1589A      8.836587  1590A      8.842119  
    1591A      8.843897  1592A      8.852799  1593A      8.871502  
    1594A      8.872019  1595A      8.878990  1596A      8.879369  
    1597A      8.894945  1598A      8.900793  1599A      8.906485  
    1600A      8.906926  1601A      8.916159  1602A      8.946258  
    1603A      8.965470  1604A      8.972416  1605A      8.975683  
    1606A      8.977646  1607A      8.981356  1608A      8.990873  
    1609A      9.008860  1610A      9.010956  1611A      9.018449  
    1612A      9.018579  1613A      9.024511  1614A      9.027149  
    1615A      9.036564  1616A      9.045215  1617A      9.045941  
    1618A      9.073334  1619A      9.081582  1620A      9.084467  
    1621A      9.098552  1622A      9.116979  1623A      9.120763  
    1624A      9.137571  1625A      9.166595  1626A      9.172397  
    1627A      9.203550  1628A      9.238185  1629A      9.251206  
    1630A      9.259777  1631A      9.261831  1632A      9.283703  
    1633A      9.306658  1634A      9.316973  1635A      9.325071  
    1636A      9.328636  1637A      9.338201  1638A      9.341824  
    1639A      9.344904  1640A      9.353346  1641A      9.359770  
    1642A      9.365860  1643A      9.368534  1644A      9.371947  
    1645A      9.393912  1646A      9.400141  1647A      9.411021  
    1648A      9.432248  1649A      9.437558  1650A      9.451467  
    1651A      9.458849  1652A      9.473150  1653A      9.486685  
    1654A      9.487733  1655A      9.497874  1656A      9.498603  
    1657A      9.506830  1658A      9.517013  1659A      9.519030  
    1660A      9.526577  1661A      9.535869  1662A      9.542557  
    1663A      9.559414  1664A      9.566488  1665A      9.576295  
    1666A      9.581239  1667A      9.585682  1668A      9.590488  
    1669A      9.607074  1670A      9.619308  1671A      9.622463  
    1672A      9.626977  1673A      9.638308  1674A      9.652442  
    1675A      9.655645  1676A      9.670596  1677A      9.671325  
    1678A      9.678301  1679A      9.681406  1680A      9.687398  
    1681A      9.691321  1682A      9.693848  1683A      9.701667  
    1684A      9.706321  1685A      9.708775  1686A      9.719894  
    1687A      9.720389  1688A      9.731223  1689A      9.738637  
    1690A      9.749487  1691A      9.753393  1692A      9.758385  
    1693A      9.759599  1694A      9.761945  1695A      9.768467  
    1696A      9.774200  1697A      9.782439  1698A      9.794986  
    1699A      9.801159  1700A      9.810838  1701A      9.828106  
    1702A      9.838541  1703A      9.854508  1704A      9.859419  
    1705A      9.862018  1706A      9.863941  1707A      9.876137  
    1708A      9.877079  1709A      9.890283  1710A      9.897002  
    1711A      9.899025  1712A      9.911830  1713A      9.912970  
    1714A      9.916149  1715A      9.925111  1716A      9.931660  
    1717A      9.934487  1718A      9.940394  1719A      9.951795  
    1720A      9.959046  1721A      9.972521  1722A      9.980823  
    1723A      9.985664  1724A      9.992505  1725A     10.025439  
    1726A     10.027350  1727A     10.028877  1728A     10.031784  
    1729A     10.039968  1730A     10.043599  1731A     10.072991  
    1732A     10.075252  1733A     10.079752  1734A     10.083482  
    1735A     10.083655  1736A     10.096397  1737A     10.111906  
    1738A     10.114196  1739A     10.119710  1740A     10.131705  
    1741A     10.135835  1742A     10.152500  1743A     10.164156  
    1744A     10.181071  1745A     10.201406  1746A     10.213114  
    1747A     10.217360  1748A     10.222900  1749A     10.227671  
    1750A     10.234418  1751A     10.240346  1752A     10.246601  
    1753A     10.259930  1754A     10.261857  1755A     10.273020  
    1756A     10.276853  1757A     10.279940  1758A     10.300315  
    1759A     10.304456  1760A     10.313129  1761A     10.318681  
    1762A     10.323392  1763A     10.329742  1764A     10.339421  
    1765A     10.357005  1766A     10.368472  1767A     10.376639  
    1768A     10.385546  1769A     10.404263  1770A     10.413072  
    1771A     10.413681  1772A     10.420581  1773A     10.431731  
    1774A     10.435628  1775A     10.440888  1776A     10.466870  
    1777A     10.468006  1778A     10.477805  1779A     10.503814  
    1780A     10.509324  1781A     10.514559  1782A     10.537730  
    1783A     10.539912  1784A     10.553818  1785A     10.557702  
    1786A     10.570637  1787A     10.574935  1788A     10.586687  
    1789A     10.595674  1790A     10.596941  1791A     10.606900  
    1792A     10.612173  1793A     10.613681  1794A     10.617398  
    1795A     10.622015  1796A     10.623244  1797A     10.629091  
    1798A     10.634832  1799A     10.641378  1800A     10.642944  
    1801A     10.652405  1802A     10.660621  1803A     10.664836  
    1804A     10.667574  1805A     10.698810  1806A     10.714600  
    1807A     10.729978  1808A     10.740439  1809A     10.751553  
    1810A     10.759960  1811A     10.769214  1812A     10.791712  
    1813A     10.804342  1814A     10.830369  1815A     10.832944  
    1816A     10.879196  1817A     10.908202  1818A     10.923079  
    1819A     10.938717  1820A     10.974148  1821A     11.002395  
    1822A     11.063208  1823A     11.090836  1824A     11.097300  
    1825A     11.115009  1826A     11.116278  1827A     11.125484  
    1828A     11.150993  1829A     11.153160  1830A     11.169276  
    1831A     11.171219  1832A     11.183494  1833A     11.189198  
    1834A     11.203731  1835A     11.205717  1836A     11.224372  
    1837A     11.227716  1838A     11.233296  1839A     11.248615  
    1840A     11.276212  1841A     11.294163  1842A     11.323309  
    1843A     11.333216  1844A     11.334766  1845A     11.346007  
    1846A     11.373779  1847A     11.377545  1848A     11.393781  
    1849A     11.410924  1850A     11.517329  1851A     11.525204  
    1852A     11.541576  1853A     11.552529  1854A     11.559776  
    1855A     11.572428  1856A     11.581897  1857A     11.585355  
    1858A     11.596176  1859A     11.629187  1860A     11.668647  
    1861A     11.673496  1862A     11.694938  1863A     11.699285  
    1864A     11.719865  1865A     11.724852  1866A     11.727207  
    1867A     11.742187  1868A     11.779352  1869A     11.888069  
    1870A     11.904199  1871A     13.544601  1872A     13.559647  
    1873A     13.564199  1874A     13.592645  1875A     13.604801  
    1876A     13.624345  1877A     13.646672  1878A     13.663900  
    1879A     13.682812  1880A     13.711379  1881A     13.737274  
    1882A     13.742433  1883A     13.754317  1884A     13.769704  
    1885A     13.785379  1886A     13.799873  1887A     13.859611  
    1888A     13.869896  1889A     13.936289  1890A     13.939108  
    1891A     14.015931  1892A     14.066755  1893A     14.130748  
    1894A     14.152791  1895A     26.929872  1896A     28.629918  
    1897A     28.677986  1898A     28.799618  1899A     29.221298  
    1900A     29.268605  1901A     29.375038  1902A     29.434346  
    1903A     29.548549  1904A     29.577723  

    Final Occupation by Irrep:
              A 
    DOCC [    42 ]

  @DF-RHF Final Energy:  -392.82706076130103

   => Energetics <=

    Nuclear Repulsion Energy =            579.2393108551821115
    One-Electron Energy =               -1678.1673655962840712
    Two-Electron Energy =                 706.1009939798009327
    Total Energy =                       -392.8270607613010270

Computation Completed


Properties will be evaluated at   0.000000,   0.000000,   0.000000 [a0]

Properties computed using the SCF density matrix

  Nuclear Dipole Moment: [e a0]
     X:     0.0041      Y:    -0.5696      Z:    -0.0518

  Electronic Dipole Moment: [e a0]
     X:    -0.0043      Y:     0.6042      Z:     0.0214

  Dipole Moment: [e a0]
     X:    -0.0003      Y:     0.0346      Z:    -0.0304     Total:     0.0460

  Dipole Moment: [D]
     X:    -0.0006      Y:     0.0879      Z:    -0.0772     Total:     0.1170


*** tstop() called on node43.bme.utexas.edu at Sun Apr 12 00:41:18 2020
Module time:
	user time   =    5138.33 seconds =      85.64 minutes
	system time =     213.25 seconds =       3.55 minutes
	total time  =        877 seconds =      14.62 minutes
Total time:
	user time   =   20530.99 seconds =     342.18 minutes
	system time =     733.99 seconds =      12.23 minutes
	total time  =       3416 seconds =      56.93 minutes

*** tstart() called on node43.bme.utexas.edu
*** at Sun Apr 12 00:41:18 2020


  //>>>>>>>>>>>>>>>>>>>>>>>>>>>>>>>>>>>//
  //               DFMP2               //
  //<<<<<<<<<<<<<<<<<<<<<<<<<<<<<<<<<<<//

   => Loading Basis Set <=

    Name: (AUG-CC-PVQZ AUX)
    Role: RIFIT
    Keyword: DF_BASIS_MP2
    atoms 1, 5, 8, 11, 14, 18-19, 23, 27, 31                       entry C          line   184 file /home/liuchw/anaconda3/envs/psi4env/share/psi4/basis/aug-cc-pvqz-ri.gbs 
    atoms 2-4, 6-7, 9-10, 12-13, 15-17, 20-22, 24-26, 28-30, 32-34 entry H          line    30 file /home/liuchw/anaconda3/envs/psi4env/share/psi4/basis/aug-cc-pvqz-ri.gbs 

	 --------------------------------------------------------
	                          DF-MP2                         
	      2nd-Order Density-Fitted Moller-Plesset Theory     
	              RMP2 Wavefunction,   8 Threads             
	                                                         
	        Rob Parrish, Justin Turney, Andy Simmonett,      
	           Ed Hohenstein, and C. David Sherrill          
	 --------------------------------------------------------

   => Auxiliary Basis Set <=

  Basis Set: (AUG-CC-PVQZ AUX)
    Blend: AUG-CC-PVQZ-RI
    Number of shells: 840
    Number of basis function: 3600
    Number of Cartesian functions: 4890
    Spherical Harmonics?: true
    Max angular momentum: 5

	 --------------------------------------------------------
	                 NBF =  1904, NAUX =  3600
	 --------------------------------------------------------
	   CLASS    FOCC     OCC    AOCC    AVIR     VIR    FVIR
	   PAIRS       0      42      42    1862    1862       0
	 --------------------------------------------------------

	-----------------------------------------------------------
	 ==================> DF-MP2 Energies <==================== 
	-----------------------------------------------------------
	 Reference Energy          =    -392.8270607613010270 [Eh]
	 Singles Energy            =      -0.0000000000000000 [Eh]
	 Same-Spin Energy          =      -0.4480293065680468 [Eh]
	 Opposite-Spin Energy      =      -1.7676166818390464 [Eh]
	 Correlation Energy        =      -2.2156459884070934 [Eh]
	 Total Energy              =    -395.0427067497081453 [Eh]
	-----------------------------------------------------------
	 ================> DF-SCS-MP2 Energies <================== 
	-----------------------------------------------------------
	 SCS Same-Spin Scale       =       0.3333333333333333 [-]
	 SCS Opposite-Spin Scale   =       1.2000000000000000 [-]
	 SCS Same-Spin Energy      =      -0.1493431021893489 [Eh]
	 SCS Opposite-Spin Energy  =      -2.1211400182068556 [Eh]
	 SCS Correlation Energy    =      -2.2704831203962046 [Eh]
	 SCS Total Energy          =    -395.0975438816972201 [Eh]
	-----------------------------------------------------------


*** tstop() called on node43.bme.utexas.edu at Sun Apr 12 00:46:10 2020
Module time:
	user time   =    2019.35 seconds =      33.66 minutes
	system time =      19.30 seconds =       0.32 minutes
	total time  =        292 seconds =       4.87 minutes
Total time:
	user time   =   22550.34 seconds =     375.84 minutes
	system time =     753.29 seconds =      12.55 minutes
	total time  =       3708 seconds =      61.80 minutes

  //>>>>>>>>>>>>>>>>>>>>>>>>>>>>>>>>>>>//
  //  CBS Results: mp2/aug-cc-pv[tq]z  //
  //<<<<<<<<<<<<<<<<<<<<<<<<<<<<<<<<<<<//


   ==> HF <==

   HI-zeta (4) Energy:               -392.827060761301


   ==> Helgaker 2-point correlated extrapolation for method: MP2 <==

   LO-zeta (3) Energy:               -394.828279597503
   HI-zeta (4) Energy:               -395.042706749708
   Alpha (exponent) Value:             3.000000000000
   Extrapolated Energy:              -395.199180617534

   @Extrapolated MP2/(T,Q):          -395.199180617534



   ==> Helgaker 2-point correlated extrapolation for method: HF <==

   LO-zeta (3) Energy:               -392.803471782708
   HI-zeta (4) Energy:               -392.827060761301
   Alpha (exponent) Value:             3.000000000000
   Extrapolated Energy:              -392.844274340274

   @Extrapolated HF/(T,Q):           -392.844274340274


   ==> Components <==

  ---------------------------------------------------------------------------------------------------------
                          Method / Basis                      Rqd      Energy [Eh]   Variable
  ---------------------------------------------------------------------------------------------------------
                              hf / aug-cc-pvtz                  *    -392.80347178   HF TOTAL ENERGY
                             mp2 / aug-cc-pvtz                  *    -394.82827960   MP2 TOTAL ENERGY
                              hf / aug-cc-pvqz                  *    -392.82706076   HF TOTAL ENERGY
                             mp2 / aug-cc-pvqz                  *    -395.04270675   MP2 TOTAL ENERGY
  ---------------------------------------------------------------------------------------------------------

   ==> Stages <==

  ---------------------------------------------------------------------------------------------------------
      Stage               Method / Basis                       Wt      Energy [Eh]   Scheme
  ---------------------------------------------------------------------------------------------------------
        scf                   hf / aug-cc-pvqz                  1    -392.82706076   xtpl_highest_1
       corl                  mp2 / aug-cc-pv[tq]z               1    -395.19918062   corl_xtpl_helgaker_2
       corl                   hf / aug-cc-pv[tq]z              -1    -392.84427434   corl_xtpl_helgaker_2
  ---------------------------------------------------------------------------------------------------------

   ==> CBS <==

  ---------------------------------------------------------------------------------------------------------
      Stage               Method / Basis                               Energy [Eh]   Scheme
  ---------------------------------------------------------------------------------------------------------
        scf                   hf / aug-cc-pvqz                       -392.82706076   xtpl_highest_1
       corl                  mp2 / aug-cc-pv[tq]z                      -2.35490628   corl_xtpl_helgaker_2
      total                  CBS                                     -395.18196704   
  ---------------------------------------------------------------------------------------------------------
   => Loading Basis Set <=

    Name: DEF2-SVP
    Role: ORBITAL
    Keyword: BASIS
    atoms 1, 5, 8, 11, 14, 18-19, 23, 27, 31                       entry C          line    90 file /home/liuchw/anaconda3/envs/psi4env/share/psi4/basis/def2-svp.gbs 
    atoms 2-4, 6-7, 9-10, 12-13, 15-17, 20-22, 24-26, 28-30, 32-34 entry H          line    15 file /home/liuchw/anaconda3/envs/psi4env/share/psi4/basis/def2-svp.gbs 


       N-Body: Complex Energy (fragments = (1, 2), basis = (1, 2):  -395.18196703856034)

   ==> N-Body: Counterpoise Corrected (CP) energies <==

   n-Body     Total Energy [Eh]       I.E. [kcal/mol]      Delta [kcal/mol]
        1     -395.178439863731        0.000000000000        0.000000000000
        2     -395.182628265854       -2.628262011971       -2.628262011971

   => Loading Basis Set <=

    Name: DEF2-SVP
    Role: ORBITAL
    Keyword: BASIS
    atoms 1, 5, 8, 11, 14, 18-19, 23, 27, 31                       entry C          line    90 file /home/liuchw/anaconda3/envs/psi4env/share/psi4/basis/def2-svp.gbs 
    atoms 2-4, 6-7, 9-10, 12-13, 15-17, 20-22, 24-26, 28-30, 32-34 entry H          line    15 file /home/liuchw/anaconda3/envs/psi4env/share/psi4/basis/def2-svp.gbs 


    Psi4 stopped on: Sunday, 12 April 2020 12:46AM
    Psi4 wall time for execution: 1:01:55.00

*** Psi4 exiting successfully. Buy a developer a beer!
