
    -----------------------------------------------------------------------
          Psi4: An Open-Source Ab Initio Electronic Structure Package
                               Psi4 1.4a2.dev224 

                         Git: Rev {master} e453b16 


    R. M. Parrish, L. A. Burns, D. G. A. Smith, A. C. Simmonett,
    A. E. DePrince III, E. G. Hohenstein, U. Bozkaya, A. Yu. Sokolov,
    R. Di Remigio, R. M. Richard, J. F. Gonthier, A. M. James,
    H. R. McAlexander, A. Kumar, M. Saitow, X. Wang, B. P. Pritchard,
    P. Verma, H. F. Schaefer III, K. Patkowski, R. A. King, E. F. Valeev,
    F. A. Evangelista, J. M. Turney, T. D. Crawford, and C. D. Sherrill,
    J. Chem. Theory Comput. 13(7) pp 3185--3197 (2017).
    (doi: 10.1021/acs.jctc.7b00174)


                         Additional Contributions by
    P. Kraus, H. Kruse, M. H. Lechner, M. C. Schieber, R. A. Shaw,
    A. Alenaizan, R. Galvelis, Z. L. Glick, S. Lehtola, and J. P. Misiewicz

    -----------------------------------------------------------------------


    Psi4 started on: Sunday, 26 June 2011 06:48AM

    Process ID: 23877
    Host:       node142.bme.utexas.edu
    PSIDATADIR: /home/liuchw/anaconda3/envs/psi4env/share/psi4
    Memory:     500.0 MiB
    Threads:    8
    
  ==> Input File <==

--------------------------------------------------------------------------
#Generated by lconvert.py for cbs job

memory 40 GB

molecule  {
0 1
  C        0.3825220    -0.0706070     0.7668960
  C       -1.0406390     0.3968110     1.0609360
  H       -1.7715750    -0.2815000     0.6183300
  H       -1.2247180     0.4357350     2.1355190
  H       -1.2140660     1.3937240     0.6530910
  C        0.5908470    -1.4668180     1.3479780
  H        1.6029140    -1.8229500     1.1501030
  H        0.4389690    -1.4667460     2.4282870
  H       -0.1099190    -2.1786840     0.9093140
  C        1.3782690     0.8984350     1.3991490
  H        2.4043940     0.5854410     1.2007340
  H        1.2437810     0.9459740     2.4807100
  H        1.2483730     1.9050230     0.9989510
  C        0.6019610    -0.1110340    -0.7430970
  H        0.4592120     0.8770390    -1.1828980
  H        1.6136940    -0.4434590    -0.9796720
  H       -0.0995310    -0.7975500    -1.2192210
--
0 1
  C       -0.2854300     0.0527630     5.3515040
  C        1.1373820    -0.4162030     5.0581040
  H        1.3218220    -0.4555320     3.9835840
  H        1.8688170     0.2614700     5.5008400
  H        1.3096460    -1.4132090     5.4662250
  C       -0.4918270     1.4493250     4.7706740
  H       -1.5037900     1.8063100     4.9675210
  H        0.2090920     2.1603960     5.2103950
  H       -0.3387180     1.4495210     3.6905310
  C       -0.5057250     0.0929400     6.8613580
  H       -1.5169410     0.4272170     7.0974310
  H        0.1967880     0.7778890     7.3381960
  H       -0.3651610    -0.8955810     7.3008090
  C       -1.2818930    -0.9150140     4.7183580
  H       -1.1529670    -1.9219900     5.1179370
  H       -2.3077820    -0.6012410     4.9167450
  H       -1.1471880    -0.9619890     3.6367810
units angstrom
no_reorient
symmetry c1
}

set {
scf_type DF
mp2_type DF
e_convergence 7
reference rhf
}

energy('mp2/aug-cc-pv[tq]z', bsse_type='cp')
--------------------------------------------------------------------------

  Memory set to  37.253 GiB by Python driver.

Scratch directory: /scratch//


   ===> N-Body Interaction Abacus <===
        BSSE Treatment:                     cp
        Number of 1-body computations:     4
        Number of 2-body computations:     1

   ==> N-Body: Now computing 1-body complexes <==


       N-Body: Computing complex (1/4) with fragments (2,) in the basis of fragments (2,).


Scratch directory: /scratch//

  //>>>>>>>>>>>>>>>>>>>>>>>>>>>>>>>>>>>//
  //   CBS Setup: mp2/aug-cc-pv[tq]z   //
  //<<<<<<<<<<<<<<<<<<<<<<<<<<<<<<<<<<<//

    Naive listing of computations required.
             hf / aug-cc-pvqz              for  HF TOTAL ENERGY
            mp2 / aug-cc-pvtz              for  MP2 TOTAL ENERGY
            mp2 / aug-cc-pvqz              for  MP2 TOTAL ENERGY
             hf / aug-cc-pvtz              for  HF TOTAL ENERGY
             hf / aug-cc-pvqz              for  HF TOTAL ENERGY

    Enlightened listing of computations required.
            mp2 / aug-cc-pvtz              for  MP2 TOTAL ENERGY
            mp2 / aug-cc-pvqz              for  MP2 TOTAL ENERGY

    Full listing of computations to be obtained (required and bonus).
             hf / aug-cc-pvtz              for  HF TOTAL ENERGY
            mp2 / aug-cc-pvtz              for  MP2 TOTAL ENERGY
             hf / aug-cc-pvqz              for  HF TOTAL ENERGY
            mp2 / aug-cc-pvqz              for  MP2 TOTAL ENERGY

  //>>>>>>>>>>>>>>>>>>>>>>>>>>>>>>>>>>>>//
  // CBS Computation: MP2 / AUG-CC-PVTZ //
  //<<<<<<<<<<<<<<<<<<<<<<<<<<<<<<<<<<<<//


Scratch directory: /scratch//

*** tstart() called on node142.bme.utexas.edu
*** at Sun Jun 26 06:48:52 2011

   => Loading Basis Set <=

    Name: AUG-CC-PVTZ
    Role: ORBITAL
    Keyword: BASIS
    atoms 1-2, 6, 10, 14         entry C          line   239 file /home/liuchw/anaconda3/envs/psi4env/share/psi4/basis/aug-cc-pvtz.gbs 
    atoms 3-5, 7-9, 11-13, 15-17 entry H          line    40 file /home/liuchw/anaconda3/envs/psi4env/share/psi4/basis/aug-cc-pvtz.gbs 


         ---------------------------------------------------------
                                   SCF
               by Justin Turney, Rob Parrish, Andy Simmonett
                          and Daniel G. A. Smith
                              RHF Reference
                        8 Threads,  38146 MiB Core
         ---------------------------------------------------------

  ==> Geometry <==

    Molecular point group: c1
    Full point group: C1

    Geometry (in Angstrom), charge = 0, multiplicity = 1:

       Center              X                  Y                   Z               Mass       
    ------------   -----------------  -----------------  -----------------  -----------------
         C           -0.333976876140     0.061704089086     2.292319544717    12.000000000000
         C            1.088835123860    -0.407261910914     1.998919544717    12.000000000000
         H            1.273275123860    -0.446590910914     0.924399544717     1.007825032230
         H            1.820270123860     0.270411089086     2.441655544717     1.007825032230
         H            1.261099123860    -1.404267910914     2.407040544717     1.007825032230
         C           -0.540373876140     1.458266089086     1.711489544717    12.000000000000
         H           -1.552336876140     1.815251089086     1.908336544717     1.007825032230
         H            0.160545123860     2.169337089086     2.151210544717     1.007825032230
         H           -0.387264876140     1.458462089086     0.631346544717     1.007825032230
         C           -0.554271876140     0.101881089086     3.802173544717    12.000000000000
         H           -1.565487876140     0.436158089086     4.038246544717     1.007825032230
         H            0.148241123860     0.786830089086     4.279011544717     1.007825032230
         H           -0.413707876140    -0.886639910914     4.241624544717     1.007825032230
         C           -1.330439876140    -0.906072910914     1.659173544717    12.000000000000
         H           -1.201513876140    -1.913048910914     2.058752544717     1.007825032230
         H           -2.356328876140    -0.592299910914     1.857560544717     1.007825032230
         H           -1.195734876140    -0.953047910914     0.577596544717     1.007825032230

  Running in c1 symmetry.

  Rotational constants: A =      0.14974  B =      0.03373  C =      0.03373 [cm^-1]
  Rotational constants: A =   4488.94357  B =   1011.10863  C =   1011.10697 [MHz]
  Nuclear repulsion =  199.354958191630033

  Charge       = 0
  Multiplicity = 1
  Electrons    = 42
  Nalpha       = 21
  Nbeta        = 21

  ==> Algorithm <==

  SCF Algorithm Type is DF.
  DIIS enabled.
  MOM disabled.
  Fractional occupation disabled.
  Guess Type is SAD.
  Energy threshold   = 1.00e-07
  Density threshold  = 1.00e-08
  Integral threshold = 0.00e+00

  ==> Primary Basis <==

  Basis Set: AUG-CC-PVTZ
    Blend: AUG-CC-PVTZ
    Number of shells: 178
    Number of basis function: 506
    Number of Cartesian functions: 575
    Spherical Harmonics?: true
    Max angular momentum: 3

   => Loading Basis Set <=

    Name: (AUG-CC-PVTZ AUX)
    Role: JKFIT
    Keyword: DF_BASIS_SCF
    atoms 1-2, 6, 10, 14         entry C          line   162 file /home/liuchw/anaconda3/envs/psi4env/share/psi4/basis/aug-cc-pvtz-jkfit.gbs 
    atoms 3-5, 7-9, 11-13, 15-17 entry H          line    70 file /home/liuchw/anaconda3/envs/psi4env/share/psi4/basis/aug-cc-pvtz-jkfit.gbs 

  ==> Pre-Iterations <==

   -------------------------------------------------------
    Irrep   Nso     Nmo     Nalpha   Nbeta   Ndocc  Nsocc
   -------------------------------------------------------
     A        506     506       0       0       0       0
   -------------------------------------------------------
    Total     506     506      21      21      21       0
   -------------------------------------------------------

  ==> Integral Setup <==

  DFHelper Memory: AOs need 2.105 GiB; user supplied 27.940 GiB. Using in-core AOs.

  ==> MemDFJK: Density-Fitted J/K Matrices <==

    J tasked:                   Yes
    K tasked:                   Yes
    wK tasked:                   No
    OpenMP threads:               8
    Memory [MiB]:             28610
    Algorithm:                 Core
    Schwarz Cutoff:           1E-12
    Mask sparsity (%):       0.7624
    Fitting Condition:        1E-10

   => Auxiliary Basis Set <=

  Basis Set: (AUG-CC-PVTZ AUX)
    Blend: AUG-CC-PVTZ-JKFIT
    Number of shells: 318
    Number of basis function: 1072
    Number of Cartesian functions: 1315
    Spherical Harmonics?: true
    Max angular momentum: 4

  Minimum eigenvalue in the overlap matrix is 2.7892373749E-06.
  Using Symmetric Orthogonalization.

  SCF Guess: Superposition of Atomic Densities via on-the-fly atomic UHF.

  ==> Iterations <==

                           Total Energy        Delta E     RMS |[F,P]|

   @DF-RHF iter SAD:  -196.10161554635556   -1.96102e+02   0.00000e+00 
   @DF-RHF iter   1:  -196.10509239284178   -3.47685e-03   1.37198e-03 DIIS
   @DF-RHF iter   2:  -196.33647716392042   -2.31385e-01   6.96201e-04 DIIS
   @DF-RHF iter   3:  -196.40078075548612   -6.43036e-02   1.28635e-04 DIIS
   @DF-RHF iter   4:  -196.40425192091422   -3.47117e-03   4.17498e-05 DIIS
   @DF-RHF iter   5:  -196.40455179078143   -2.99870e-04   5.65146e-06 DIIS
   @DF-RHF iter   6:  -196.40455984659107   -8.05581e-06   6.39069e-07 DIIS
   @DF-RHF iter   7:  -196.40455998977546   -1.43184e-07   1.19464e-07 DIIS
   @DF-RHF iter   8:  -196.40455999413723   -4.36177e-09   1.58353e-08 DIIS
   @DF-RHF iter   9:  -196.40455999420061   -6.33804e-11   1.38444e-09 DIIS
  Energy and wave function converged.


  ==> Post-Iterations <==

    Orbital Energies [Eh]
    ---------------------

    Doubly Occupied:                                                      

       1A    -11.226889     2A    -11.205598     3A    -11.205597  
       4A    -11.205576     5A    -11.205533     6A     -1.106495  
       7A     -0.928762     8A     -0.928758     9A     -0.928669  
      10A     -0.730025    11A     -0.611911    12A     -0.611909  
      13A     -0.611482    14A     -0.552816    15A     -0.552812  
      16A     -0.509279    17A     -0.509165    18A     -0.509161  
      19A     -0.452509    20A     -0.452502    21A     -0.452411  

    Virtual:                                                              

      22A      0.030187    23A      0.038394    24A      0.038394  
      25A      0.038399    26A      0.059242    27A      0.059242  
      28A      0.059275    29A      0.059275    30A      0.059287  
      31A      0.079637    32A      0.079637    33A      0.079644  
      34A      0.105686    35A      0.121217    36A      0.121218  
      37A      0.121224    38A      0.136753    39A      0.137188  
      40A      0.137192    41A      0.137192    42A      0.157918  
      43A      0.157918    44A      0.163613    45A      0.163641  
      46A      0.163643    47A      0.185415    48A      0.185456  
      49A      0.185456    50A      0.190956    51A      0.190958  
      52A      0.191034    53A      0.211572    54A      0.256690  
      55A      0.256691    56A      0.273077    57A      0.273078  
      58A      0.273122    59A      0.279867    60A      0.279910  
      61A      0.279911    62A      0.325714    63A      0.325715  
      64A      0.325778    65A      0.329963    66A      0.351452  
      67A      0.351453    68A      0.356906    69A      0.357036  
      70A      0.357037    71A      0.383641    72A      0.384996  
      73A      0.385006    74A      0.385006    75A      0.388573  
      76A      0.388575    77A      0.388638    78A      0.397476  
      79A      0.397477    80A      0.397541    81A      0.403836  
      82A      0.403839    83A      0.420957    84A      0.421081  
      85A      0.421082    86A      0.427837    87A      0.435486  
      88A      0.435487    89A      0.450488    90A      0.450489  
      91A      0.450555    92A      0.501991    93A      0.501993  
      94A      0.502086    95A      0.510310    96A      0.510385  
      97A      0.510389    98A      0.511692    99A      0.514158  
     100A      0.514255   101A      0.514255   102A      0.518057  
     103A      0.521288   104A      0.521416   105A      0.521419  
     106A      0.556395   107A      0.556397   108A      0.556507  
     109A      0.575291   110A      0.575292   111A      0.600317  
     112A      0.600319   113A      0.600353   114A      0.604600  
     115A      0.641145   116A      0.641173   117A      0.641175  
     118A      0.652181   119A      0.652182   120A      0.652512  
     121A      0.654018   122A      0.654119   123A      0.654120  
     124A      0.661944   125A      0.661946   126A      0.726703  
     127A      0.726705   128A      0.754642   129A      0.755035  
     130A      0.755039   131A      0.794611   132A      0.794613  
     133A      0.794724   134A      0.810124   135A      0.810228  
     136A      0.810232   137A      0.837106   138A      0.837107  
     139A      0.837470   140A      0.839938   141A      0.839942  
     142A      0.846630   143A      0.867282   144A      0.888640  
     145A      0.888724   146A      0.888725   147A      0.894637  
     148A      0.894641   149A      0.895195   150A      0.902595  
     151A      0.902595   152A      0.924860   153A      0.953269  
     154A      0.953271   155A      0.953328   156A      0.994299  
     157A      1.007362   158A      1.007539   159A      1.007543  
     160A      1.012818   161A      1.018769   162A      1.018898  
     163A      1.018902   164A      1.021264   165A      1.021266  
     166A      1.021708   167A      1.043649   168A      1.043660  
     169A      1.043860   170A      1.074069   171A      1.074076  
     172A      1.074077   173A      1.085126   174A      1.085130  
     175A      1.160841   176A      1.160843   177A      1.160872  
     178A      1.181505   179A      1.181508   180A      1.181817  
     181A      1.213591   182A      1.213605   183A      1.215552  
     184A      1.215938   185A      1.215941   186A      1.228799  
     187A      1.228802   188A      1.229371   189A      1.238580  
     190A      1.238588   191A      1.255370   192A      1.279098  
     193A      1.279103   194A      1.279141   195A      1.289209  
     196A      1.289211   197A      1.289380   198A      1.393867  
     199A      1.393870   200A      1.394119   201A      1.396080  
     202A      1.396085   203A      1.409457   204A      1.409490  
     205A      1.409494   206A      1.422252   207A      1.422846  
     208A      1.422858   209A      1.455099   210A      1.455106  
     211A      1.506110   212A      1.506600   213A      1.506602  
     214A      1.516053   215A      1.535000   216A      1.544840  
     217A      1.544864   218A      1.544868   219A      1.554662  
     220A      1.554666   221A      1.577631   222A      1.577638  
     223A      1.577833   224A      1.610987   225A      1.610990  
     226A      1.611199   227A      1.623943   228A      1.664194  
     229A      1.664200   230A      1.664223   231A      1.666735  
     232A      1.681519   233A      1.681888   234A      1.681889  
     235A      1.702116   236A      1.702122   237A      1.702560  
     238A      1.744171   239A      1.744177   240A      1.777563  
     241A      1.777594   242A      1.777602   243A      1.781527  
     244A      1.789870   245A      1.789903   246A      1.789904  
     247A      1.800995   248A      1.832240   249A      1.832244  
     250A      1.832469   251A      1.837208   252A      1.837238  
     253A      1.880851   254A      1.880855   255A      1.881202  
     256A      1.926388   257A      1.926939   258A      1.926942  
     259A      1.931447   260A      1.931579   261A      1.931593  
     262A      1.983581   263A      2.007937   264A      2.007942  
     265A      2.073062   266A      2.074169   267A      2.074174  
     268A      2.099829   269A      2.099831   270A      2.100401  
     271A      2.100629   272A      2.100641   273A      2.100845  
     274A      2.112850   275A      2.112865   276A      2.171987  
     277A      2.176244   278A      2.176247   279A      2.176526  
     280A      2.220035   281A      2.220855   282A      2.220859  
     283A      2.241675   284A      2.241684   285A      2.241794  
     286A      2.264877   287A      2.265290   288A      2.265303  
     289A      2.295700   290A      2.295704   291A      2.346168  
     292A      2.346172   293A      2.346331   294A      2.379981  
     295A      2.379986   296A      2.452753   297A      2.453203  
     298A      2.453209   299A      2.483518   300A      2.483525  
     301A      2.484453   302A      2.497731   303A      2.498311  
     304A      2.498321   305A      2.554997   306A      2.555002  
     307A      2.578554   308A      2.578562   309A      2.578600  
     310A      2.745633   311A      2.753333   312A      2.753356  
     313A      2.753477   314A      2.755826   315A      3.015435  
     316A      3.015444   317A      3.016488   318A      3.124464  
     319A      3.293401   320A      3.294221   321A      3.294229  
     322A      3.397611   323A      3.397622   324A      3.485096  
     325A      3.514404   326A      3.515288   327A      3.515295  
     328A      3.531165   329A      3.531179   330A      3.531532  
     331A      3.561617   332A      3.561665   333A      3.561671  
     334A      3.623135   335A      3.639664   336A      3.639898  
     337A      3.639902   338A      3.759241   339A      3.760661  
     340A      3.760667   341A      3.798383   342A      3.798589  
     343A      3.798591   344A      3.803895   345A      3.803901  
     346A      3.823873   347A      3.833579   348A      3.833585  
     349A      3.848537   350A      3.849193   351A      3.849201  
     352A      3.861755   353A      3.861765   354A      3.862524  
     355A      3.866410   356A      3.924352   357A      3.924465  
     358A      3.924473   359A      3.944049   360A      3.944858  
     361A      3.944861   362A      4.002613   363A      4.002618  
     364A      4.044453   365A      4.044885   366A      4.044898  
     367A      4.074241   368A      4.074243   369A      4.074789  
     370A      4.089188   371A      4.090608   372A      4.090616  
     373A      4.134917   374A      4.134921   375A      4.135702  
     376A      4.174905   377A      4.174915   378A      4.217935  
     379A      4.218128   380A      4.218142   381A      4.251395  
     382A      4.282478   383A      4.282484   384A      4.288319  
     385A      4.288324   386A      4.288433   387A      4.302965  
     388A      4.303091   389A      4.303099   390A      4.314337  
     391A      4.314338   392A      4.369243   393A      4.369246  
     394A      4.369629   395A      4.509571   396A      4.512802  
     397A      4.524467   398A      4.525334   399A      4.525353  
     400A      4.531372   401A      4.531523   402A      4.531532  
     403A      4.569538   404A      4.569558   405A      4.657697  
     406A      4.658272   407A      4.658281   408A      4.693864  
     409A      4.694450   410A      4.694458   411A      4.694797  
     412A      4.829565   413A      4.830141   414A      4.830144  
     415A      4.836686   416A      4.837323   417A      4.837341  
     418A      4.909411   419A      4.909424   420A      4.912599  
     421A      4.912626   422A      4.913288   423A      4.944451  
     424A      4.944459   425A      4.944710   426A      4.990558  
     427A      4.990565   428A      5.012190   429A      5.012725  
     430A      5.012730   431A      5.073782   432A      5.113649  
     433A      5.114271   434A      5.114289   435A      5.182374  
     436A      5.182379   437A      5.182640   438A      5.230685  
     439A      5.295669   440A      5.295683   441A      5.304087  
     442A      5.304095   443A      5.304500   444A      5.364489  
     445A      5.365479   446A      5.365489   447A      5.374231  
     448A      5.374540   449A      5.374548   450A      5.455751  
     451A      5.455773   452A      5.455777   453A      5.462714  
     454A      5.462725   455A      5.534255   456A      5.534288  
     457A      5.534570   458A      5.543141   459A      5.543458  
     460A      5.543463   461A      5.587541   462A      5.588151  
     463A      5.703364   464A      5.704461   465A      5.704472  
     466A      5.785183   467A      5.785197   468A      5.787191  
     469A      5.796844   470A      5.845373   471A      5.845378  
     472A      5.897964   473A      5.897985   474A      5.899078  
     475A      5.955099   476A      5.955893   477A      5.955908  
     478A      6.099232   479A      6.099243   480A      6.099653  
     481A      6.140860   482A      6.166918   483A      6.166931  
     484A      6.224366   485A      6.224372   486A      6.224604  
     487A      6.400708   488A      6.400718   489A      6.401076  
     490A      6.403094   491A      6.403099   492A      6.404968  
     493A      6.443528   494A      6.839550   495A      6.839568  
     496A      6.963457   497A      6.963469   498A      6.964899  
     499A      7.021415   500A      7.021849   501A      7.021855  
     502A     17.578551   503A     18.666862   504A     18.666943  
     505A     18.671228   506A     20.308529  

    Final Occupation by Irrep:
              A 
    DOCC [    21 ]

  @DF-RHF Final Energy:  -196.40455999420061

   => Energetics <=

    Nuclear Repulsion Energy =            199.3549581916300326
    One-Electron Energy =                -658.5233219710282810
    Two-Electron Energy =                 262.7638037851976378
    Total Energy =                       -196.4045599942006106

Computation Completed


Properties will be evaluated at   0.000000,   0.000000,   0.000000 [a0]

Properties computed using the SCF density matrix

  Nuclear Dipole Moment: [e a0]
     X:   -26.5134      Y:     4.8975      Z:   181.9830

  Electronic Dipole Moment: [e a0]
     X:    26.5135      Y:    -4.8975      Z:  -181.9834

  Dipole Moment: [e a0]
     X:     0.0001      Y:     0.0000      Z:    -0.0004     Total:     0.0004

  Dipole Moment: [D]
     X:     0.0002      Y:     0.0000      Z:    -0.0011     Total:     0.0011


*** tstop() called on node142.bme.utexas.edu at Sun Jun 26 06:49:11 2011
Module time:
	user time   =     116.53 seconds =       1.94 minutes
	system time =       3.30 seconds =       0.06 minutes
	total time  =         19 seconds =       0.32 minutes
Total time:
	user time   =     116.53 seconds =       1.94 minutes
	system time =       3.30 seconds =       0.06 minutes
	total time  =         19 seconds =       0.32 minutes

*** tstart() called on node142.bme.utexas.edu
*** at Sun Jun 26 06:49:11 2011


  //>>>>>>>>>>>>>>>>>>>>>>>>>>>>>>>>>>>//
  //               DFMP2               //
  //<<<<<<<<<<<<<<<<<<<<<<<<<<<<<<<<<<<//

   => Loading Basis Set <=

    Name: (AUG-CC-PVTZ AUX)
    Role: RIFIT
    Keyword: DF_BASIS_MP2
    atoms 1-2, 6, 10, 14         entry C          line   148 file /home/liuchw/anaconda3/envs/psi4env/share/psi4/basis/aug-cc-pvtz-ri.gbs 
    atoms 3-5, 7-9, 11-13, 15-17 entry H          line    30 file /home/liuchw/anaconda3/envs/psi4env/share/psi4/basis/aug-cc-pvtz-ri.gbs 

	 --------------------------------------------------------
	                          DF-MP2                         
	      2nd-Order Density-Fitted Moller-Plesset Theory     
	              RMP2 Wavefunction,   8 Threads             
	                                                         
	        Rob Parrish, Justin Turney, Andy Simmonett,      
	           Ed Hohenstein, and C. David Sherrill          
	 --------------------------------------------------------

   => Auxiliary Basis Set <=

  Basis Set: (AUG-CC-PVTZ AUX)
    Blend: AUG-CC-PVTZ-RI
    Number of shells: 308
    Number of basis function: 1082
    Number of Cartesian functions: 1340
    Spherical Harmonics?: true
    Max angular momentum: 4

	 --------------------------------------------------------
	                 NBF =   506, NAUX =  1082
	 --------------------------------------------------------
	   CLASS    FOCC     OCC    AOCC    AVIR     VIR    FVIR
	   PAIRS       0      21      21     485     485       0
	 --------------------------------------------------------

	-----------------------------------------------------------
	 ==================> DF-MP2 Energies <==================== 
	-----------------------------------------------------------
	 Reference Energy          =    -196.4045599942006106 [Eh]
	 Singles Energy            =      -0.0000000000000000 [Eh]
	 Same-Spin Energy          =      -0.2117373227733166 [Eh]
	 Opposite-Spin Energy      =      -0.7978209459682117 [Eh]
	 Correlation Energy        =      -1.0095582687415283 [Eh]
	 Total Energy              =    -197.4141182629421394 [Eh]
	-----------------------------------------------------------
	 ================> DF-SCS-MP2 Energies <================== 
	-----------------------------------------------------------
	 SCS Same-Spin Scale       =       0.3333333333333333 [-]
	 SCS Opposite-Spin Scale   =       1.2000000000000000 [-]
	 SCS Same-Spin Energy      =      -0.0705791075911055 [Eh]
	 SCS Opposite-Spin Energy  =      -0.9573851351618541 [Eh]
	 SCS Correlation Energy    =      -1.0279642427529596 [Eh]
	 SCS Total Energy          =    -197.4325242369535829 [Eh]
	-----------------------------------------------------------


*** tstop() called on node142.bme.utexas.edu at Sun Jun 26 06:49:19 2011
Module time:
	user time   =      49.65 seconds =       0.83 minutes
	system time =       1.68 seconds =       0.03 minutes
	total time  =          8 seconds =       0.13 minutes
Total time:
	user time   =     166.19 seconds =       2.77 minutes
	system time =       4.98 seconds =       0.08 minutes
	total time  =         27 seconds =       0.45 minutes

  //>>>>>>>>>>>>>>>>>>>>>>>>>>>>>>>>>>>>//
  // CBS Computation: MP2 / AUG-CC-PVQZ //
  //<<<<<<<<<<<<<<<<<<<<<<<<<<<<<<<<<<<<//


Scratch directory: /scratch//

*** tstart() called on node142.bme.utexas.edu
*** at Sun Jun 26 06:49:19 2011

   => Loading Basis Set <=

    Name: AUG-CC-PVQZ
    Role: ORBITAL
    Keyword: BASIS
    atoms 1-2, 6, 10, 14         entry C          line   303 file /home/liuchw/anaconda3/envs/psi4env/share/psi4/basis/aug-cc-pvqz.gbs 
    atoms 3-5, 7-9, 11-13, 15-17 entry H          line    40 file /home/liuchw/anaconda3/envs/psi4env/share/psi4/basis/aug-cc-pvqz.gbs 


         ---------------------------------------------------------
                                   SCF
               by Justin Turney, Rob Parrish, Andy Simmonett
                          and Daniel G. A. Smith
                              RHF Reference
                        8 Threads,  38146 MiB Core
         ---------------------------------------------------------

  ==> Geometry <==

    Molecular point group: c1
    Full point group: C1

    Geometry (in Angstrom), charge = 0, multiplicity = 1:

       Center              X                  Y                   Z               Mass       
    ------------   -----------------  -----------------  -----------------  -----------------
         C           -0.333976876140     0.061704089086     2.292319544717    12.000000000000
         C            1.088835123860    -0.407261910914     1.998919544717    12.000000000000
         H            1.273275123860    -0.446590910914     0.924399544717     1.007825032230
         H            1.820270123860     0.270411089086     2.441655544717     1.007825032230
         H            1.261099123860    -1.404267910914     2.407040544717     1.007825032230
         C           -0.540373876140     1.458266089086     1.711489544717    12.000000000000
         H           -1.552336876140     1.815251089086     1.908336544717     1.007825032230
         H            0.160545123860     2.169337089086     2.151210544717     1.007825032230
         H           -0.387264876140     1.458462089086     0.631346544717     1.007825032230
         C           -0.554271876140     0.101881089086     3.802173544717    12.000000000000
         H           -1.565487876140     0.436158089086     4.038246544717     1.007825032230
         H            0.148241123860     0.786830089086     4.279011544717     1.007825032230
         H           -0.413707876140    -0.886639910914     4.241624544717     1.007825032230
         C           -1.330439876140    -0.906072910914     1.659173544717    12.000000000000
         H           -1.201513876140    -1.913048910914     2.058752544717     1.007825032230
         H           -2.356328876140    -0.592299910914     1.857560544717     1.007825032230
         H           -1.195734876140    -0.953047910914     0.577596544717     1.007825032230

  Running in c1 symmetry.

  Rotational constants: A =      0.14974  B =      0.03373  C =      0.03373 [cm^-1]
  Rotational constants: A =   4488.94357  B =   1011.10863  C =   1011.10697 [MHz]
  Nuclear repulsion =  199.354958191630033

  Charge       = 0
  Multiplicity = 1
  Electrons    = 42
  Nalpha       = 21
  Nbeta        = 21

  ==> Algorithm <==

  SCF Algorithm Type is DF.
  DIIS enabled.
  MOM disabled.
  Fractional occupation disabled.
  Guess Type is SAD.
  Energy threshold   = 1.00e-07
  Density threshold  = 1.00e-08
  Integral threshold = 0.00e+00

  ==> Primary Basis <==

  Basis Set: AUG-CC-PVQZ
    Blend: AUG-CC-PVQZ
    Number of shells: 268
    Number of basis function: 952
    Number of Cartesian functions: 1185
    Spherical Harmonics?: true
    Max angular momentum: 4

   => Loading Basis Set <=

    Name: (AUG-CC-PVQZ AUX)
    Role: JKFIT
    Keyword: DF_BASIS_SCF
    atoms 1-2, 6, 10, 14         entry C          line   178 file /home/liuchw/anaconda3/envs/psi4env/share/psi4/basis/aug-cc-pvqz-jkfit.gbs 
    atoms 3-5, 7-9, 11-13, 15-17 entry H          line    70 file /home/liuchw/anaconda3/envs/psi4env/share/psi4/basis/aug-cc-pvqz-jkfit.gbs 

  ==> Pre-Iterations <==

   -------------------------------------------------------
    Irrep   Nso     Nmo     Nalpha   Nbeta   Ndocc  Nsocc
   -------------------------------------------------------
     A        952     952       0       0       0       0
   -------------------------------------------------------
    Total     952     952      21      21      21       0
   -------------------------------------------------------

  ==> Integral Setup <==

  DFHelper Memory: AOs need 10.937 GiB; user supplied 27.940 GiB. Using in-core AOs.

  ==> MemDFJK: Density-Fitted J/K Matrices <==

    J tasked:                   Yes
    K tasked:                   Yes
    wK tasked:                   No
    OpenMP threads:               8
    Memory [MiB]:             28610
    Algorithm:                 Core
    Schwarz Cutoff:           1E-12
    Mask sparsity (%):       2.8498
    Fitting Condition:        1E-10

   => Auxiliary Basis Set <=

  Basis Set: (AUG-CC-PVQZ AUX)
    Blend: AUG-CC-PVQZ-JKFIT
    Number of shells: 386
    Number of basis function: 1622
    Number of Cartesian functions: 2202
    Spherical Harmonics?: true
    Max angular momentum: 5

  Minimum eigenvalue in the overlap matrix is 6.5983672799E-07.
  Using Symmetric Orthogonalization.

  SCF Guess: Superposition of Atomic Densities via on-the-fly atomic UHF.

  ==> Iterations <==

                           Total Energy        Delta E     RMS |[F,P]|

   @DF-RHF iter SAD:  -196.11264714814160   -1.96113e+02   0.00000e+00 
   @DF-RHF iter   1:  -196.11658067872048   -3.93353e-03   7.29930e-04 DIIS
   @DF-RHF iter   2:  -196.34818715285812   -2.31606e-01   3.70928e-04 DIIS
   @DF-RHF iter   3:  -196.41260168075385   -6.44145e-02   6.87896e-05 DIIS
   @DF-RHF iter   4:  -196.41609569406444   -3.49401e-03   2.22971e-05 DIIS
   @DF-RHF iter   5:  -196.41639858400214   -3.02890e-04   3.05298e-06 DIIS
   @DF-RHF iter   6:  -196.41640680348101   -8.21948e-06   3.47650e-07 DIIS
   @DF-RHF iter   7:  -196.41640695239354   -1.48913e-07   6.48314e-08 DIIS
   @DF-RHF iter   8:  -196.41640695689557   -4.50203e-09   8.32433e-09 DIIS
  Energy and wave function converged.


  ==> Post-Iterations <==

    Orbital Energies [Eh]
    ---------------------

    Doubly Occupied:                                                      

       1A    -11.225712     2A    -11.204574     3A    -11.204573  
       4A    -11.204552     5A    -11.204508     6A     -1.106218  
       7A     -0.928635     8A     -0.928632     9A     -0.928542  
      10A     -0.729966    11A     -0.612045    12A     -0.612043  
      13A     -0.611616    14A     -0.552979    15A     -0.552974  
      16A     -0.509478    17A     -0.509364    18A     -0.509360  
      19A     -0.452632    20A     -0.452625    21A     -0.452534  

    Virtual:                                                              

      22A      0.026960    23A      0.033529    24A      0.033529  
      25A      0.033532    26A      0.053507    27A      0.053507  
      28A      0.053890    29A      0.053890    30A      0.053900  
      31A      0.072382    32A      0.072382    33A      0.072390  
      34A      0.093222    35A      0.106802    36A      0.106802  
      37A      0.106808    38A      0.116554    39A      0.116562  
      40A      0.116562    41A      0.119699    42A      0.137776  
      43A      0.137776    44A      0.143036    45A      0.143042  
      46A      0.143043    47A      0.160640    48A      0.160668  
      49A      0.160668    50A      0.166455    51A      0.166456  
      52A      0.166526    53A      0.186946    54A      0.224698  
      55A      0.224699    56A      0.232104    57A      0.232130  
      58A      0.232130    59A      0.239427    60A      0.239428  
      61A      0.239450    62A      0.269396    63A      0.269396  
      64A      0.269399    65A      0.270383    66A      0.297376  
      67A      0.297377    68A      0.305613    69A      0.305614  
      70A      0.305669    71A      0.319212    72A      0.319213  
      73A      0.319354    74A      0.321436    75A      0.323553  
      76A      0.323578    77A      0.323578    78A      0.327543  
      79A      0.327545    80A      0.338400    81A      0.338400  
      82A      0.338438    83A      0.350696    84A      0.353483  
      85A      0.353562    86A      0.353563    87A      0.366507  
      88A      0.366508    89A      0.366577    90A      0.379549  
      91A      0.379551    92A      0.418139    93A      0.418140  
      94A      0.418145    95A      0.425791    96A      0.428155  
      97A      0.428156    98A      0.428166    99A      0.431354  
     100A      0.436874   101A      0.437007   102A      0.437009  
     103A      0.445126   104A      0.445193   105A      0.445195  
     106A      0.457094   107A      0.457094   108A      0.462775  
     109A      0.462776   110A      0.462880   111A      0.490328  
     112A      0.490330   113A      0.490350   114A      0.502381  
     115A      0.502385   116A      0.502412   117A      0.514942  
     118A      0.524565   119A      0.524652   120A      0.524653  
     121A      0.530178   122A      0.530179   123A      0.549104  
     124A      0.549105   125A      0.549110   126A      0.560086  
     127A      0.560088   128A      0.564276   129A      0.564292  
     130A      0.564295   131A      0.618347   132A      0.618349  
     133A      0.618760   134A      0.635051   135A      0.635054  
     136A      0.635059   137A      0.651986   138A      0.651987  
     139A      0.678184   140A      0.682927   141A      0.683137  
     142A      0.683142   143A      0.690324   144A      0.694369  
     145A      0.694498   146A      0.694499   147A      0.702118  
     148A      0.702121   149A      0.716146   150A      0.716204  
     151A      0.716208   152A      0.741781   153A      0.741895  
     154A      0.741897   155A      0.746501   156A      0.746819  
     157A      0.746824   158A      0.769726   159A      0.771722  
     160A      0.771963   161A      0.771966   162A      0.792962  
     163A      0.792964   164A      0.793054   165A      0.803062  
     166A      0.803063   167A      0.805183   168A      0.832442  
     169A      0.832444   170A      0.832522   171A      0.839068  
     172A      0.845497   173A      0.845576   174A      0.845579  
     175A      0.894397   176A      0.894436   177A      0.894440  
     178A      0.914019   179A      0.914020   180A      0.939394  
     181A      0.939397   182A      0.939820   183A      0.949423  
     184A      0.949812   185A      0.949815   186A      0.961906  
     187A      0.961910   188A      0.962100   189A      0.992144  
     190A      0.992146   191A      0.992305   192A      0.995791  
     193A      0.995797   194A      0.996052   195A      0.996056  
     196A      0.996228   197A      1.017473   198A      1.045512  
     199A      1.053577   200A      1.053810   201A      1.053811  
     202A      1.061888   203A      1.061892   204A      1.100676  
     205A      1.100678   206A      1.100747   207A      1.113926  
     208A      1.113928   209A      1.131377   210A      1.131865  
     211A      1.131866   212A      1.141770   213A      1.141990  
     214A      1.141995   215A      1.153390   216A      1.154084  
     217A      1.154226   218A      1.154230   219A      1.171006  
     220A      1.171014   221A      1.183054   222A      1.183203  
     223A      1.183203   224A      1.205991   225A      1.206378  
     226A      1.206610   227A      1.206613   228A      1.214769  
     229A      1.214774   230A      1.214938   231A      1.234880  
     232A      1.244632   233A      1.244634   234A      1.244775  
     235A      1.263089   236A      1.263090   237A      1.263914  
     238A      1.263918   239A      1.264210   240A      1.289402  
     241A      1.289405   242A      1.289542   243A      1.291066  
     244A      1.322089   245A      1.322526   246A      1.322528  
     247A      1.326715   248A      1.326717   249A      1.329416  
     250A      1.329421   251A      1.329905   252A      1.377606  
     253A      1.377704   254A      1.377706   255A      1.392842  
     256A      1.429708   257A      1.440774   258A      1.440781  
     259A      1.441086   260A      1.458081   261A      1.458476  
     262A      1.458482   263A      1.486014   264A      1.486016  
     265A      1.507957   266A      1.507959   267A      1.508015  
     268A      1.527311   269A      1.527313   270A      1.527382  
     271A      1.592628   272A      1.592632   273A      1.592755  
     274A      1.593772   275A      1.593773   276A      1.602443  
     277A      1.626714   278A      1.626717   279A      1.627269  
     280A      1.629793   281A      1.629797   282A      1.630994  
     283A      1.631057   284A      1.631058   285A      1.697019  
     286A      1.697297   287A      1.697303   288A      1.714684  
     289A      1.714698   290A      1.714711   291A      1.725972  
     292A      1.725976   293A      1.726009   294A      1.771734  
     295A      1.798659   296A      1.799005   297A      1.799011  
     298A      1.801759   299A      1.801764   300A      1.805552  
     301A      1.805555   302A      1.805671   303A      1.815014  
     304A      1.815016   305A      1.815378   306A      1.868635  
     307A      1.868640   308A      1.905566   309A      1.908155  
     310A      1.908180   311A      1.909621   312A      1.909981  
     313A      1.909985   314A      1.923038   315A      1.923455  
     316A      1.923462   317A      1.928813   318A      1.928819  
     319A      1.929131   320A      2.020197   321A      2.037725  
     322A      2.037907   323A      2.037916   324A      2.041138  
     325A      2.041146   326A      2.041225   327A      2.055495  
     328A      2.055783   329A      2.055786   330A      2.057680  
     331A      2.057687   332A      2.084696   333A      2.085748  
     334A      2.085752   335A      2.088668   336A      2.120576  
     337A      2.120578   338A      2.137613   339A      2.137615  
     340A      2.138831   341A      2.159313   342A      2.159503  
     343A      2.159508   344A      2.168702   345A      2.168706  
     346A      2.169281   347A      2.169301   348A      2.204866  
     349A      2.205671   350A      2.205677   351A      2.209629  
     352A      2.215230   353A      2.215237   354A      2.215416  
     355A      2.246626   356A      2.278639   357A      2.278643  
     358A      2.285876   359A      2.285888   360A      2.285998  
     361A      2.304151   362A      2.304680   363A      2.304688  
     364A      2.321043   365A      2.321062   366A      2.321062  
     367A      2.334206   368A      2.334211   369A      2.352120  
     370A      2.352320   371A      2.352322   372A      2.365930  
     373A      2.385617   374A      2.385626   375A      2.385628  
     376A      2.415545   377A      2.415552   378A      2.416786  
     379A      2.430228   380A      2.430535   381A      2.430538  
     382A      2.437222   383A      2.448471   384A      2.448478  
     385A      2.448695   386A      2.490610   387A      2.490621  
     388A      2.501204   389A      2.501882   390A      2.501889  
     391A      2.511969   392A      2.511976   393A      2.512506  
     394A      2.523788   395A      2.534734   396A      2.535285  
     397A      2.535289   398A      2.539642   399A      2.539649  
     400A      2.582015   401A      2.582892   402A      2.582899  
     403A      2.597313   404A      2.641206   405A      2.641920  
     406A      2.641923   407A      2.662662   408A      2.662767  
     409A      2.662773   410A      2.669777   411A      2.669806  
     412A      2.690802   413A      2.690811   414A      2.690910  
     415A      2.704619   416A      2.704624   417A      2.705032  
     418A      2.765849   419A      2.765858   420A      2.766006  
     421A      2.790027   422A      2.790036   423A      2.829193  
     424A      2.858238   425A      2.858244   426A      2.859508  
     427A      2.887703   428A      2.887713   429A      2.900937  
     430A      2.901901   431A      2.901910   432A      2.902848  
     433A      2.904230   434A      2.904237   435A      2.947749  
     436A      2.947753   437A      2.948552   438A      2.958810  
     439A      2.958818   440A      3.000806   441A      3.012392  
     442A      3.026707   443A      3.026714   444A      3.027212  
     445A      3.046126   446A      3.046131   447A      3.046993  
     448A      3.068922   449A      3.068932   450A      3.069116  
     451A      3.100737   452A      3.115165   453A      3.116579  
     454A      3.116605   455A      3.135617   456A      3.135636  
     457A      3.136833   458A      3.137443   459A      3.137446  
     460A      3.175449   461A      3.175455   462A      3.186879  
     463A      3.205584   464A      3.205590   465A      3.206132  
     466A      3.216435   467A      3.216443   468A      3.216751  
     469A      3.221033   470A      3.221995   471A      3.222004  
     472A      3.270662   473A      3.270668   474A      3.288508  
     475A      3.288510   476A      3.288924   477A      3.302002  
     478A      3.302015   479A      3.302322   480A      3.336976  
     481A      3.408414   482A      3.420934   483A      3.421660  
     484A      3.421665   485A      3.422139   486A      3.458467  
     487A      3.458482   488A      3.459395   489A      3.467912  
     490A      3.467919   491A      3.521623   492A      3.521647  
     493A      3.521650   494A      3.530109   495A      3.530227  
     496A      3.530235   497A      3.551683   498A      3.552339  
     499A      3.552350   500A      3.593195   501A      3.593201  
     502A      3.601223   503A      3.601957   504A      3.601970  
     505A      3.653788   506A      3.653799   507A      3.653816  
     508A      3.724692   509A      3.724698   510A      3.745614  
     511A      3.746240   512A      3.746256   513A      3.772689  
     514A      3.772701   515A      3.773128   516A      3.786547  
     517A      3.786553   518A      3.787893   519A      3.831479  
     520A      3.831491   521A      3.832150   522A      3.838438  
     523A      3.864976   524A      3.892642   525A      3.895664  
     526A      3.895672   527A      3.933573   528A      3.942404  
     529A      3.943650   530A      3.943654   531A      3.993212  
     532A      3.993676   533A      3.993684   534A      4.037711  
     535A      4.037718   536A      4.074278   537A      4.074975  
     538A      4.074986   539A      4.096568   540A      4.096726  
     541A      4.096732   542A      4.103684   543A      4.103692  
     544A      4.126978   545A      4.127530   546A      4.127534  
     547A      4.171599   548A      4.171609   549A      4.172610  
     550A      4.172814   551A      4.210310   552A      4.243013  
     553A      4.243482   554A      4.243497   555A      4.255623  
     556A      4.255939   557A      4.255944   558A      4.258055  
     559A      4.258061   560A      4.309928   561A      4.310576  
     562A      4.310602   563A      4.400500   564A      4.401347  
     565A      4.401364   566A      4.465116   567A      4.465124  
     568A      4.465612   569A      4.491988   570A      4.491999  
     571A      4.494948   572A      4.494969   573A      4.496175  
     574A      4.502788   575A      4.512547   576A      4.517180  
     577A      4.517905   578A      4.517913   579A      4.533652  
     580A      4.533661   581A      4.559069   582A      4.559095  
     583A      4.559833   584A      4.586001   585A      4.586288  
     586A      4.586291   587A      4.637904   588A      4.637918  
     589A      4.695146   590A      4.695168   591A      4.695235  
     592A      4.733024   593A      4.733035   594A      4.733533  
     595A      4.734954   596A      4.758738   597A      4.758788  
     598A      4.758796   599A      4.860939   600A      4.864536  
     601A      4.865202   602A      4.865213   603A      4.883264  
     604A      4.883282   605A      4.908431   606A      4.908443  
     607A      4.908885   608A      4.948862   609A      4.948868  
     610A      4.997124   611A      4.997152   612A      4.997702  
     613A      5.074459   614A      5.104381   615A      5.104708  
     616A      5.104713   617A      5.190642   618A      5.206884  
     619A      5.207551   620A      5.207570   621A      5.248883  
     622A      5.248902   623A      5.249944   624A      5.346355  
     625A      5.346362   626A      5.348952   627A      5.348958  
     628A      5.349329   629A      5.480765   630A      5.480774  
     631A      5.482220   632A      5.549211   633A      5.549667  
     634A      5.549679   635A      5.600398   636A      6.295165  
     637A      6.295172   638A      6.295352   639A      6.313096  
     640A      6.313142   641A      6.313157   642A      6.413411  
     643A      6.413422   644A      6.440867   645A      6.495883  
     646A      6.496125   647A      6.496140   648A      6.511458  
     649A      6.511588   650A      6.511594   651A      6.516880  
     652A      6.569545   653A      6.569554   654A      6.569872  
     655A      6.603156   656A      6.603163   657A      6.714957  
     658A      6.716068   659A      6.716090   660A      6.784649  
     661A      6.784662   662A      6.785775   663A      6.846482  
     664A      6.846488   665A      6.851841   666A      6.860593  
     667A      6.860908   668A      6.860919   669A      6.934050  
     670A      6.934199   671A      6.934211   672A      6.938218  
     673A      6.938255   674A      6.950255   675A      6.950437  
     676A      6.950441   677A      6.969185   678A      6.969648  
     679A      6.969668   680A      7.028423   681A      7.028450  
     682A      7.028461   683A      7.055123   684A      7.059600  
     685A      7.059618   686A      7.060258   687A      7.103893  
     688A      7.104886   689A      7.104892   690A      7.123162  
     691A      7.133765   692A      7.133773   693A      7.162870  
     694A      7.162876   695A      7.163443   696A      7.220809  
     697A      7.224197   698A      7.224214   699A      7.224719  
     700A      7.257572   701A      7.258300   702A      7.258315  
     703A      7.262703   704A      7.262728   705A      7.268838  
     706A      7.268839   707A      7.269611   708A      7.370406  
     709A      7.370512   710A      7.370519   711A      7.390528  
     712A      7.390804   713A      7.390813   714A      7.391523  
     715A      7.391530   716A      7.463804   717A      7.516644  
     718A      7.516657   719A      7.516793   720A      7.524865  
     721A      7.524880   722A      7.536851   723A      7.537023  
     724A      7.537025   725A      7.594595   726A      7.594602  
     727A      7.596035   728A      7.609612   729A      7.609626  
     730A      7.639911   731A      7.691615   732A      7.691627  
     733A      7.692760   734A      7.705839   735A      7.705854  
     736A      7.706284   737A      7.713816   738A      7.730759  
     739A      7.822500   740A      7.822511   741A      7.822524  
     742A      7.902525   743A      7.904346   744A      7.904370  
     745A      7.904684   746A      7.907509   747A      7.907541  
     748A      7.977859   749A      7.977860   750A      7.978390  
     751A      7.984258   752A      7.984268   753A      8.039397  
     754A      8.041076   755A      8.041100   756A      8.049417  
     757A      8.049433   758A      8.072010   759A      8.073277  
     760A      8.073283   761A      8.094435   762A      8.106264  
     763A      8.106270   764A      8.107009   765A      8.197857  
     766A      8.198634   767A      8.198652   768A      8.256089  
     769A      8.283617   770A      8.283733   771A      8.283747  
     772A      8.291399   773A      8.292491   774A      8.292505  
     775A      8.380018   776A      8.380993   777A      8.381013  
     778A      8.442324   779A      8.442940   780A      8.442963  
     781A      8.484832   782A      8.484841   783A      8.522796  
     784A      8.522821   785A      8.616605   786A      8.673295  
     787A      8.673301   788A      8.674226   789A      8.712640  
     790A      8.713764   791A      8.713786   792A      8.767168  
     793A      8.767184   794A      8.767215   795A      8.767890  
     796A      8.767903   797A      8.815649   798A      8.829820  
     799A      8.830729   800A      8.830761   801A      8.945028  
     802A      8.945045   803A      8.945807   804A      8.952121  
     805A      8.953365   806A      8.953376   807A      8.960610  
     808A      8.960627   809A      8.998696   810A      8.998707  
     811A      8.999239   812A      9.080439   813A      9.080452  
     814A      9.218740   815A      9.218778   816A      9.219303  
     817A      9.221176   818A      9.237058   819A      9.274668  
     820A      9.274679   821A      9.274997   822A      9.291503  
     823A      9.291514   824A      9.306317   825A      9.306335  
     826A      9.307856   827A      9.439603   828A      9.439608  
     829A      9.439945   830A      9.451901   831A      9.452054  
     832A      9.452086   833A      9.556822   834A      9.556845  
     835A      9.556987   836A      9.599631   837A      9.601993  
     838A      9.602005   839A      9.602525   840A      9.609815  
     841A      9.638198   842A      9.638918   843A      9.638949  
     844A      9.673678   845A      9.708797   846A      9.708815  
     847A      9.709727   848A      9.722167   849A      9.722305  
     850A      9.722314   851A      9.766391   852A      9.766415  
     853A      9.783175   854A      9.783203   855A      9.783342  
     856A      9.837013   857A      9.837214   858A      9.837230  
     859A      9.854076   860A      9.854094   861A      9.897076  
     862A      9.897365   863A      9.897378   864A      9.960148  
     865A      9.960264   866A      9.960277   867A     10.011281  
     868A     10.011298   869A     10.012370   870A     10.018585  
     871A     10.018607   872A     10.064948   873A     10.064986  
     874A     10.065557   875A     10.123172   876A     10.193102  
     877A     10.193314   878A     10.193332   879A     10.205381  
     880A     10.205387   881A     10.215456   882A     10.217227  
     883A     10.217258   884A     10.318323   885A     10.318340  
     886A     10.318905   887A     10.383997   888A     10.384001  
     889A     10.384029   890A     10.458777   891A     10.466749  
     892A     10.468600   893A     10.468624   894A     10.538307  
     895A     10.538457   896A     10.538480   897A     10.591433  
     898A     10.591468   899A     10.593375   900A     10.597259  
     901A     10.597285   902A     10.601028   903A     10.613696  
     904A     10.615325   905A     10.615351   906A     10.650876  
     907A     10.651823   908A     10.651862   909A     10.718844  
     910A     10.718852   911A     10.809192   912A     11.050711  
     913A     11.087443   914A     11.088214   915A     11.088234  
     916A     11.137163   917A     11.137190   918A     11.138193  
     919A     11.201204   920A     11.202029   921A     11.202052  
     922A     11.215822   923A     11.215834   924A     11.513573  
     925A     11.513612   926A     11.514594   927A     11.596111  
     928A     11.596759   929A     11.596767   930A     11.611979  
     931A     11.632778   932A     11.632802   933A     11.635017  
     934A     11.812047   935A     11.812060   936A     13.532666  
     937A     13.532689   938A     13.533251   939A     13.559912  
     940A     13.559942   941A     13.625937   942A     13.688290  
     943A     13.690490   944A     13.690517   945A     13.926594  
     946A     13.926623   947A     13.929093   948A     26.558456  
     949A     29.178844   950A     29.313362   951A     29.313441  
     952A     29.316387  

    Final Occupation by Irrep:
              A 
    DOCC [    21 ]

  @DF-RHF Final Energy:  -196.41640695689557

   => Energetics <=

    Nuclear Repulsion Energy =            199.3549581916300326
    One-Electron Energy =                -658.5556270508870966
    Two-Electron Energy =                 262.7842619023614930
    Total Energy =                       -196.4164069568955711

Computation Completed


Properties will be evaluated at   0.000000,   0.000000,   0.000000 [a0]

Properties computed using the SCF density matrix

  Nuclear Dipole Moment: [e a0]
     X:   -26.5134      Y:     4.8975      Z:   181.9830

  Electronic Dipole Moment: [e a0]
     X:    26.5135      Y:    -4.8975      Z:  -181.9834

  Dipole Moment: [e a0]
     X:     0.0001      Y:     0.0000      Z:    -0.0004     Total:     0.0004

  Dipole Moment: [D]
     X:     0.0002      Y:     0.0000      Z:    -0.0011     Total:     0.0011


*** tstop() called on node142.bme.utexas.edu at Sun Jun 26 06:50:36 2011
Module time:
	user time   =     554.29 seconds =       9.24 minutes
	system time =       9.19 seconds =       0.15 minutes
	total time  =         77 seconds =       1.28 minutes
Total time:
	user time   =     720.60 seconds =      12.01 minutes
	system time =      14.19 seconds =       0.24 minutes
	total time  =        104 seconds =       1.73 minutes

*** tstart() called on node142.bme.utexas.edu
*** at Sun Jun 26 06:50:36 2011


  //>>>>>>>>>>>>>>>>>>>>>>>>>>>>>>>>>>>//
  //               DFMP2               //
  //<<<<<<<<<<<<<<<<<<<<<<<<<<<<<<<<<<<//

   => Loading Basis Set <=

    Name: (AUG-CC-PVQZ AUX)
    Role: RIFIT
    Keyword: DF_BASIS_MP2
    atoms 1-2, 6, 10, 14         entry C          line   184 file /home/liuchw/anaconda3/envs/psi4env/share/psi4/basis/aug-cc-pvqz-ri.gbs 
    atoms 3-5, 7-9, 11-13, 15-17 entry H          line    30 file /home/liuchw/anaconda3/envs/psi4env/share/psi4/basis/aug-cc-pvqz-ri.gbs 

	 --------------------------------------------------------
	                          DF-MP2                         
	      2nd-Order Density-Fitted Moller-Plesset Theory     
	              RMP2 Wavefunction,   8 Threads             
	                                                         
	        Rob Parrish, Justin Turney, Andy Simmonett,      
	           Ed Hohenstein, and C. David Sherrill          
	 --------------------------------------------------------

   => Auxiliary Basis Set <=

  Basis Set: (AUG-CC-PVQZ AUX)
    Blend: AUG-CC-PVQZ-RI
    Number of shells: 420
    Number of basis function: 1800
    Number of Cartesian functions: 2445
    Spherical Harmonics?: true
    Max angular momentum: 5

	 --------------------------------------------------------
	                 NBF =   952, NAUX =  1800
	 --------------------------------------------------------
	   CLASS    FOCC     OCC    AOCC    AVIR     VIR    FVIR
	   PAIRS       0      21      21     931     931       0
	 --------------------------------------------------------

	-----------------------------------------------------------
	 ==================> DF-MP2 Energies <==================== 
	-----------------------------------------------------------
	 Reference Energy          =    -196.4164069568955711 [Eh]
	 Singles Energy            =      -0.0000000000000000 [Eh]
	 Same-Spin Energy          =      -0.2235098558506428 [Eh]
	 Opposite-Spin Energy      =      -0.8827470676353896 [Eh]
	 Correlation Energy        =      -1.1062569234860322 [Eh]
	 Total Energy              =    -197.5226638803816002 [Eh]
	-----------------------------------------------------------
	 ================> DF-SCS-MP2 Energies <================== 
	-----------------------------------------------------------
	 SCS Same-Spin Scale       =       0.3333333333333333 [-]
	 SCS Opposite-Spin Scale   =       1.2000000000000000 [-]
	 SCS Same-Spin Energy      =      -0.0745032852835476 [Eh]
	 SCS Opposite-Spin Energy  =      -1.0592964811624674 [Eh]
	 SCS Correlation Energy    =      -1.1337997664460151 [Eh]
	 SCS Total Energy          =    -197.5502067233415744 [Eh]
	-----------------------------------------------------------


*** tstop() called on node142.bme.utexas.edu at Sun Jun 26 06:51:13 2011
Module time:
	user time   =     201.75 seconds =       3.36 minutes
	system time =       4.48 seconds =       0.07 minutes
	total time  =         37 seconds =       0.62 minutes
Total time:
	user time   =     922.36 seconds =      15.37 minutes
	system time =      18.67 seconds =       0.31 minutes
	total time  =        141 seconds =       2.35 minutes

  //>>>>>>>>>>>>>>>>>>>>>>>>>>>>>>>>>>>//
  //  CBS Results: mp2/aug-cc-pv[tq]z  //
  //<<<<<<<<<<<<<<<<<<<<<<<<<<<<<<<<<<<//


   ==> HF <==

   HI-zeta (4) Energy:               -196.416406956896


   ==> Helgaker 2-point correlated extrapolation for method: MP2 <==

   LO-zeta (3) Energy:               -197.414118262942
   HI-zeta (4) Energy:               -197.522663880382
   Alpha (exponent) Value:             3.000000000000
   Extrapolated Energy:              -197.601872844459

   @Extrapolated MP2/(T,Q):          -197.601872844459



   ==> Helgaker 2-point correlated extrapolation for method: HF <==

   LO-zeta (3) Energy:               -196.404559994201
   HI-zeta (4) Energy:               -196.416406956896
   Alpha (exponent) Value:             3.000000000000
   Extrapolated Energy:              -196.425052037781

   @Extrapolated HF/(T,Q):           -196.425052037781


   ==> Components <==

  ---------------------------------------------------------------------------------------------------------
                          Method / Basis                      Rqd      Energy [Eh]   Variable
  ---------------------------------------------------------------------------------------------------------
                              hf / aug-cc-pvtz                  *    -196.40455999   HF TOTAL ENERGY
                             mp2 / aug-cc-pvtz                  *    -197.41411826   MP2 TOTAL ENERGY
                              hf / aug-cc-pvqz                  *    -196.41640696   HF TOTAL ENERGY
                             mp2 / aug-cc-pvqz                  *    -197.52266388   MP2 TOTAL ENERGY
  ---------------------------------------------------------------------------------------------------------

   ==> Stages <==

  ---------------------------------------------------------------------------------------------------------
      Stage               Method / Basis                       Wt      Energy [Eh]   Scheme
  ---------------------------------------------------------------------------------------------------------
        scf                   hf / aug-cc-pvqz                  1    -196.41640696   xtpl_highest_1
       corl                  mp2 / aug-cc-pv[tq]z               1    -197.60187284   corl_xtpl_helgaker_2
       corl                   hf / aug-cc-pv[tq]z              -1    -196.42505204   corl_xtpl_helgaker_2
  ---------------------------------------------------------------------------------------------------------

   ==> CBS <==

  ---------------------------------------------------------------------------------------------------------
      Stage               Method / Basis                               Energy [Eh]   Scheme
  ---------------------------------------------------------------------------------------------------------
        scf                   hf / aug-cc-pvqz                       -196.41640696   xtpl_highest_1
       corl                  mp2 / aug-cc-pv[tq]z                      -1.17682081   corl_xtpl_helgaker_2
      total                  CBS                                     -197.59322776   
  ---------------------------------------------------------------------------------------------------------
   => Loading Basis Set <=

    Name: DEF2-SVP
    Role: ORBITAL
    Keyword: BASIS
    atoms 1-2, 6, 10, 14         entry C          line    90 file /home/liuchw/anaconda3/envs/psi4env/share/psi4/basis/def2-svp.gbs 
    atoms 3-5, 7-9, 11-13, 15-17 entry H          line    15 file /home/liuchw/anaconda3/envs/psi4env/share/psi4/basis/def2-svp.gbs 


       N-Body: Complex Energy (fragments = (2,), basis = (2,):  -197.59322776357351)

       N-Body: Computing complex (2/4) with fragments (2,) in the basis of fragments (1, 2).


Scratch directory: /scratch//

  //>>>>>>>>>>>>>>>>>>>>>>>>>>>>>>>>>>>//
  //   CBS Setup: mp2/aug-cc-pv[tq]z   //
  //<<<<<<<<<<<<<<<<<<<<<<<<<<<<<<<<<<<//

    Naive listing of computations required.
             hf / aug-cc-pvqz              for  HF TOTAL ENERGY
            mp2 / aug-cc-pvtz              for  MP2 TOTAL ENERGY
            mp2 / aug-cc-pvqz              for  MP2 TOTAL ENERGY
             hf / aug-cc-pvtz              for  HF TOTAL ENERGY
             hf / aug-cc-pvqz              for  HF TOTAL ENERGY

    Enlightened listing of computations required.
            mp2 / aug-cc-pvtz              for  MP2 TOTAL ENERGY
            mp2 / aug-cc-pvqz              for  MP2 TOTAL ENERGY

    Full listing of computations to be obtained (required and bonus).
             hf / aug-cc-pvtz              for  HF TOTAL ENERGY
            mp2 / aug-cc-pvtz              for  MP2 TOTAL ENERGY
             hf / aug-cc-pvqz              for  HF TOTAL ENERGY
            mp2 / aug-cc-pvqz              for  MP2 TOTAL ENERGY

  //>>>>>>>>>>>>>>>>>>>>>>>>>>>>>>>>>>>>//
  // CBS Computation: MP2 / AUG-CC-PVTZ //
  //<<<<<<<<<<<<<<<<<<<<<<<<<<<<<<<<<<<<//


Scratch directory: /scratch//

*** tstart() called on node142.bme.utexas.edu
*** at Sun Jun 26 06:51:16 2011

   => Loading Basis Set <=

    Name: AUG-CC-PVTZ
    Role: ORBITAL
    Keyword: BASIS
    atoms 1-2, 6, 10, 14, 18-19, 23, 27, 31                  entry C          line   239 file /home/liuchw/anaconda3/envs/psi4env/share/psi4/basis/aug-cc-pvtz.gbs 
    atoms 3-5, 7-9, 11-13, 15-17, 20-22, 24-26, 28-30, 32-34 entry H          line    40 file /home/liuchw/anaconda3/envs/psi4env/share/psi4/basis/aug-cc-pvtz.gbs 


         ---------------------------------------------------------
                                   SCF
               by Justin Turney, Rob Parrish, Andy Simmonett
                          and Daniel G. A. Smith
                              RHF Reference
                        8 Threads,  38146 MiB Core
         ---------------------------------------------------------

  ==> Geometry <==

    Molecular point group: c1
    Full point group: C1

    Geometry (in Angstrom), charge = 0, multiplicity = 1:

       Center              X                  Y                   Z               Mass       
    ------------   -----------------  -----------------  -----------------  -----------------
      Gh(C)           0.333975123860    -0.061665910914    -2.292288455283    12.000000000000
      Gh(C)          -1.089185876140     0.405752089086    -1.998248455283    12.000000000000
      Gh(H)          -1.820121876140    -0.272558910914    -2.440854455283     1.007825032230
      Gh(H)          -1.273264876140     0.444676089086    -0.923665455283     1.007825032230
      Gh(H)          -1.262612876140     1.402665089086    -2.406093455283     1.007825032230
      Gh(C)           0.542300123860    -1.457876910914    -1.711206455283    12.000000000000
      Gh(H)           1.554367123860    -1.814008910914    -1.909081455283     1.007825032230
      Gh(H)           0.390422123860    -1.457804910914    -0.630897455283     1.007825032230
      Gh(H)          -0.158465876140    -2.169742910914    -2.149870455283     1.007825032230
      Gh(C)           1.329722123860     0.907376089086    -1.660035455283    12.000000000000
      Gh(H)           2.355847123860     0.594382089086    -1.858450455283     1.007825032230
      Gh(H)           1.195234123860     0.954915089086    -0.578474455283     1.007825032230
      Gh(H)           1.199826123860     1.913964089086    -2.060233455283     1.007825032230
      Gh(C)           0.553414123860    -0.102092910914    -3.802281455283    12.000000000000
      Gh(H)           0.410665123860     0.885980089086    -4.242082455283     1.007825032230
      Gh(H)           1.565147123860    -0.434517910914    -4.038856455283     1.007825032230
      Gh(H)          -0.148077876140    -0.788608910914    -4.278405455283     1.007825032230
         C           -0.333976876140     0.061704089086     2.292319544717    12.000000000000
         C            1.088835123860    -0.407261910914     1.998919544717    12.000000000000
         H            1.273275123860    -0.446590910914     0.924399544717     1.007825032230
         H            1.820270123860     0.270411089086     2.441655544717     1.007825032230
         H            1.261099123860    -1.404267910914     2.407040544717     1.007825032230
         C           -0.540373876140     1.458266089086     1.711489544717    12.000000000000
         H           -1.552336876140     1.815251089086     1.908336544717     1.007825032230
         H            0.160545123860     2.169337089086     2.151210544717     1.007825032230
         H           -0.387264876140     1.458462089086     0.631346544717     1.007825032230
         C           -0.554271876140     0.101881089086     3.802173544717    12.000000000000
         H           -1.565487876140     0.436158089086     4.038246544717     1.007825032230
         H            0.148241123860     0.786830089086     4.279011544717     1.007825032230
         H           -0.413707876140    -0.886639910914     4.241624544717     1.007825032230
         C           -1.330439876140    -0.906072910914     1.659173544717    12.000000000000
         H           -1.201513876140    -1.913048910914     2.058752544717     1.007825032230
         H           -2.356328876140    -0.592299910914     1.857560544717     1.007825032230
         H           -1.195734876140    -0.953047910914     0.577596544717     1.007825032230

  Running in c1 symmetry.

  Rotational constants: A =      0.07487  B =      0.01686  C =      0.01686 [cm^-1]
  Rotational constants: A =   2244.46259  B =    505.55479  C =    505.55350 [MHz]
  Nuclear repulsion =  199.354958191630033

  Charge       = 0
  Multiplicity = 1
  Electrons    = 42
  Nalpha       = 21
  Nbeta        = 21

  ==> Algorithm <==

  SCF Algorithm Type is DF.
  DIIS enabled.
  MOM disabled.
  Fractional occupation disabled.
  Guess Type is SAD.
  Energy threshold   = 1.00e-07
  Density threshold  = 1.00e-08
  Integral threshold = 0.00e+00

  ==> Primary Basis <==

  Basis Set: AUG-CC-PVTZ
    Blend: AUG-CC-PVTZ
    Number of shells: 356
    Number of basis function: 1012
    Number of Cartesian functions: 1150
    Spherical Harmonics?: true
    Max angular momentum: 3

   => Loading Basis Set <=

    Name: (AUG-CC-PVTZ AUX)
    Role: JKFIT
    Keyword: DF_BASIS_SCF
    atoms 1-2, 6, 10, 14, 18-19, 23, 27, 31                  entry C          line   162 file /home/liuchw/anaconda3/envs/psi4env/share/psi4/basis/aug-cc-pvtz-jkfit.gbs 
    atoms 3-5, 7-9, 11-13, 15-17, 20-22, 24-26, 28-30, 32-34 entry H          line    70 file /home/liuchw/anaconda3/envs/psi4env/share/psi4/basis/aug-cc-pvtz-jkfit.gbs 

  ==> Pre-Iterations <==

   -------------------------------------------------------
    Irrep   Nso     Nmo     Nalpha   Nbeta   Ndocc  Nsocc
   -------------------------------------------------------
     A       1012    1012       0       0       0       0
   -------------------------------------------------------
    Total    1012    1012      21      21      21       0
   -------------------------------------------------------

  ==> Integral Setup <==

  DFHelper Memory: AOs need 15.072 GiB; user supplied 27.940 GiB. Using in-core AOs.

  ==> MemDFJK: Density-Fitted J/K Matrices <==

    J tasked:                   Yes
    K tasked:                   Yes
    wK tasked:                   No
    OpenMP threads:               8
    Memory [MiB]:             28610
    Algorithm:                 Core
    Schwarz Cutoff:           1E-12
    Mask sparsity (%):       9.7143
    Fitting Condition:        1E-10

   => Auxiliary Basis Set <=

  Basis Set: (AUG-CC-PVTZ AUX)
    Blend: AUG-CC-PVTZ-JKFIT
    Number of shells: 636
    Number of basis function: 2144
    Number of Cartesian functions: 2630
    Spherical Harmonics?: true
    Max angular momentum: 4

  Minimum eigenvalue in the overlap matrix is 5.7837283870E-07.
  Using Symmetric Orthogonalization.

  SCF Guess: Superposition of Atomic Densities via on-the-fly atomic UHF.

  ==> Iterations <==

                           Total Energy        Delta E     RMS |[F,P]|

   @DF-RHF iter SAD:  -196.10161653526072   -1.96102e+02   0.00000e+00 
   @DF-RHF iter   1:  -196.10512134753733   -3.50481e-03   6.86030e-04 DIIS
   @DF-RHF iter   2:  -196.33652973749693   -2.31408e-01   3.48195e-04 DIIS
   @DF-RHF iter   3:  -196.40086098682912   -6.43312e-02   6.43292e-05 DIIS
   @DF-RHF iter   4:  -196.40433309758458   -3.47211e-03   2.08800e-05 DIIS
   @DF-RHF iter   5:  -196.40463316383631   -3.00066e-04   2.82799e-06 DIIS
   @DF-RHF iter   6:  -196.40464123159708   -8.06776e-06   3.19981e-07 DIIS
   @DF-RHF iter   7:  -196.40464137514516   -1.43548e-07   5.98050e-08 DIIS
   @DF-RHF iter   8:  -196.40464137951915   -4.37399e-09   7.91152e-09 DIIS
  Energy and wave function converged.


  ==> Post-Iterations <==

    Orbital Energies [Eh]
    ---------------------

    Doubly Occupied:                                                      

       1A    -11.226904     2A    -11.205617     3A    -11.205616  
       4A    -11.205594     5A    -11.205541     6A     -1.106496  
       7A     -0.928765     8A     -0.928762     9A     -0.928672  
      10A     -0.730026    11A     -0.611913    12A     -0.611911  
      13A     -0.611489    14A     -0.552819    15A     -0.552815  
      16A     -0.509282    17A     -0.509167    18A     -0.509163  
      19A     -0.452507    20A     -0.452499    21A     -0.452409  

    Virtual:                                                              

      22A      0.019190    23A      0.029846    24A      0.031689  
      25A      0.031689    26A      0.041041    27A      0.045084  
      28A      0.045085    29A      0.050600    30A      0.050601  
      31A      0.059217    32A      0.064268    33A      0.064269  
      34A      0.068179    35A      0.068181    36A      0.070418  
      37A      0.073680    38A      0.084170    39A      0.084171  
      40A      0.088213    41A      0.089807    42A      0.091232  
      43A      0.096885    44A      0.096887    45A      0.103062  
      46A      0.103064    47A      0.107112    48A      0.118775  
      49A      0.118777    50A      0.119008    51A      0.132115  
      52A      0.132120    53A      0.134210    54A      0.141766  
      55A      0.141769    56A      0.141986    57A      0.149506  
      58A      0.154778    59A      0.154785    60A      0.155881  
      61A      0.155883    62A      0.163446    63A      0.164734  
      64A      0.164744    65A      0.176950    66A      0.178038  
      67A      0.179434    68A      0.179438    69A      0.185616  
      70A      0.186266    71A      0.186272    72A      0.188959  
      73A      0.188964    74A      0.201713    75A      0.202529  
      76A      0.208286    77A      0.208296    78A      0.212116  
      79A      0.217987    80A      0.217996    81A      0.221765  
      82A      0.232388    83A      0.232405    84A      0.244556  
      85A      0.255494    86A      0.265312    87A      0.265321  
      88A      0.266120    89A      0.273260    90A      0.273262  
      91A      0.287057    92A      0.291178    93A      0.291190  
      94A      0.296441    95A      0.296447    96A      0.314664  
      97A      0.319930    98A      0.319944    99A      0.325105  
     100A      0.337146   101A      0.337158   102A      0.337840  
     103A      0.337846   104A      0.338476   105A      0.344070  
     106A      0.344083   107A      0.348173   108A      0.348480  
     109A      0.356755   110A      0.356759   111A      0.361725  
     112A      0.361906   113A      0.361912   114A      0.367657  
     115A      0.368324   116A      0.368333   117A      0.370641  
     118A      0.380661   119A      0.380676   120A      0.385200  
     121A      0.385338   122A      0.385351   123A      0.393024  
     124A      0.395568   125A      0.405483   126A      0.405498  
     127A      0.410995   128A      0.411013   129A      0.411902  
     130A      0.416642   131A      0.416659   132A      0.424919  
     133A      0.425526   134A      0.425536   135A      0.427039  
     136A      0.434143   137A      0.434162   138A      0.438990  
     139A      0.441344   140A      0.441370   141A      0.459381  
     142A      0.471753   143A      0.471770   144A      0.478709  
     145A      0.478957   146A      0.478970   147A      0.490351  
     148A      0.491912   149A      0.491939   150A      0.491977  
     151A      0.497403   152A      0.498731   153A      0.498745  
     154A      0.503275   155A      0.503296   156A      0.506936  
     157A      0.509711   158A      0.519465   159A      0.522198  
     160A      0.522205   161A      0.525170   162A      0.533039  
     163A      0.534534   164A      0.534539   165A      0.535074  
     166A      0.547773   167A      0.547802   168A      0.552662  
     169A      0.552690   170A      0.563747   171A      0.563750  
     172A      0.566509   173A      0.573628   174A      0.574003  
     175A      0.574022   176A      0.580204   177A      0.583403  
     178A      0.595927   179A      0.596293   180A      0.596324  
     181A      0.600732   182A      0.600755   183A      0.619228  
     184A      0.619272   185A      0.627947   186A      0.628886  
     187A      0.630791   188A      0.630793   189A      0.633354  
     190A      0.638267   191A      0.638295   192A      0.644932  
     193A      0.644958   194A      0.645736   195A      0.652750  
     196A      0.652770   197A      0.655699   198A      0.661385  
     199A      0.661413   200A      0.671296   201A      0.671315  
     202A      0.671907   203A      0.680013   204A      0.683320  
     205A      0.683350   206A      0.693895   207A      0.699144  
     208A      0.699166   209A      0.706225   210A      0.706617  
     211A      0.706630   212A      0.713079   213A      0.715306  
     214A      0.715322   215A      0.716795   216A      0.735026  
     217A      0.735041   218A      0.745621   219A      0.758729  
     220A      0.758739   221A      0.761950   222A      0.761968  
     223A      0.765022   224A      0.776490   225A      0.776676  
     226A      0.786034   227A      0.786072   228A      0.792999  
     229A      0.793057   230A      0.798720   231A      0.808931  
     232A      0.808950   233A      0.819718   234A      0.819733  
     235A      0.826765   236A      0.826792   237A      0.836093  
     238A      0.836183   239A      0.842471   240A      0.843330  
     241A      0.862250   242A      0.862283   243A      0.863088  
     244A      0.868726   245A      0.875348   246A      0.875364  
     247A      0.876617   248A      0.884892   249A      0.884942  
     250A      0.893270   251A      0.893511   252A      0.893525  
     253A      0.902564   254A      0.902575   255A      0.916937  
     256A      0.916981   257A      0.933858   258A      0.934526  
     259A      0.939690   260A      0.939748   261A      0.942386  
     262A      0.942441   263A      0.956340   264A      0.956347  
     265A      0.959556   266A      0.972092   267A      0.995092  
     268A      0.999109   269A      1.004067   270A      1.004071  
     271A      1.011140   272A      1.011194   273A      1.011331  
     274A      1.011683   275A      1.021703   276A      1.028447  
     277A      1.028496   278A      1.032886   279A      1.035100  
     280A      1.044192   281A      1.044241   282A      1.057003  
     283A      1.060460   284A      1.060491   285A      1.064264  
     286A      1.064282   287A      1.076230   288A      1.076235  
     289A      1.079389   290A      1.079410   291A      1.085703  
     292A      1.091240   293A      1.102764   294A      1.113434  
     295A      1.116896   296A      1.118026   297A      1.118095  
     298A      1.144458   299A      1.144512   300A      1.147065  
     301A      1.148641   302A      1.148660   303A      1.158009  
     304A      1.163627   305A      1.163669   306A      1.172314  
     307A      1.172348   308A      1.175474   309A      1.182313  
[...]
    1429A      7.558869  1430A      7.568560  1431A      7.568684  
    1432A      7.579498  1433A      7.579509  1434A      7.581371  
    1435A      7.581495  1436A      7.584398  1437A      7.587012  
    1438A      7.598568  1439A      7.608591  1440A      7.608651  
    1441A      7.628764  1442A      7.628810  1443A      7.652577  
    1444A      7.652661  1445A      7.668587  1446A      7.681015  
    1447A      7.681113  1448A      7.696897  1449A      7.698517  
    1450A      7.699770  1451A      7.703088  1452A      7.703117  
    1453A      7.706790  1454A      7.706822  1455A      7.748190  
    1456A      7.752275  1457A      7.754620  1458A      7.756875  
    1459A      7.772151  1460A      7.776663  1461A      7.776687  
    1462A      7.777545  1463A      7.777619  1464A      7.785596  
    1465A      7.785632  1466A      7.787881  1467A      7.791359  
    1468A      7.819180  1469A      7.819191  1470A      7.820614  
    1471A      7.837095  1472A      7.837189  1473A      7.843635  
    1474A      7.857827  1475A      7.861059  1476A      7.861066  
    1477A      7.895395  1478A      7.895456  1479A      7.899795  
    1480A      7.899918  1481A      7.941269  1482A      7.949957  
    1483A      7.950006  1484A      7.962980  1485A      7.963020  
    1486A      7.971869  1487A      7.971906  1488A      7.992077  
    1489A      7.993289  1490A      7.993330  1491A      8.029550  
    1492A      8.031882  1493A      8.035685  1494A      8.064921  
    1495A      8.065014  1496A      8.069820  1497A      8.078619  
    1498A      8.080399  1499A      8.080430  1500A      8.095514  
    1501A      8.095545  1502A      8.096061  1503A      8.096106  
    1504A      8.110501  1505A      8.117569  1506A      8.117603  
    1507A      8.122967  1508A      8.137753  1509A      8.137837  
    1510A      8.165830  1511A      8.171282  1512A      8.171451  
    1513A      8.181788  1514A      8.189861  1515A      8.207108  
    1516A      8.207204  1517A      8.218011  1518A      8.218050  
    1519A      8.220357  1520A      8.225691  1521A      8.243318  
    1522A      8.243397  1523A      8.249366  1524A      8.282529  
    1525A      8.282573  1526A      8.283821  1527A      8.288825  
    1528A      8.288889  1529A      8.309256  1530A      8.316314  
    1531A      8.316376  1532A      8.322958  1533A      8.323017  
    1534A      8.327389  1535A      8.370067  1536A      8.394186  
    1537A      8.394358  1538A      8.405083  1539A      8.430948  
    1540A      8.433775  1541A      8.433871  1542A      8.441180  
    1543A      8.450165  1544A      8.450192  1545A      8.461777  
    1546A      8.461821  1547A      8.473186  1548A      8.477562  
    1549A      8.483946  1550A      8.491289  1551A      8.491344  
    1552A      8.494128  1553A      8.494176  1554A      8.531732  
    1555A      8.531815  1556A      8.545169  1557A      8.557442  
    1558A      8.557484  1559A      8.596580  1560A      8.599181  
    1561A      8.648036  1562A      8.648345  1563A      8.659580  
    1564A      8.659775  1565A      8.705451  1566A      8.705510  
    1567A      8.706636  1568A      8.724550  1569A      8.724571  
    1570A      8.752140  1571A      8.765385  1572A      8.765479  
    1573A      8.766510  1574A      8.770722  1575A      8.802210  
    1576A      8.802318  1577A      8.810752  1578A      8.810809  
    1579A      8.812248  1580A      8.812335  1581A      8.838456  
    1582A      8.854482  1583A      8.854504  1584A      8.855439  
    1585A      8.857041  1586A      8.867492  1587A      8.875915  
    1588A      8.876090  1589A      8.878945  1590A      8.892425  
    1591A      8.892445  1592A      8.903697  1593A      8.903720  
    1594A      8.937513  1595A      8.956853  1596A      8.969499  
    1597A      8.969563  1598A      8.971337  1599A      8.971350  
    1600A      9.002247  1601A      9.002385  1602A      9.011585  
    1603A      9.011654  1604A      9.014543  1605A      9.019714  
    1606A      9.019717  1607A      9.054611  1608A      9.059153  
    1609A      9.059218  1610A      9.065372  1611A      9.065413  
    1612A      9.066925  1613A      9.085507  1614A      9.085672  
    1615A      9.126236  1616A      9.128471  1617A      9.128502  
    1618A      9.134711  1619A      9.139235  1620A      9.139299  
    1621A      9.147688  1622A      9.230452  1623A      9.261767  
    1624A      9.271135  1625A      9.293861  1626A      9.293946  
    1627A      9.308488  1628A      9.308580  1629A      9.318906  
    1630A      9.318983  1631A      9.336228  1632A      9.336264  
    1633A      9.339615  1634A      9.343765  1635A      9.364380  
    1636A      9.386767  1637A      9.386819  1638A      9.393721  
    1639A      9.403367  1640A      9.416740  1641A      9.416895  
    1642A      9.422236  1643A      9.422310  1644A      9.435371  
    1645A      9.435390  1646A      9.448503  1647A      9.494876  
    1648A      9.495158  1649A      9.496963  1650A      9.497070  
    1651A      9.503915  1652A      9.509995  1653A      9.510071  
    1654A      9.511910  1655A      9.527337  1656A      9.527461  
    1657A      9.547378  1658A      9.571931  1659A      9.572022  
    1660A      9.575102  1661A      9.577257  1662A      9.577355  
    1663A      9.583309  1664A      9.584632  1665A      9.606637  
    1666A      9.612085  1667A      9.651355  1668A      9.669863  
    1669A      9.669904  1670A      9.684709  1671A      9.684744  
    1672A      9.690812  1673A      9.701128  1674A      9.701250  
    1675A      9.705027  1676A      9.713067  1677A      9.713130  
    1678A      9.714352  1679A      9.714589  1680A      9.722443  
    1681A      9.727948  1682A      9.744207  1683A      9.747399  
    1684A      9.747488  1685A      9.747585  1686A      9.769453  
    1687A      9.769530  1688A      9.773666  1689A      9.773684  
    1690A      9.786078  1691A      9.786156  1692A      9.788902  
    1693A      9.793186  1694A      9.793262  1695A      9.815064  
    1696A      9.819068  1697A      9.841372  1698A      9.847757  
    1699A      9.852432  1700A      9.852474  1701A      9.874515  
    1702A      9.874594  1703A      9.882750  1704A      9.892606  
    1705A      9.893395  1706A      9.893458  1707A      9.906611  
    1708A      9.912025  1709A      9.912042  1710A      9.946953  
    1711A      9.947121  1712A      9.954941  1713A      9.955201  
    1714A      9.963667  1715A      9.963731  1716A      9.973191  
    1717A      9.973207  1718A      9.975079  1719A      9.996102  
    1720A      9.996158  1721A     10.019666  1722A     10.019678  
    1723A     10.022091  1724A     10.022140  1725A     10.035385  
    1726A     10.055119  1727A     10.056286  1728A     10.077481  
    1729A     10.077584  1730A     10.083709  1731A     10.083763  
    1732A     10.090843  1733A     10.093784  1734A     10.093812  
    1735A     10.129547  1736A     10.149123  1737A     10.159247  
    1738A     10.159653  1739A     10.176759  1740A     10.176836  
    1741A     10.191202  1742A     10.197809  1743A     10.217268  
    1744A     10.228982  1745A     10.248070  1746A     10.250131  
    1747A     10.250167  1748A     10.257564  1749A     10.257603  
    1750A     10.271598  1751A     10.271676  1752A     10.278035  
    1753A     10.280311  1754A     10.297728  1755A     10.297805  
    1756A     10.341805  1757A     10.341838  1758A     10.341903  
    1759A     10.351070  1760A     10.351142  1761A     10.374348  
    1762A     10.374455  1763A     10.389437  1764A     10.389605  
    1765A     10.418934  1766A     10.421632  1767A     10.437033  
    1768A     10.452471  1769A     10.452515  1770A     10.453421  
    1771A     10.453465  1772A     10.457123  1773A     10.465800  
    1774A     10.480808  1775A     10.480900  1776A     10.490248  
    1777A     10.490423  1778A     10.516876  1779A     10.537484  
    1780A     10.551738  1781A     10.598243  1782A     10.598408  
    1783A     10.604364  1784A     10.604402  1785A     10.606282  
    1786A     10.608742  1787A     10.608773  1788A     10.622393  
    1789A     10.622471  1790A     10.623201  1791A     10.629844  
    1792A     10.640990  1793A     10.641041  1794A     10.646825  
    1795A     10.647591  1796A     10.654696  1797A     10.654722  
    1798A     10.662250  1799A     10.664598  1800A     10.671860  
    1801A     10.671937  1802A     10.676976  1803A     10.683070  
    1804A     10.698253  1805A     10.698402  1806A     10.701235  
    1807A     10.701393  1808A     10.729212  1809A     10.733338  
    1810A     10.733469  1811A     10.812893  1812A     10.813051  
    1813A     10.846963  1814A     10.847736  1815A     10.862041  
    1816A     10.904492  1817A     10.957416  1818A     10.977498  
    1819A     10.981288  1820A     10.981884  1821A     10.983920  
    1822A     10.984634  1823A     11.161187  1824A     11.163521  
    1825A     11.171676  1826A     11.171754  1827A     11.196302  
    1828A     11.196407  1829A     11.217233  1830A     11.218570  
    1831A     11.218615  1832A     11.228677  1833A     11.240414  
    1834A     11.240452  1835A     11.291620  1836A     11.298516  
    1837A     11.298572  1838A     11.302379  1839A     11.302417  
    1840A     11.314780  1841A     11.321003  1842A     11.379364  
    1843A     11.379453  1844A     11.441496  1845A     11.483783  
    1846A     11.484053  1847A     11.535788  1848A     11.547493  
    1849A     11.571262  1850A     11.571365  1851A     11.610896  
    1852A     11.611015  1853A     11.623800  1854A     11.625904  
    1855A     11.658156  1856A     11.658255  1857A     11.670761  
    1858A     11.683280  1859A     11.683306  1860A     11.715489  
    1861A     11.780091  1862A     11.780642  1863A     11.785813  
    1864A     11.785828  1865A     11.814925  1866A     11.833133  
    1867A     11.900952  1868A     11.901042  1869A     11.960809  
    1870A     11.961034  1871A     13.594570  1872A     13.594638  
    1873A     13.634686  1874A     13.634700  1875A     13.724703  
    1876A     13.730982  1877A     13.731064  1878A     13.733670  
    1879A     13.733812  1880A     13.739653  1881A     13.786002  
    1882A     13.810974  1883A     13.825250  1884A     13.825289  
    1885A     13.841025  1886A     13.841231  1887A     13.923656  
    1888A     13.952796  1889A     14.062526  1890A     14.155903  
    1891A     14.166989  1892A     14.167232  1893A     14.187371  
    1894A     14.187609  1895A     26.826107  1896A     27.007336  
    1897A     29.350498  1898A     29.391719  1899A     29.452880  
    1900A     29.479351  1901A     29.479447  1902A     29.480157  
    1903A     29.536771  1904A     29.536894  

    Final Occupation by Irrep:
              A 
    DOCC [    42 ]

  @DF-RHF Final Energy:  -392.81887012673724

   => Energetics <=

    Nuclear Repulsion Energy =            594.8746229673013204
    One-Electron Energy =               -1709.3841944741677707
    Two-Electron Energy =                 721.6907013801292123
    Total Energy =                       -392.8188701267372380

Computation Completed


Properties will be evaluated at   0.000000,   0.000000,   0.000000 [a0]

Properties computed using the SCF density matrix

  Nuclear Dipole Moment: [e a0]
     X:     0.0000      Y:    -0.0001      Z:    -0.0002

  Electronic Dipole Moment: [e a0]
     X:    -0.0000      Y:     0.0001      Z:     0.0002

  Dipole Moment: [e a0]
     X:    -0.0000      Y:     0.0000      Z:     0.0000     Total:     0.0000

  Dipole Moment: [D]
     X:    -0.0000      Y:     0.0000      Z:     0.0001     Total:     0.0001


*** tstop() called on node142.bme.utexas.edu at Sun Jun 26 08:46:58 2011
Module time:
	user time   =    9223.52 seconds =     153.73 minutes
	system time =     446.84 seconds =       7.45 minutes
	total time  =       1547 seconds =      25.78 minutes
Total time:
	user time   =   35592.97 seconds =     593.22 minutes
	system time =    2010.57 seconds =      33.51 minutes
	total time  =       7086 seconds =     118.10 minutes

*** tstart() called on node142.bme.utexas.edu
*** at Sun Jun 26 08:46:58 2011


  //>>>>>>>>>>>>>>>>>>>>>>>>>>>>>>>>>>>//
  //               DFMP2               //
  //<<<<<<<<<<<<<<<<<<<<<<<<<<<<<<<<<<<//

   => Loading Basis Set <=

    Name: (AUG-CC-PVQZ AUX)
    Role: RIFIT
    Keyword: DF_BASIS_MP2
    atoms 1-2, 6, 10, 14, 18-19, 23, 27, 31                  entry C          line   184 file /home/liuchw/anaconda3/envs/psi4env/share/psi4/basis/aug-cc-pvqz-ri.gbs 
    atoms 3-5, 7-9, 11-13, 15-17, 20-22, 24-26, 28-30, 32-34 entry H          line    30 file /home/liuchw/anaconda3/envs/psi4env/share/psi4/basis/aug-cc-pvqz-ri.gbs 

	 --------------------------------------------------------
	                          DF-MP2                         
	      2nd-Order Density-Fitted Moller-Plesset Theory     
	              RMP2 Wavefunction,   8 Threads             
	                                                         
	        Rob Parrish, Justin Turney, Andy Simmonett,      
	           Ed Hohenstein, and C. David Sherrill          
	 --------------------------------------------------------

   => Auxiliary Basis Set <=

  Basis Set: (AUG-CC-PVQZ AUX)
    Blend: AUG-CC-PVQZ-RI
    Number of shells: 840
    Number of basis function: 3600
    Number of Cartesian functions: 4890
    Spherical Harmonics?: true
    Max angular momentum: 5

	 --------------------------------------------------------
	                 NBF =  1904, NAUX =  3600
	 --------------------------------------------------------
	   CLASS    FOCC     OCC    AOCC    AVIR     VIR    FVIR
	   PAIRS       0      42      42    1862    1862       0
	 --------------------------------------------------------

	-----------------------------------------------------------
	 ==================> DF-MP2 Energies <==================== 
	-----------------------------------------------------------
	 Reference Energy          =    -392.8188701267372380 [Eh]
	 Singles Energy            =      -0.0000000000000000 [Eh]
	 Same-Spin Energy          =      -0.4533289905822224 [Eh]
	 Opposite-Spin Energy      =      -1.7738123045330219 [Eh]
	 Correlation Energy        =      -2.2271412951152443 [Eh]
	 Total Energy              =    -395.0460114218524836 [Eh]
	-----------------------------------------------------------
	 ================> DF-SCS-MP2 Energies <================== 
	-----------------------------------------------------------
	 SCS Same-Spin Scale       =       0.3333333333333333 [-]
	 SCS Opposite-Spin Scale   =       1.2000000000000000 [-]
	 SCS Same-Spin Energy      =      -0.1511096635274075 [Eh]
	 SCS Opposite-Spin Energy  =      -2.1285747654396263 [Eh]
	 SCS Correlation Energy    =      -2.2796844289670339 [Eh]
	 SCS Total Energy          =    -395.0985545557042542 [Eh]
	-----------------------------------------------------------


*** tstop() called on node142.bme.utexas.edu at Sun Jun 26 08:53:59 2011
Module time:
	user time   =    2895.01 seconds =      48.25 minutes
	system time =      65.34 seconds =       1.09 minutes
	total time  =        421 seconds =       7.02 minutes
Total time:
	user time   =   38487.98 seconds =     641.47 minutes
	system time =    2075.91 seconds =      34.60 minutes
	total time  =       7507 seconds =     125.12 minutes

  //>>>>>>>>>>>>>>>>>>>>>>>>>>>>>>>>>>>//
  //  CBS Results: mp2/aug-cc-pv[tq]z  //
  //<<<<<<<<<<<<<<<<<<<<<<<<<<<<<<<<<<<//


   ==> HF <==

   HI-zeta (4) Energy:               -392.818870126737


   ==> Helgaker 2-point correlated extrapolation for method: MP2 <==

   LO-zeta (3) Energy:               -394.832326964064
   HI-zeta (4) Energy:               -395.046011421852
   Alpha (exponent) Value:             3.000000000000
   Extrapolated Energy:              -395.201943323482

   @Extrapolated MP2/(T,Q):          -395.201943323482



   ==> Helgaker 2-point correlated extrapolation for method: HF <==

   LO-zeta (3) Energy:               -392.795274701803
   HI-zeta (4) Energy:               -392.818870126737
   Alpha (exponent) Value:             3.000000000000
   Extrapolated Energy:              -392.836088409797

   @Extrapolated HF/(T,Q):           -392.836088409797


   ==> Components <==

  ---------------------------------------------------------------------------------------------------------
                          Method / Basis                      Rqd      Energy [Eh]   Variable
  ---------------------------------------------------------------------------------------------------------
                              hf / aug-cc-pvtz                  *    -392.79527470   HF TOTAL ENERGY
                             mp2 / aug-cc-pvtz                  *    -394.83232696   MP2 TOTAL ENERGY
                              hf / aug-cc-pvqz                  *    -392.81887013   HF TOTAL ENERGY
                             mp2 / aug-cc-pvqz                  *    -395.04601142   MP2 TOTAL ENERGY
  ---------------------------------------------------------------------------------------------------------

   ==> Stages <==

  ---------------------------------------------------------------------------------------------------------
      Stage               Method / Basis                       Wt      Energy [Eh]   Scheme
  ---------------------------------------------------------------------------------------------------------
        scf                   hf / aug-cc-pvqz                  1    -392.81887013   xtpl_highest_1
       corl                  mp2 / aug-cc-pv[tq]z               1    -395.20194332   corl_xtpl_helgaker_2
       corl                   hf / aug-cc-pv[tq]z              -1    -392.83608841   corl_xtpl_helgaker_2
  ---------------------------------------------------------------------------------------------------------

   ==> CBS <==

  ---------------------------------------------------------------------------------------------------------
      Stage               Method / Basis                               Energy [Eh]   Scheme
  ---------------------------------------------------------------------------------------------------------
        scf                   hf / aug-cc-pvqz                       -392.81887013   xtpl_highest_1
       corl                  mp2 / aug-cc-pv[tq]z                      -2.36585491   corl_xtpl_helgaker_2
      total                  CBS                                     -395.18472504   
  ---------------------------------------------------------------------------------------------------------
   => Loading Basis Set <=

    Name: DEF2-SVP
    Role: ORBITAL
    Keyword: BASIS
    atoms 1-2, 6, 10, 14, 18-19, 23, 27, 31                  entry C          line    90 file /home/liuchw/anaconda3/envs/psi4env/share/psi4/basis/def2-svp.gbs 
    atoms 3-5, 7-9, 11-13, 15-17, 20-22, 24-26, 28-30, 32-34 entry H          line    15 file /home/liuchw/anaconda3/envs/psi4env/share/psi4/basis/def2-svp.gbs 


       N-Body: Complex Energy (fragments = (1, 2), basis = (1, 2):  -395.18472504042143)

   ==> N-Body: Counterpoise Corrected (CP) energies <==

   n-Body     Total Energy [Eh]       I.E. [kcal/mol]      Delta [kcal/mol]
        1     -395.186455578665        0.000000000000        0.000000000000
        2     -395.185443737501        0.634939915958        0.634939915958

   => Loading Basis Set <=

    Name: DEF2-SVP
    Role: ORBITAL
    Keyword: BASIS
    atoms 1-2, 6, 10, 14, 18-19, 23, 27, 31                  entry C          line    90 file /home/liuchw/anaconda3/envs/psi4env/share/psi4/basis/def2-svp.gbs 
    atoms 3-5, 7-9, 11-13, 15-17, 20-22, 24-26, 28-30, 32-34 entry H          line    15 file /home/liuchw/anaconda3/envs/psi4env/share/psi4/basis/def2-svp.gbs 


    Psi4 stopped on: Sunday, 26 June 2011 08:54AM
    Psi4 wall time for execution: 2:05:17.78

*** Psi4 exiting successfully. Buy a developer a beer!
