
    -----------------------------------------------------------------------
          Psi4: An Open-Source Ab Initio Electronic Structure Package
                               Psi4 1.4a2.dev224 

                         Git: Rev {master} e453b16 


    R. M. Parrish, L. A. Burns, D. G. A. Smith, A. C. Simmonett,
    A. E. DePrince III, E. G. Hohenstein, U. Bozkaya, A. Yu. Sokolov,
    R. Di Remigio, R. M. Richard, J. F. Gonthier, A. M. James,
    H. R. McAlexander, A. Kumar, M. Saitow, X. Wang, B. P. Pritchard,
    P. Verma, H. F. Schaefer III, K. Patkowski, R. A. King, E. F. Valeev,
    F. A. Evangelista, J. M. Turney, T. D. Crawford, and C. D. Sherrill,
    J. Chem. Theory Comput. 13(7) pp 3185--3197 (2017).
    (doi: 10.1021/acs.jctc.7b00174)


                         Additional Contributions by
    P. Kraus, H. Kruse, M. H. Lechner, M. C. Schieber, R. A. Shaw,
    A. Alenaizan, R. Galvelis, Z. L. Glick, S. Lehtola, and J. P. Misiewicz

    -----------------------------------------------------------------------


    Psi4 started on: Thursday, 23 April 2020 08:58PM

    Process ID: 22970
    Host:       node36.bme.utexas.edu
    PSIDATADIR: /home/liuchw/anaconda3/envs/psi4env/share/psi4
    Memory:     500.0 MiB
    Threads:    8
    
  ==> Input File <==

--------------------------------------------------------------------------
#Generated by lconvert.py for cbs job

memory 20 GB

molecule  {
0 1
  C       0.956880   -0.891850    1.141950
  H       1.504570   -1.278360    0.283420
  H       1.421380   -1.314780    2.031030
  C       0.990950    0.658510    1.145500
  H       1.510590    1.023100    0.259950
  H       1.516260    1.059820    2.010540
  C      -0.479450    1.102320    1.103880
  H      -0.616270    2.064880    0.613570
  H      -0.874740    1.189070    2.118070
  C      -1.182110   -0.052800    0.393350
  H      -0.948880   -0.026830   -0.673800
  H      -2.265660   -0.033560    0.501270
  C      -0.530660   -1.274890    1.039310
  H      -0.690390   -2.197020    0.482990
  H      -0.950850   -1.415410    2.036750
--
0 1
  C      -1.111410   -0.342550    5.995550
  H      -1.444540   -0.105850    4.982960
  H      -1.916190   -0.885650    6.488530
  C       0.202200   -1.138100    5.947780
  H       0.252150   -1.795840    5.081650
  H       0.282490   -1.769460    6.832170
  C       1.331520   -0.075390    5.948380
  H       1.952780   -0.136070    5.056510
  H       1.988930   -0.225270    6.803790
  C       0.621340    1.286280    6.056250
  H       0.441480    1.694770    5.060250
  H       1.201730    2.020680    6.612220
  C      -0.720710    0.951810    6.706060
  H      -1.460380    1.744320    6.601180
  H      -0.580670    0.760160    7.772610
units angstrom
no_reorient
symmetry c1
}

set {
scf_type DF
mp2_type DF
e_convergence 7
reference rhf
}

energy('mp2/aug-cc-pv[tq]z', bsse_type='cp')
--------------------------------------------------------------------------

  Memory set to  18.626 GiB by Python driver.

Scratch directory: /scratch/liuchw/


   ===> N-Body Interaction Abacus <===
        BSSE Treatment:                     cp
        Number of 1-body computations:     4
        Number of 2-body computations:     1

   ==> N-Body: Now computing 1-body complexes <==


       N-Body: Computing complex (1/4) with fragments (2,) in the basis of fragments (2,).


Scratch directory: /scratch/liuchw/

  //>>>>>>>>>>>>>>>>>>>>>>>>>>>>>>>>>>>//
  //   CBS Setup: mp2/aug-cc-pv[tq]z   //
  //<<<<<<<<<<<<<<<<<<<<<<<<<<<<<<<<<<<//

    Naive listing of computations required.
             hf / aug-cc-pvqz              for  HF TOTAL ENERGY
            mp2 / aug-cc-pvtz              for  MP2 TOTAL ENERGY
            mp2 / aug-cc-pvqz              for  MP2 TOTAL ENERGY
             hf / aug-cc-pvtz              for  HF TOTAL ENERGY
             hf / aug-cc-pvqz              for  HF TOTAL ENERGY

    Enlightened listing of computations required.
            mp2 / aug-cc-pvtz              for  MP2 TOTAL ENERGY
            mp2 / aug-cc-pvqz              for  MP2 TOTAL ENERGY

    Full listing of computations to be obtained (required and bonus).
             hf / aug-cc-pvtz              for  HF TOTAL ENERGY
            mp2 / aug-cc-pvtz              for  MP2 TOTAL ENERGY
             hf / aug-cc-pvqz              for  HF TOTAL ENERGY
            mp2 / aug-cc-pvqz              for  MP2 TOTAL ENERGY

  //>>>>>>>>>>>>>>>>>>>>>>>>>>>>>>>>>>>>//
  // CBS Computation: MP2 / AUG-CC-PVTZ //
  //<<<<<<<<<<<<<<<<<<<<<<<<<<<<<<<<<<<<//


Scratch directory: /scratch/liuchw/

*** tstart() called on node36.bme.utexas.edu
*** at Thu Apr 23 20:58:45 2020

   => Loading Basis Set <=

    Name: AUG-CC-PVTZ
    Role: ORBITAL
    Keyword: BASIS
    atoms 1, 4, 7, 10, 13             entry C          line   239 file /home/liuchw/anaconda3/envs/psi4env/share/psi4/basis/aug-cc-pvtz.gbs 
    atoms 2-3, 5-6, 8-9, 11-12, 14-15 entry H          line    40 file /home/liuchw/anaconda3/envs/psi4env/share/psi4/basis/aug-cc-pvtz.gbs 


         ---------------------------------------------------------
                                   SCF
               by Justin Turney, Rob Parrish, Andy Simmonett
                          and Daniel G. A. Smith
                              RHF Reference
                        8 Threads,  19073 MiB Core
         ---------------------------------------------------------

  ==> Geometry <==

    Molecular point group: c1
    Full point group: C1

    Geometry (in Angstrom), charge = 0, multiplicity = 1:

       Center              X                  Y                   Z               Mass       
    ------------   -----------------  -----------------  -----------------  -----------------
         C           -1.120463619785    -0.364352031126     2.447751588656    12.000000000000
         H           -1.453593619785    -0.127652031126     1.435161588656     1.007825032230
         H           -1.925243619785    -0.907452031126     2.940731588656     1.007825032230
         C            0.193146380215    -1.159902031126     2.399981588656    12.000000000000
         H            0.243096380215    -1.817642031126     1.533851588656     1.007825032230
         H            0.273436380215    -1.791262031126     3.284371588656     1.007825032230
         C            1.322466380215    -0.097192031126     2.400581588656    12.000000000000
         H            1.943726380215    -0.157872031126     1.508711588656     1.007825032230
         H            1.979876380215    -0.247072031126     3.255991588656     1.007825032230
         C            0.612286380215     1.264477968874     2.508451588656    12.000000000000
         H            0.432426380215     1.672967968874     1.512451588656     1.007825032230
         H            1.192676380215     1.998877968874     3.064421588656     1.007825032230
         C           -0.729763619785     0.930007968874     3.158261588656    12.000000000000
         H           -1.469433619785     1.722517968874     3.053381588656     1.007825032230
         H           -0.589723619785     0.738357968874     4.224811588656     1.007825032230

  Running in c1 symmetry.

  Rotational constants: A =      0.13139  B =      0.03089  C =      0.03063 [cm^-1]
  Rotational constants: A =   3938.87366  B =    926.17868  C =    918.35655 [MHz]
  Nuclear repulsion =  188.378405978355943

  Charge       = 0
  Multiplicity = 1
  Electrons    = 40
  Nalpha       = 20
  Nbeta        = 20

  ==> Algorithm <==

  SCF Algorithm Type is DF.
  DIIS enabled.
  MOM disabled.
  Fractional occupation disabled.
  Guess Type is SAD.
  Energy threshold   = 1.00e-07
  Density threshold  = 1.00e-08
  Integral threshold = 0.00e+00

  ==> Primary Basis <==

  Basis Set: AUG-CC-PVTZ
    Blend: AUG-CC-PVTZ
    Number of shells: 160
    Number of basis function: 460
    Number of Cartesian functions: 525
    Spherical Harmonics?: true
    Max angular momentum: 3

   => Loading Basis Set <=

    Name: (AUG-CC-PVTZ AUX)
    Role: JKFIT
    Keyword: DF_BASIS_SCF
    atoms 1, 4, 7, 10, 13             entry C          line   162 file /home/liuchw/anaconda3/envs/psi4env/share/psi4/basis/aug-cc-pvtz-jkfit.gbs 
    atoms 2-3, 5-6, 8-9, 11-12, 14-15 entry H          line    70 file /home/liuchw/anaconda3/envs/psi4env/share/psi4/basis/aug-cc-pvtz-jkfit.gbs 

  ==> Pre-Iterations <==

   -------------------------------------------------------
    Irrep   Nso     Nmo     Nalpha   Nbeta   Ndocc  Nsocc
   -------------------------------------------------------
     A        460     460       0       0       0       0
   -------------------------------------------------------
    Total     460     460      20      20      20       0
   -------------------------------------------------------

  ==> Integral Setup <==

  DFHelper Memory: AOs need 1.597 GiB; user supplied 13.970 GiB. Using in-core AOs.

  ==> MemDFJK: Density-Fitted J/K Matrices <==

    J tasked:                   Yes
    K tasked:                   Yes
    wK tasked:                   No
    OpenMP threads:               8
    Memory [MiB]:             14305
    Algorithm:                 Core
    Schwarz Cutoff:           1E-12
    Mask sparsity (%):       0.6635
    Fitting Condition:        1E-10

   => Auxiliary Basis Set <=

  Basis Set: (AUG-CC-PVTZ AUX)
    Blend: AUG-CC-PVTZ-JKFIT
    Number of shells: 290
    Number of basis function: 980
    Number of Cartesian functions: 1205
    Spherical Harmonics?: true
    Max angular momentum: 4

  Minimum eigenvalue in the overlap matrix is 2.7104007346E-06.
  Using Symmetric Orthogonalization.

  SCF Guess: Superposition of Atomic Densities via on-the-fly atomic UHF.

  ==> Iterations <==

                           Total Energy        Delta E     RMS |[F,P]|

   @DF-RHF iter SAD:  -195.14898027828539   -1.95149e+02   0.00000e+00 
   @DF-RHF iter   1:  -194.97487983067748    1.74100e-01   1.40865e-03 DIIS
   @DF-RHF iter   2:  -195.15702785215382   -1.82148e-01   8.13605e-04 DIIS
   @DF-RHF iter   3:  -195.22685842099682   -6.98306e-02   1.22296e-04 DIIS
   @DF-RHF iter   4:  -195.23002514320183   -3.16672e-03   1.92841e-05 DIIS
   @DF-RHF iter   5:  -195.23012830527401   -1.03162e-04   4.21000e-06 DIIS
   @DF-RHF iter   6:  -195.23013323240295   -4.92713e-06   5.30449e-07 DIIS
   @DF-RHF iter   7:  -195.23013330697819   -7.45752e-08   9.67381e-08 DIIS
   @DF-RHF iter   8:  -195.23013330845069   -1.47250e-09   3.34847e-08 DIIS
   @DF-RHF iter   9:  -195.23013330861352   -1.62828e-10   4.71819e-09 DIIS
  Energy and wave function converged.


  ==> Post-Iterations <==

    Orbital Energies [Eh]
    ---------------------

    Doubly Occupied:                                                      

       1A    -11.210419     2A    -11.210041     3A    -11.210010  
       4A    -11.209398     5A    -11.209276     6A     -1.116274  
       7A     -0.956683     8A     -0.955844     9A     -0.776888  
      10A     -0.767197    11A     -0.649697    12A     -0.644633  
      13A     -0.569794    14A     -0.567944    15A     -0.475250  
      16A     -0.474344    17A     -0.463480    18A     -0.460298  
      19A     -0.459144    20A     -0.448717  

    Virtual:                                                              

      21A      0.031783    22A      0.038542    23A      0.039215  
      24A      0.039879    25A      0.055923    26A      0.058186  
      27A      0.058599    28A      0.060168    29A      0.061274  
      30A      0.079053    31A      0.115427    32A      0.117414  
      33A      0.120556    34A      0.123606    35A      0.124932  
      36A      0.126142    37A      0.132640    38A      0.134838  
      39A      0.138166    40A      0.141348    41A      0.142400  
      42A      0.163493    43A      0.163820    44A      0.168100  
      45A      0.168980    46A      0.186563    47A      0.188661  
      48A      0.201415    49A      0.206240    50A      0.220180  
      51A      0.256474    52A      0.276874    53A      0.282199  
      54A      0.291397    55A      0.292955    56A      0.300637  
      57A      0.303623    58A      0.307984    59A      0.309725  
      60A      0.311117    61A      0.317159    62A      0.319893  
      63A      0.325558    64A      0.345351    65A      0.346225  
      66A      0.350191    67A      0.359623    68A      0.361258  
      69A      0.368469    70A      0.381598    71A      0.382971  
      72A      0.398400    73A      0.400516    74A      0.402866  
      75A      0.410872    76A      0.415107    77A      0.422189  
      78A      0.423876    79A      0.428280    80A      0.429000  
      81A      0.432316    82A      0.439865    83A      0.451302  
      84A      0.454656    85A      0.461373    86A      0.477348  
      87A      0.479065    88A      0.495080    89A      0.499178  
      90A      0.508341    91A      0.512781    92A      0.518079  
      93A      0.523248    94A      0.534731    95A      0.541838  
      96A      0.543872    97A      0.548305    98A      0.552793  
      99A      0.560604   100A      0.564777   101A      0.566797  
     102A      0.573896   103A      0.580781   104A      0.586621  
     105A      0.588657   106A      0.604484   107A      0.608844  
     108A      0.620771   109A      0.624156   110A      0.630005  
     111A      0.643953   112A      0.648666   113A      0.649914  
     114A      0.652308   115A      0.663600   116A      0.691340  
     117A      0.701643   118A      0.722467   119A      0.724404  
     120A      0.745900   121A      0.771018   122A      0.780111  
     123A      0.793961   124A      0.821097   125A      0.834510  
     126A      0.848035   127A      0.850479   128A      0.860513  
     129A      0.874252   130A      0.875679   131A      0.880114  
     132A      0.883426   133A      0.895198   134A      0.896364  
     135A      0.907043   136A      0.916755   137A      0.920269  
     138A      0.936195   139A      0.955362   140A      0.958439  
     141A      0.960950   142A      0.975492   143A      0.978792  
     144A      0.980350   145A      0.987780   146A      0.993202  
     147A      1.007385   148A      1.021344   149A      1.023055  
     150A      1.029777   151A      1.035230   152A      1.040425  
     153A      1.043460   154A      1.049252   155A      1.063509  
     156A      1.079765   157A      1.092608   158A      1.098686  
     159A      1.106626   160A      1.107173   161A      1.121377  
     162A      1.127477   163A      1.147689   164A      1.164704  
     165A      1.168742   166A      1.178456   167A      1.183758  
     168A      1.185714   169A      1.197176   170A      1.210868  
     171A      1.227846   172A      1.229222   173A      1.234101  
     174A      1.234879   175A      1.256521   176A      1.257599  
     177A      1.275573   178A      1.283023   179A      1.293228  
     180A      1.293826   181A      1.302215   182A      1.324338  
     183A      1.334574   184A      1.337783   185A      1.379415  
     186A      1.381290   187A      1.394425   188A      1.407830  
     189A      1.423714   190A      1.430401   191A      1.447816  
     192A      1.455208   193A      1.459096   194A      1.471879  
     195A      1.475221   196A      1.496099   197A      1.510978  
     198A      1.514634   199A      1.521580   200A      1.544777  
     201A      1.548247   202A      1.558685   203A      1.560583  
     204A      1.572006   205A      1.577979   206A      1.588157  
     207A      1.622717   208A      1.626972   209A      1.637540  
     210A      1.643603   211A      1.646405   212A      1.672455  
     213A      1.678563   214A      1.693020   215A      1.704875  
     216A      1.713329   217A      1.719096   218A      1.736259  
     219A      1.742211   220A      1.756195   221A      1.772117  
     222A      1.786897   223A      1.791857   224A      1.795904  
     225A      1.810975   226A      1.817743   227A      1.834918  
     228A      1.844058   229A      1.846168   230A      1.866473  
     231A      1.892615   232A      1.894480   233A      1.911255  
     234A      1.933036   235A      1.941371   236A      1.956238  
     237A      1.966792   238A      1.973757   239A      1.983933  
     240A      1.989107   241A      1.998574   242A      2.009739  
     243A      2.014069   244A      2.025511   245A      2.028845  
     246A      2.035569   247A      2.039024   248A      2.072633  
     249A      2.101583   250A      2.107091   251A      2.119910  
     252A      2.124966   253A      2.146328   254A      2.149819  
     255A      2.154563   256A      2.182408   257A      2.228100  
     258A      2.239799   259A      2.244405   260A      2.274706  
     261A      2.279386   262A      2.290738   263A      2.301993  
     264A      2.308541   265A      2.321685   266A      2.348290  
     267A      2.372323   268A      2.399262   269A      2.402055  
     270A      2.416212   271A      2.434042   272A      2.452936  
     273A      2.462007   274A      2.482659   275A      2.486767  
     276A      2.520810   277A      2.535513   278A      2.567708  
     279A      2.576770   280A      2.609713   281A      2.643183  
     282A      2.662363   283A      2.678924   284A      2.702472  
     285A      2.774039   286A      2.791516   287A      2.958831  
     288A      3.030858   289A      3.082660   290A      3.178740  
     291A      3.249736   292A      3.316793   293A      3.354247  
     294A      3.370063   295A      3.383611   296A      3.388902  
     297A      3.460890   298A      3.501726   299A      3.509331  
     300A      3.521087   301A      3.546429   302A      3.556442  
     303A      3.565959   304A      3.587963   305A      3.604352  
     306A      3.615846   307A      3.619464   308A      3.645251  
     309A      3.676540   310A      3.679223   311A      3.703937  
     312A      3.712788   313A      3.737267   314A      3.747319  
     315A      3.754163   316A      3.768082   317A      3.773128  
     318A      3.805431   319A      3.815353   320A      3.836982  
     321A      3.856967   322A      3.895983   323A      3.897131  
     324A      3.912154   325A      3.924845   326A      3.929747  
     327A      3.955053   328A      3.974070   329A      3.985362  
     330A      3.998480   331A      3.999680   332A      4.002283  
     333A      4.022947   334A      4.029058   335A      4.041338  
     336A      4.050957   337A      4.053200   338A      4.060598  
     339A      4.083988   340A      4.094163   341A      4.098829  
     342A      4.115498   343A      4.141450   344A      4.164326  
     345A      4.174622   346A      4.210409   347A      4.228464  
     348A      4.238242   349A      4.248855   350A      4.274066  
     351A      4.290703   352A      4.327279   353A      4.340752  
     354A      4.365644   355A      4.387633   356A      4.394005  
     357A      4.414611   358A      4.421137   359A      4.438118  
     360A      4.442805   361A      4.476414   362A      4.491448  
     363A      4.495742   364A      4.501897   365A      4.550123  
     366A      4.579960   367A      4.610308   368A      4.622533  
     369A      4.639080   370A      4.659323   371A      4.692020  
     372A      4.697139   373A      4.709182   374A      4.736142  
     375A      4.742369   376A      4.764509   377A      4.816694  
     378A      4.836633   379A      4.846229   380A      4.901747  
     381A      4.922046   382A      4.933342   383A      4.942271  
     384A      4.948232   385A      4.966242   386A      4.974335  
     387A      4.981998   388A      4.991629   389A      5.015770  
     390A      5.029617   391A      5.030839   392A      5.059983  
     393A      5.072514   394A      5.091207   395A      5.096158  
     396A      5.098889   397A      5.141284   398A      5.172993  
     399A      5.179540   400A      5.211557   401A      5.230045  
     402A      5.242240   403A      5.286260   404A      5.296068  
     405A      5.304892   406A      5.328271   407A      5.350335  
     408A      5.406007   409A      5.450688   410A      5.458789  
     411A      5.474094   412A      5.489933   413A      5.494293  
     414A      5.502900   415A      5.507063   416A      5.514977  
     417A      5.536020   418A      5.566223   419A      5.581642  
     420A      5.606733   421A      5.669913   422A      5.707462  
     423A      5.722009   424A      5.752333   425A      5.784899  
     426A      5.787753   427A      5.797858   428A      5.847594  
     429A      5.862533   430A      5.871669   431A      5.892567  
     432A      5.916817   433A      5.945709   434A      5.993719  
     435A      6.046262   436A      6.054802   437A      6.068167  
     438A      6.129921   439A      6.167748   440A      6.225594  
     441A      6.262070   442A      6.302897   443A      6.361869  
     444A      6.417138   445A      6.422666   446A      6.436109  
     447A      6.503795   448A      6.660157   449A      6.702038  
     450A      6.744289   451A      6.853923   452A      6.885565  
     453A      6.956875   454A      7.027332   455A      7.047533  
     456A     17.843975   457A     18.030607   458A     18.813457  
     459A     19.491041   460A     20.061915  

    Final Occupation by Irrep:
              A 
    DOCC [    20 ]

  @DF-RHF Final Energy:  -195.23013330861352

   => Energetics <=

    Nuclear Repulsion Energy =            188.3784059783559428
    One-Electron Energy =                -635.5464177999899675
    Two-Electron Energy =                 251.9378785130205074
    Total Energy =                       -195.2301333086135173

Computation Completed


Properties will be evaluated at   0.000000,   0.000000,   0.000000 [a0]

Properties computed using the SCF density matrix

  Nuclear Dipole Moment: [e a0]
     X:     4.3337      Y:     8.5454      Z:   195.2164

  Electronic Dipole Moment: [e a0]
     X:    -4.3383      Y:    -8.5413      Z:  -195.2144

  Dipole Moment: [e a0]
     X:    -0.0047      Y:     0.0040      Z:     0.0020     Total:     0.0065

  Dipole Moment: [D]
     X:    -0.0118      Y:     0.0103      Z:     0.0050     Total:     0.0165


*** tstop() called on node36.bme.utexas.edu at Thu Apr 23 20:58:57 2020
Module time:
	user time   =      71.11 seconds =       1.19 minutes
	system time =       4.19 seconds =       0.07 minutes
	total time  =         12 seconds =       0.20 minutes
Total time:
	user time   =      71.11 seconds =       1.19 minutes
	system time =       4.19 seconds =       0.07 minutes
	total time  =         12 seconds =       0.20 minutes

*** tstart() called on node36.bme.utexas.edu
*** at Thu Apr 23 20:58:57 2020


  //>>>>>>>>>>>>>>>>>>>>>>>>>>>>>>>>>>>//
  //               DFMP2               //
  //<<<<<<<<<<<<<<<<<<<<<<<<<<<<<<<<<<<//

   => Loading Basis Set <=

    Name: (AUG-CC-PVTZ AUX)
    Role: RIFIT
    Keyword: DF_BASIS_MP2
    atoms 1, 4, 7, 10, 13             entry C          line   148 file /home/liuchw/anaconda3/envs/psi4env/share/psi4/basis/aug-cc-pvtz-ri.gbs 
    atoms 2-3, 5-6, 8-9, 11-12, 14-15 entry H          line    30 file /home/liuchw/anaconda3/envs/psi4env/share/psi4/basis/aug-cc-pvtz-ri.gbs 

	 --------------------------------------------------------
	                          DF-MP2                         
	      2nd-Order Density-Fitted Moller-Plesset Theory     
	              RMP2 Wavefunction,   8 Threads             
	                                                         
	        Rob Parrish, Justin Turney, Andy Simmonett,      
	           Ed Hohenstein, and C. David Sherrill          
	 --------------------------------------------------------

   => Auxiliary Basis Set <=

  Basis Set: (AUG-CC-PVTZ AUX)
    Blend: AUG-CC-PVTZ-RI
    Number of shells: 280
    Number of basis function: 990
    Number of Cartesian functions: 1230
    Spherical Harmonics?: true
    Max angular momentum: 4

	 --------------------------------------------------------
	                 NBF =   460, NAUX =   990
	 --------------------------------------------------------
	   CLASS    FOCC     OCC    AOCC    AVIR     VIR    FVIR
	   PAIRS       0      20      20     440     440       0
	 --------------------------------------------------------

	-----------------------------------------------------------
	 ==================> DF-MP2 Energies <==================== 
	-----------------------------------------------------------
	 Reference Energy          =    -195.2301333086135173 [Eh]
	 Singles Energy            =      -0.0000000000000000 [Eh]
	 Same-Spin Energy          =      -0.2104920668309995 [Eh]
	 Opposite-Spin Energy      =      -0.7664078362841014 [Eh]
	 Correlation Energy        =      -0.9768999031151009 [Eh]
	 Total Energy              =    -196.2070332117286284 [Eh]
	-----------------------------------------------------------
	 ================> DF-SCS-MP2 Energies <================== 
	-----------------------------------------------------------
	 SCS Same-Spin Scale       =       0.3333333333333333 [-]
	 SCS Opposite-Spin Scale   =       1.2000000000000000 [-]
	 SCS Same-Spin Energy      =      -0.0701640222769998 [Eh]
	 SCS Opposite-Spin Energy  =      -0.9196894035409215 [Eh]
	 SCS Correlation Energy    =      -0.9898534258179214 [Eh]
	 SCS Total Energy          =    -196.2199867344314441 [Eh]
	-----------------------------------------------------------


*** tstop() called on node36.bme.utexas.edu at Thu Apr 23 20:59:03 2020
Module time:
	user time   =      35.05 seconds =       0.58 minutes
	system time =       1.40 seconds =       0.02 minutes
	total time  =          6 seconds =       0.10 minutes
Total time:
	user time   =     106.17 seconds =       1.77 minutes
	system time =       5.60 seconds =       0.09 minutes
	total time  =         18 seconds =       0.30 minutes

  //>>>>>>>>>>>>>>>>>>>>>>>>>>>>>>>>>>>>//
  // CBS Computation: MP2 / AUG-CC-PVQZ //
  //<<<<<<<<<<<<<<<<<<<<<<<<<<<<<<<<<<<<//


Scratch directory: /scratch/liuchw/

*** tstart() called on node36.bme.utexas.edu
*** at Thu Apr 23 20:59:03 2020

   => Loading Basis Set <=

    Name: AUG-CC-PVQZ
    Role: ORBITAL
    Keyword: BASIS
    atoms 1, 4, 7, 10, 13             entry C          line   303 file /home/liuchw/anaconda3/envs/psi4env/share/psi4/basis/aug-cc-pvqz.gbs 
    atoms 2-3, 5-6, 8-9, 11-12, 14-15 entry H          line    40 file /home/liuchw/anaconda3/envs/psi4env/share/psi4/basis/aug-cc-pvqz.gbs 


         ---------------------------------------------------------
                                   SCF
               by Justin Turney, Rob Parrish, Andy Simmonett
                          and Daniel G. A. Smith
                              RHF Reference
                        8 Threads,  19073 MiB Core
         ---------------------------------------------------------

  ==> Geometry <==

    Molecular point group: c1
    Full point group: C1

    Geometry (in Angstrom), charge = 0, multiplicity = 1:

       Center              X                  Y                   Z               Mass       
    ------------   -----------------  -----------------  -----------------  -----------------
         C           -1.120463619785    -0.364352031126     2.447751588656    12.000000000000
         H           -1.453593619785    -0.127652031126     1.435161588656     1.007825032230
         H           -1.925243619785    -0.907452031126     2.940731588656     1.007825032230
         C            0.193146380215    -1.159902031126     2.399981588656    12.000000000000
         H            0.243096380215    -1.817642031126     1.533851588656     1.007825032230
         H            0.273436380215    -1.791262031126     3.284371588656     1.007825032230
         C            1.322466380215    -0.097192031126     2.400581588656    12.000000000000
         H            1.943726380215    -0.157872031126     1.508711588656     1.007825032230
         H            1.979876380215    -0.247072031126     3.255991588656     1.007825032230
         C            0.612286380215     1.264477968874     2.508451588656    12.000000000000
         H            0.432426380215     1.672967968874     1.512451588656     1.007825032230
         H            1.192676380215     1.998877968874     3.064421588656     1.007825032230
         C           -0.729763619785     0.930007968874     3.158261588656    12.000000000000
         H           -1.469433619785     1.722517968874     3.053381588656     1.007825032230
         H           -0.589723619785     0.738357968874     4.224811588656     1.007825032230

  Running in c1 symmetry.

  Rotational constants: A =      0.13139  B =      0.03089  C =      0.03063 [cm^-1]
  Rotational constants: A =   3938.87366  B =    926.17868  C =    918.35655 [MHz]
  Nuclear repulsion =  188.378405978355943

  Charge       = 0
  Multiplicity = 1
  Electrons    = 40
  Nalpha       = 20
  Nbeta        = 20

  ==> Algorithm <==

  SCF Algorithm Type is DF.
  DIIS enabled.
  MOM disabled.
  Fractional occupation disabled.
  Guess Type is SAD.
  Energy threshold   = 1.00e-07
  Density threshold  = 1.00e-08
  Integral threshold = 0.00e+00

  ==> Primary Basis <==

  Basis Set: AUG-CC-PVQZ
    Blend: AUG-CC-PVQZ
    Number of shells: 240
    Number of basis function: 860
    Number of Cartesian functions: 1075
    Spherical Harmonics?: true
    Max angular momentum: 4

   => Loading Basis Set <=

    Name: (AUG-CC-PVQZ AUX)
    Role: JKFIT
    Keyword: DF_BASIS_SCF
    atoms 1, 4, 7, 10, 13             entry C          line   178 file /home/liuchw/anaconda3/envs/psi4env/share/psi4/basis/aug-cc-pvqz-jkfit.gbs 
    atoms 2-3, 5-6, 8-9, 11-12, 14-15 entry H          line    70 file /home/liuchw/anaconda3/envs/psi4env/share/psi4/basis/aug-cc-pvqz-jkfit.gbs 

  ==> Pre-Iterations <==

   -------------------------------------------------------
    Irrep   Nso     Nmo     Nalpha   Nbeta   Ndocc  Nsocc
   -------------------------------------------------------
     A        860     860       0       0       0       0
   -------------------------------------------------------
    Total     860     860      20      20      20       0
   -------------------------------------------------------

  ==> Integral Setup <==

  DFHelper Memory: AOs need 8.163 GiB; user supplied 13.970 GiB. Using in-core AOs.

  ==> MemDFJK: Density-Fitted J/K Matrices <==

    J tasked:                   Yes
    K tasked:                   Yes
    wK tasked:                   No
    OpenMP threads:               8
    Memory [MiB]:             14305
    Algorithm:                 Core
    Schwarz Cutoff:           1E-12
    Mask sparsity (%):       2.2096
    Fitting Condition:        1E-10

   => Auxiliary Basis Set <=

  Basis Set: (AUG-CC-PVQZ AUX)
    Blend: AUG-CC-PVQZ-JKFIT
    Number of shells: 350
    Number of basis function: 1470
    Number of Cartesian functions: 2000
    Spherical Harmonics?: true
    Max angular momentum: 5

  Minimum eigenvalue in the overlap matrix is 5.4271708412E-07.
  Using Symmetric Orthogonalization.

  SCF Guess: Superposition of Atomic Densities via on-the-fly atomic UHF.

  ==> Iterations <==

                           Total Energy        Delta E     RMS |[F,P]|

   @DF-RHF iter SAD:  -195.16020576880055   -1.95160e+02   0.00000e+00 
   @DF-RHF iter   1:  -194.98601977843825    1.74186e-01   7.54278e-04 DIIS
   @DF-RHF iter   2:  -195.16833752291069   -1.82318e-01   4.36739e-04 DIIS
   @DF-RHF iter   3:  -195.23832138798645   -6.99839e-02   6.62155e-05 DIIS
   @DF-RHF iter   4:  -195.24150599535460   -3.18461e-03   1.06557e-05 DIIS
   @DF-RHF iter   5:  -195.24161565899070   -1.09664e-04   2.31182e-06 DIIS
   @DF-RHF iter   6:  -195.24162078112121   -5.12213e-06   2.93330e-07 DIIS
   @DF-RHF iter   7:  -195.24162085980561   -7.86844e-08   5.31401e-08 DIIS
   @DF-RHF iter   8:  -195.24162086135686   -1.55126e-09   1.86286e-08 DIIS
   @DF-RHF iter   9:  -195.24162086152887   -1.72008e-10   2.61705e-09 DIIS
  Energy and wave function converged.


  ==> Post-Iterations <==

    Orbital Energies [Eh]
    ---------------------

    Doubly Occupied:                                                      

       1A    -11.209357     2A    -11.208974     3A    -11.208944  
       4A    -11.208331     5A    -11.208203     6A     -1.116036  
       7A     -0.956496     8A     -0.955659     9A     -0.776843  
      10A     -0.767145    11A     -0.649801    12A     -0.644766  
      13A     -0.569940    14A     -0.568089    15A     -0.475396  
      16A     -0.474496    17A     -0.463613    18A     -0.460483  
      19A     -0.459265    20A     -0.448920  

    Virtual:                                                              

      21A      0.028272    22A      0.033969    23A      0.034199  
      24A      0.035184    25A      0.050665    26A      0.052005  
      27A      0.052435    28A      0.053996    29A      0.055028  
      30A      0.070264    31A      0.102097    32A      0.103108  
      33A      0.107121    34A      0.109020    35A      0.110092  
      36A      0.111407    37A      0.114538    38A      0.117116  
      39A      0.118465    40A      0.124876    41A      0.126589  
      42A      0.141148    43A      0.141433    44A      0.144723  
      45A      0.145996    46A      0.162664    47A      0.163557  
      48A      0.178409    49A      0.182193    50A      0.190979  
      51A      0.225913    52A      0.239236    53A      0.244850  
      54A      0.247941    55A      0.252822    56A      0.257108  
      57A      0.258594    58A      0.264668    59A      0.268135  
      60A      0.269199    61A      0.273949    62A      0.276365  
      63A      0.280353    64A      0.286355    65A      0.296502  
      66A      0.299131    67A      0.304572    68A      0.304998  
      69A      0.307797    70A      0.316442    71A      0.317658  
      72A      0.344273    73A      0.346189    74A      0.346513  
      75A      0.348773    76A      0.351383    77A      0.354708  
      78A      0.358026    79A      0.359799    80A      0.362246  
      81A      0.364230    82A      0.365856    83A      0.366931  
      84A      0.371976    85A      0.373058    86A      0.377902  
      87A      0.390043    88A      0.415377    89A      0.418154  
      90A      0.432737    91A      0.434961    92A      0.436734  
      93A      0.438098    94A      0.443597    95A      0.448775  
      96A      0.450601    97A      0.452567    98A      0.456880  
      99A      0.457677   100A      0.465001   101A      0.472147  
     102A      0.479698   103A      0.480093   104A      0.482372  
     105A      0.483440   106A      0.488066   107A      0.498827  
     108A      0.502356   109A      0.502782   110A      0.523294  
     111A      0.523349   112A      0.529218   113A      0.536397  
     114A      0.539593   115A      0.548836   116A      0.551834  
     117A      0.557448   118A      0.565799   119A      0.581858  
     120A      0.587874   121A      0.596856   122A      0.603984  
     123A      0.611468   124A      0.616640   125A      0.628826  
     126A      0.633593   127A      0.648791   128A      0.654310  
     129A      0.671014   130A      0.674907   131A      0.682707  
     132A      0.687846   133A      0.693311   134A      0.700966  
     135A      0.707187   136A      0.711146   137A      0.718669  
     138A      0.719248   139A      0.725625   140A      0.727366  
     141A      0.732361   142A      0.735844   143A      0.744039  
     144A      0.745859   145A      0.751666   146A      0.754237  
     147A      0.756344   148A      0.764208   149A      0.768798  
     150A      0.772405   151A      0.777026   152A      0.783659  
     153A      0.785667   154A      0.791951   155A      0.814657  
     156A      0.824723   157A      0.842076   158A      0.848753  
     159A      0.849646   160A      0.874252   161A      0.877144  
     162A      0.883127   163A      0.894463   164A      0.900615  
     165A      0.914291   166A      0.914890   167A      0.920755  
     168A      0.923368   169A      0.937070   170A      0.940577  
     171A      0.945261   172A      0.952117   173A      0.967891  
     174A      0.970039   175A      0.971766   176A      0.982720  
     177A      0.992514   178A      1.002403   179A      1.012477  
     180A      1.013265   181A      1.018999   182A      1.022468  
     183A      1.023477   184A      1.032699   185A      1.045049  
     186A      1.051815   187A      1.057547   188A      1.059673  
     189A      1.062838   190A      1.069545   191A      1.078772  
     192A      1.089023   193A      1.101561   194A      1.102973  
     195A      1.111092   196A      1.122402   197A      1.128677  
     198A      1.135222   199A      1.143155   200A      1.156261  
     201A      1.158014   202A      1.170853   203A      1.179731  
     204A      1.183474   205A      1.185447   206A      1.196576  
     207A      1.200629   208A      1.203838   209A      1.210088  
     210A      1.216813   211A      1.221119   212A      1.222218  
     213A      1.233455   214A      1.247826   215A      1.251462  
     216A      1.254533   217A      1.261548   218A      1.264118  
     219A      1.267269   220A      1.273379   221A      1.281999  
     222A      1.288788   223A      1.301692   224A      1.310727  
     225A      1.319016   226A      1.331023   227A      1.333138  
     228A      1.338429   229A      1.355286   230A      1.363423  
     231A      1.366067   232A      1.394633   233A      1.409215  
     234A      1.422866   235A      1.426092   236A      1.443014  
     237A      1.451873   238A      1.452153   239A      1.455378  
     240A      1.465949   241A      1.489782   242A      1.497846  
     243A      1.506832   244A      1.510969   245A      1.520258  
     246A      1.530104   247A      1.536198   248A      1.545145  
     249A      1.549255   250A      1.562494   251A      1.576566  
     252A      1.581071   253A      1.598420   254A      1.607671  
     255A      1.614694   256A      1.618507   257A      1.627474  
     258A      1.661247   259A      1.686462   260A      1.691007  
     261A      1.696864   262A      1.702555   263A      1.707778  
     264A      1.714630   265A      1.723203   266A      1.738137  
     267A      1.740428   268A      1.761136   269A      1.765715  
     270A      1.773354   271A      1.778933   272A      1.785302  
     273A      1.790774   274A      1.818653   275A      1.824374  
     276A      1.833611   277A      1.839628   278A      1.845223  
     279A      1.853625   280A      1.862794   281A      1.879991  
     282A      1.891862   283A      1.901938   284A      1.917139  
     285A      1.940137   286A      1.942450   287A      1.949665  
     288A      1.952058   289A      1.972054   290A      1.977456  
     291A      1.982393   292A      1.990410   293A      2.004265  
     294A      2.022794   295A      2.024131   296A      2.031014  
     297A      2.036102   298A      2.047830   299A      2.050084  
     300A      2.067971   301A      2.074288   302A      2.084260  
     303A      2.087454   304A      2.091759   305A      2.095977  
     306A      2.101506   307A      2.109456   308A      2.132851  
     309A      2.137695   310A      2.143711   311A      2.146600  
     312A      2.157566   313A      2.160150   314A      2.174785  
     315A      2.180501   316A      2.194723   317A      2.198722  
     318A      2.208253   319A      2.214356   320A      2.224251  
     321A      2.226328   322A      2.229141   323A      2.235703  
     324A      2.248334   325A      2.250642   326A      2.262153  
     327A      2.266072   328A      2.273626   329A      2.279565  
     330A      2.284981   331A      2.295356   332A      2.300863  
     333A      2.302421   334A      2.307576   335A      2.318801  
     336A      2.325881   337A      2.329393   338A      2.337714  
     339A      2.344960   340A      2.347441   341A      2.360419  
     342A      2.375860   343A      2.383642   344A      2.391044  
     345A      2.397331   346A      2.413835   347A      2.420364  
     348A      2.429263   349A      2.435605   350A      2.445318  
     351A      2.450514   352A      2.454417   353A      2.479942  
     354A      2.490256   355A      2.498300   356A      2.504735  
     357A      2.513922   358A      2.521027   359A      2.524062  
     360A      2.531551   361A      2.540799   362A      2.550645  
     363A      2.556452   364A      2.562295   365A      2.570646  
     366A      2.574459   367A      2.584763   368A      2.606831  
     369A      2.624297   370A      2.644536   371A      2.652107  
     372A      2.652636   373A      2.672772   374A      2.674464  
     375A      2.690260   376A      2.697989   377A      2.705387  
     378A      2.711552   379A      2.719560   380A      2.735924  
     381A      2.745854   382A      2.750537   383A      2.755921  
     384A      2.773006   385A      2.789869   386A      2.798760  
     387A      2.822164   388A      2.824996   389A      2.828858  
     390A      2.847528   391A      2.854447   392A      2.859468  
     393A      2.892850   394A      2.899284   395A      2.919443  
     396A      2.936630   397A      2.942029   398A      2.946059  
     399A      2.953331   400A      2.957086   401A      2.970993  
     402A      2.981029   403A      3.000537   404A      3.024679  
     405A      3.033225   406A      3.046368   407A      3.058177  
     408A      3.060089   409A      3.074530   410A      3.087218  
     411A      3.095595   412A      3.102715   413A      3.128503  
     414A      3.129815   415A      3.142712   416A      3.150318  
     417A      3.164632   418A      3.183617   419A      3.201882  
     420A      3.209555   421A      3.211615   422A      3.228191  
     423A      3.234813   424A      3.243991   425A      3.245530  
     426A      3.260566   427A      3.271548   428A      3.274637  
     429A      3.279958   430A      3.305449   431A      3.312444  
     432A      3.333238   433A      3.340288   434A      3.346081  
     435A      3.360687   436A      3.380704   437A      3.386916  
     438A      3.387852   439A      3.404857   440A      3.422314  
     441A      3.426365   442A      3.428155   443A      3.441895  
     444A      3.472828   445A      3.478090   446A      3.487579  
     447A      3.498222   448A      3.513392   449A      3.515874  
     450A      3.531170   451A      3.545457   452A      3.554710  
     453A      3.566903   454A      3.571402   455A      3.596297  
     456A      3.615276   457A      3.619463   458A      3.626443  
     459A      3.643901   460A      3.654048   461A      3.663030  
     462A      3.692289   463A      3.698478   464A      3.709951  
     465A      3.732286   466A      3.755726   467A      3.758064  
     468A      3.765375   469A      3.790336   470A      3.806778  
     471A      3.827551   472A      3.835959   473A      3.854598  
     474A      3.857035   475A      3.865822   476A      3.876928  
     477A      3.890068   478A      3.916622   479A      3.929914  
     480A      3.941980   481A      3.961896   482A      3.974805  
     483A      3.990472   484A      3.994109   485A      4.019550  
     486A      4.028425   487A      4.032638   488A      4.035946  
     489A      4.063442   490A      4.076492   491A      4.091808  
     492A      4.096620   493A      4.112858   494A      4.122731  
     495A      4.128207   496A      4.142360   497A      4.155580  
     498A      4.162570   499A      4.188600   500A      4.197528  
     501A      4.223938   502A      4.240607   503A      4.257463  
     504A      4.262820   505A      4.272764   506A      4.276383  
     507A      4.310255   508A      4.322413   509A      4.344908  
     510A      4.366027   511A      4.371107   512A      4.384239  
     513A      4.395516   514A      4.403157   515A      4.425232  
     516A      4.433181   517A      4.444833   518A      4.451017  
     519A      4.467326   520A      4.470836   521A      4.489727  
     522A      4.534777   523A      4.544478   524A      4.553665  
     525A      4.576154   526A      4.583178   527A      4.614845  
     528A      4.615802   529A      4.629106   530A      4.638232  
     531A      4.667848   532A      4.676198   533A      4.678346  
     534A      4.693056   535A      4.714177   536A      4.724342  
     537A      4.727425   538A      4.742347   539A      4.757081  
     540A      4.797556   541A      4.800752   542A      4.836328  
     543A      4.843833   544A      4.860766   545A      4.870887  
     546A      4.885287   547A      4.915072   548A      4.924264  
     549A      4.929488   550A      4.940953   551A      4.981781  
     552A      4.990621   553A      5.004568   554A      5.025128  
     555A      5.070820   556A      5.079038   557A      5.103273  
     558A      5.123055   559A      5.178444   560A      5.183325  
     561A      5.214215   562A      5.217663   563A      5.236886  
     564A      5.241320   565A      5.305517   566A      5.335966  
     567A      5.365423   568A      5.387133   569A      5.395370  
     570A      5.410153   571A      5.465716   572A      5.474744  
     573A      5.528569   574A      5.542835   575A      5.557437  
     576A      6.192597   577A      6.213198   578A      6.278470  
     579A      6.287763   580A      6.301482   581A      6.332683  
     582A      6.340423   583A      6.352873   584A      6.415716  
     585A      6.449387   586A      6.464853   587A      6.467851  
     588A      6.496999   589A      6.517072   590A      6.539808  
     591A      6.560999   592A      6.605040   593A      6.637731  
     594A      6.640752   595A      6.650320   596A      6.697128  
     597A      6.708999   598A      6.728982   599A      6.749233  
     600A      6.788492   601A      6.801949   602A      6.826514  
     603A      6.833440   604A      6.835047   605A      6.850775  
     606A      6.863468   607A      6.872635   608A      6.893836  
     609A      6.895493   610A      6.909613   611A      6.917552  
     612A      6.931899   613A      6.939655   614A      6.951147  
     615A      6.963074   616A      6.985902   617A      6.996069  
     618A      7.017194   619A      7.024732   620A      7.034066  
     621A      7.039206   622A      7.052095   623A      7.060814  
     624A      7.064286   625A      7.072399   626A      7.093882  
     627A      7.100270   628A      7.110253   629A      7.120799  
     630A      7.138872   631A      7.153618   632A      7.159148  
     633A      7.174538   634A      7.190111   635A      7.207674  
     636A      7.216222   637A      7.233683   638A      7.249237  
     639A      7.279488   640A      7.291878   641A      7.303008  
     642A      7.324515   643A      7.330275   644A      7.350185  
     645A      7.375643   646A      7.380176   647A      7.391201  
     648A      7.409297   649A      7.417327   650A      7.435935  
     651A      7.468859   652A      7.473664   653A      7.477948  
     654A      7.502684   655A      7.509308   656A      7.528677  
     657A      7.538953   658A      7.551223   659A      7.572485  
     660A      7.578633   661A      7.590069   662A      7.597693  
     663A      7.611118   664A      7.621435   665A      7.642198  
     666A      7.670377   667A      7.678962   668A      7.719848  
     669A      7.732072   670A      7.739099   671A      7.754330  
     672A      7.756443   673A      7.775944   674A      7.794737  
     675A      7.802380   676A      7.838178   677A      7.842873  
     678A      7.893864   679A      7.924204   680A      7.933530  
     681A      7.942392   682A      7.955424   683A      7.964891  
     684A      7.979980   685A      8.013688   686A      8.018964  
     687A      8.043604   688A      8.079515   689A      8.100108  
     690A      8.112171   691A      8.120500   692A      8.159236  
     693A      8.183775   694A      8.198454   695A      8.215441  
     696A      8.247154   697A      8.268493   698A      8.286457  
     699A      8.293907   700A      8.298003   701A      8.300728  
     702A      8.357223   703A      8.382576   704A      8.414086  
     705A      8.432669   706A      8.482998   707A      8.502872  
     708A      8.516414   709A      8.541897   710A      8.550019  
     711A      8.586470   712A      8.594757   713A      8.599313  
     714A      8.628674   715A      8.644523   716A      8.663595  
     717A      8.689222   718A      8.702324   719A      8.726659  
     720A      8.740090   721A      8.755601   722A      8.772377  
     723A      8.799102   724A      8.828105   725A      8.846257  
     726A      8.856670   727A      8.871821   728A      8.908749  
     729A      8.918617   730A      8.937109   731A      8.951284  
     732A      8.960050   733A      8.988922   734A      9.021614  
     735A      9.056566   736A      9.086451   737A      9.105057  
     738A      9.132155   739A      9.138457   740A      9.186107  
     741A      9.196450   742A      9.215570   743A      9.231491  
     744A      9.259265   745A      9.287124   746A      9.310606  
     747A      9.318632   748A      9.340086   749A      9.368471  
     750A      9.373744   751A      9.393426   752A      9.412839  
     753A      9.415457   754A      9.432800   755A      9.441013  
     756A      9.470254   757A      9.475114   758A      9.489846  
     759A      9.528353   760A      9.537898   761A      9.544110  
     762A      9.572381   763A      9.615836   764A      9.626674  
     765A      9.629217   766A      9.680838   767A      9.719775  
     768A      9.723888   769A      9.730389   770A      9.744525  
     771A      9.748286   772A      9.759366   773A      9.764119  
     774A      9.784486   775A      9.799675   776A      9.810407  
     777A      9.841870   778A      9.854966   779A      9.880750  
     780A      9.885145   781A      9.920381   782A      9.950517  
     783A      9.961854   784A      9.971403   785A      9.972914  
     786A      9.988224   787A      9.998060   788A     10.012390  
     789A     10.021602   790A     10.033962   791A     10.038012  
     792A     10.063506   793A     10.101796   794A     10.142408  
     795A     10.153860   796A     10.172134   797A     10.185502  
     798A     10.236438   799A     10.251846   800A     10.258897  
     801A     10.308550   802A     10.327501   803A     10.336083  
     804A     10.341523   805A     10.382070   806A     10.390974  
     807A     10.430608   808A     10.459502   809A     10.492276  
     810A     10.517255   811A     10.519998   812A     10.539864  
     813A     10.544941   814A     10.573400   815A     10.591861  
     816A     10.632145   817A     10.659761   818A     10.718699  
     819A     10.772827   820A     10.780403   821A     10.839337  
     822A     10.886800   823A     10.921536   824A     10.928317  
     825A     10.951691   826A     10.991045   827A     11.002459  
     828A     11.021810   829A     11.059234   830A     11.078632  
     831A     11.121256   832A     11.136569   833A     11.167211  
     834A     11.186880   835A     11.210416   836A     11.224644  
     837A     11.257439   838A     11.321938   839A     11.358077  
     840A     11.371902   841A     11.472554   842A     11.596647  
     843A     11.642482   844A     11.693911   845A     11.910451  
     846A     13.398940   847A     13.468241   848A     13.521411  
     849A     13.567941   850A     13.600108   851A     13.657306  
     852A     13.677143   853A     13.749816   854A     13.842629  
     855A     13.948847   856A     28.297030   857A     28.479876  
     858A     28.546697   859A     28.610555   860A     28.715500  

    Final Occupation by Irrep:
              A 
    DOCC [    20 ]

  @DF-RHF Final Energy:  -195.24162086152887

   => Energetics <=

    Nuclear Repulsion Energy =            188.3784059783559428
    One-Electron Energy =                -635.5785342425294857
    Two-Electron Energy =                 251.9585074026446705
    Total Energy =                       -195.2416208615288724

Computation Completed


Properties will be evaluated at   0.000000,   0.000000,   0.000000 [a0]

Properties computed using the SCF density matrix

  Nuclear Dipole Moment: [e a0]
     X:     4.3337      Y:     8.5454      Z:   195.2164

  Electronic Dipole Moment: [e a0]
     X:    -4.3383      Y:    -8.5413      Z:  -195.2144

  Dipole Moment: [e a0]
     X:    -0.0046      Y:     0.0040      Z:     0.0020     Total:     0.0065

  Dipole Moment: [D]
     X:    -0.0118      Y:     0.0103      Z:     0.0050     Total:     0.0164


*** tstop() called on node36.bme.utexas.edu at Thu Apr 23 20:59:58 2020
Module time:
	user time   =     351.15 seconds =       5.85 minutes
	system time =      41.70 seconds =       0.70 minutes
	total time  =         55 seconds =       0.92 minutes
Total time:
	user time   =     457.40 seconds =       7.62 minutes
	system time =      47.32 seconds =       0.79 minutes
	total time  =         73 seconds =       1.22 minutes

*** tstart() called on node36.bme.utexas.edu
*** at Thu Apr 23 20:59:58 2020


  //>>>>>>>>>>>>>>>>>>>>>>>>>>>>>>>>>>>//
  //               DFMP2               //
  //<<<<<<<<<<<<<<<<<<<<<<<<<<<<<<<<<<<//

   => Loading Basis Set <=

    Name: (AUG-CC-PVQZ AUX)
    Role: RIFIT
    Keyword: DF_BASIS_MP2
    atoms 1, 4, 7, 10, 13             entry C          line   184 file /home/liuchw/anaconda3/envs/psi4env/share/psi4/basis/aug-cc-pvqz-ri.gbs 
    atoms 2-3, 5-6, 8-9, 11-12, 14-15 entry H          line    30 file /home/liuchw/anaconda3/envs/psi4env/share/psi4/basis/aug-cc-pvqz-ri.gbs 

	 --------------------------------------------------------
	                          DF-MP2                         
	      2nd-Order Density-Fitted Moller-Plesset Theory     
	              RMP2 Wavefunction,   8 Threads             
	                                                         
	        Rob Parrish, Justin Turney, Andy Simmonett,      
	           Ed Hohenstein, and C. David Sherrill          
	 --------------------------------------------------------

   => Auxiliary Basis Set <=

  Basis Set: (AUG-CC-PVQZ AUX)
    Blend: AUG-CC-PVQZ-RI
    Number of shells: 380
    Number of basis function: 1640
    Number of Cartesian functions: 2235
    Spherical Harmonics?: true
    Max angular momentum: 5

	 --------------------------------------------------------
	                 NBF =   860, NAUX =  1640
	 --------------------------------------------------------
	   CLASS    FOCC     OCC    AOCC    AVIR     VIR    FVIR
	   PAIRS       0      20      20     840     840       0
	 --------------------------------------------------------

	-----------------------------------------------------------
	 ==================> DF-MP2 Energies <==================== 
	-----------------------------------------------------------
	 Reference Energy          =    -195.2416208615288724 [Eh]
	 Singles Energy            =      -0.0000000000000000 [Eh]
	 Same-Spin Energy          =      -0.2222384996333668 [Eh]
	 Opposite-Spin Energy      =      -0.8494259276073748 [Eh]
	 Correlation Energy        =      -1.0716644272407416 [Eh]
	 Total Energy              =    -196.3132852887696060 [Eh]
	-----------------------------------------------------------
	 ================> DF-SCS-MP2 Energies <================== 
	-----------------------------------------------------------
	 SCS Same-Spin Scale       =       0.3333333333333333 [-]
	 SCS Opposite-Spin Scale   =       1.2000000000000000 [-]
	 SCS Same-Spin Energy      =      -0.0740794998777889 [Eh]
	 SCS Opposite-Spin Energy  =      -1.0193111131288497 [Eh]
	 SCS Correlation Energy    =      -1.0933906130066386 [Eh]
	 SCS Total Energy          =    -196.3350114745355199 [Eh]
	-----------------------------------------------------------


*** tstop() called on node36.bme.utexas.edu at Thu Apr 23 21:00:30 2020
Module time:
	user time   =     155.53 seconds =       2.59 minutes
	system time =      12.70 seconds =       0.21 minutes
	total time  =         32 seconds =       0.53 minutes
Total time:
	user time   =     612.94 seconds =      10.22 minutes
	system time =      60.02 seconds =       1.00 minutes
	total time  =        105 seconds =       1.75 minutes

  //>>>>>>>>>>>>>>>>>>>>>>>>>>>>>>>>>>>//
  //  CBS Results: mp2/aug-cc-pv[tq]z  //
  //<<<<<<<<<<<<<<<<<<<<<<<<<<<<<<<<<<<//


   ==> HF <==

   HI-zeta (4) Energy:               -195.241620861529


   ==> Helgaker 2-point correlated extrapolation for method: MP2 <==

   LO-zeta (3) Energy:               -196.207033211729
   HI-zeta (4) Energy:               -196.313285288770
   Alpha (exponent) Value:             3.000000000000
   Extrapolated Energy:              -196.390820588232

   @Extrapolated MP2/(T,Q):          -196.390820588232



   ==> Helgaker 2-point correlated extrapolation for method: HF <==

   LO-zeta (3) Energy:               -195.230133308614
   HI-zeta (4) Energy:               -195.241620861529
   Alpha (exponent) Value:             3.000000000000
   Extrapolated Energy:              -195.250003670413

   @Extrapolated HF/(T,Q):           -195.250003670413


   ==> Components <==

  ---------------------------------------------------------------------------------------------------------
                          Method / Basis                      Rqd      Energy [Eh]   Variable
  ---------------------------------------------------------------------------------------------------------
                              hf / aug-cc-pvtz                  *    -195.23013331   HF TOTAL ENERGY
                             mp2 / aug-cc-pvtz                  *    -196.20703321   MP2 TOTAL ENERGY
                              hf / aug-cc-pvqz                  *    -195.24162086   HF TOTAL ENERGY
                             mp2 / aug-cc-pvqz                  *    -196.31328529   MP2 TOTAL ENERGY
  ---------------------------------------------------------------------------------------------------------

   ==> Stages <==

  ---------------------------------------------------------------------------------------------------------
      Stage               Method / Basis                       Wt      Energy [Eh]   Scheme
  ---------------------------------------------------------------------------------------------------------
        scf                   hf / aug-cc-pvqz                  1    -195.24162086   xtpl_highest_1
       corl                  mp2 / aug-cc-pv[tq]z               1    -196.39082059   corl_xtpl_helgaker_2
       corl                   hf / aug-cc-pv[tq]z              -1    -195.25000367   corl_xtpl_helgaker_2
  ---------------------------------------------------------------------------------------------------------

   ==> CBS <==

  ---------------------------------------------------------------------------------------------------------
      Stage               Method / Basis                               Energy [Eh]   Scheme
  ---------------------------------------------------------------------------------------------------------
        scf                   hf / aug-cc-pvqz                       -195.24162086   xtpl_highest_1
       corl                  mp2 / aug-cc-pv[tq]z                      -1.14081692   corl_xtpl_helgaker_2
      total                  CBS                                     -196.38243778   
  ---------------------------------------------------------------------------------------------------------
   => Loading Basis Set <=

    Name: DEF2-SVP
    Role: ORBITAL
    Keyword: BASIS
    atoms 1, 4, 7, 10, 13             entry C          line    90 file /home/liuchw/anaconda3/envs/psi4env/share/psi4/basis/def2-svp.gbs 
    atoms 2-3, 5-6, 8-9, 11-12, 14-15 entry H          line    15 file /home/liuchw/anaconda3/envs/psi4env/share/psi4/basis/def2-svp.gbs 


       N-Body: Complex Energy (fragments = (2,), basis = (2,):  -196.38243777934773)

       N-Body: Computing complex (2/4) with fragments (2,) in the basis of fragments (1, 2).


Scratch directory: /scratch/liuchw/

  //>>>>>>>>>>>>>>>>>>>>>>>>>>>>>>>>>>>//
  //   CBS Setup: mp2/aug-cc-pv[tq]z   //
  //<<<<<<<<<<<<<<<<<<<<<<<<<<<<<<<<<<<//

    Naive listing of computations required.
             hf / aug-cc-pvqz              for  HF TOTAL ENERGY
            mp2 / aug-cc-pvtz              for  MP2 TOTAL ENERGY
            mp2 / aug-cc-pvqz              for  MP2 TOTAL ENERGY
             hf / aug-cc-pvtz              for  HF TOTAL ENERGY
             hf / aug-cc-pvqz              for  HF TOTAL ENERGY

    Enlightened listing of computations required.
            mp2 / aug-cc-pvtz              for  MP2 TOTAL ENERGY
            mp2 / aug-cc-pvqz              for  MP2 TOTAL ENERGY

    Full listing of computations to be obtained (required and bonus).
             hf / aug-cc-pvtz              for  HF TOTAL ENERGY
            mp2 / aug-cc-pvtz              for  MP2 TOTAL ENERGY
             hf / aug-cc-pvqz              for  HF TOTAL ENERGY
            mp2 / aug-cc-pvqz              for  MP2 TOTAL ENERGY

  //>>>>>>>>>>>>>>>>>>>>>>>>>>>>>>>>>>>>//
  // CBS Computation: MP2 / AUG-CC-PVTZ //
  //<<<<<<<<<<<<<<<<<<<<<<<<<<<<<<<<<<<<//


Scratch directory: /scratch/liuchw/

*** tstart() called on node36.bme.utexas.edu
*** at Thu Apr 23 21:00:33 2020

   => Loading Basis Set <=

    Name: AUG-CC-PVTZ
    Role: ORBITAL
    Keyword: BASIS
    atoms 1, 4, 7, 10, 13, 16, 19, 22, 25, 28                            entry C          line   239 file /home/liuchw/anaconda3/envs/psi4env/share/psi4/basis/aug-cc-pvtz.gbs 
    atoms 2-3, 5-6, 8-9, 11-12, 14-15, 17-18, 20-21, 23-24, 26-27, 29-30 entry H          line    40 file /home/liuchw/anaconda3/envs/psi4env/share/psi4/basis/aug-cc-pvtz.gbs 


         ---------------------------------------------------------
                                   SCF
               by Justin Turney, Rob Parrish, Andy Simmonett
                          and Daniel G. A. Smith
                              RHF Reference
                        8 Threads,  19073 MiB Core
         ---------------------------------------------------------

  ==> Geometry <==

    Molecular point group: c1
    Full point group: C1

    Geometry (in Angstrom), charge = 0, multiplicity = 1:

       Center              X                  Y                   Z               Mass       
    ------------   -----------------  -----------------  -----------------  -----------------
      Gh(C)           0.947826380215    -0.913652031126    -2.405848411344    12.000000000000
      Gh(H)           1.495516380215    -1.300162031126    -3.264378411344     1.007825032230
      Gh(H)           1.412326380215    -1.336582031126    -1.516768411344     1.007825032230
      Gh(C)           0.981896380215     0.636707968874    -2.402298411344    12.000000000000
      Gh(H)           1.501536380215     1.001297968874    -3.287848411344     1.007825032230
      Gh(H)           1.507206380215     1.038017968874    -1.537258411344     1.007825032230
      Gh(C)          -0.488503619785     1.080517968874    -2.443918411344    12.000000000000
      Gh(H)          -0.625323619785     2.043077968874    -2.934228411344     1.007825032230
      Gh(H)          -0.883793619785     1.167267968874    -1.429728411344     1.007825032230
      Gh(C)          -1.191163619785    -0.074602031126    -3.154448411344    12.000000000000
      Gh(H)          -0.957933619785    -0.048632031126    -4.221598411344     1.007825032230
      Gh(H)          -2.274713619785    -0.055362031126    -3.046528411344     1.007825032230
      Gh(C)          -0.539713619785    -1.296692031126    -2.508488411344    12.000000000000
      Gh(H)          -0.699443619785    -2.218822031126    -3.064808411344     1.007825032230
      Gh(H)          -0.959903619785    -1.437212031126    -1.511048411344     1.007825032230
         C           -1.120463619785    -0.364352031126     2.447751588656    12.000000000000
         H           -1.453593619785    -0.127652031126     1.435161588656     1.007825032230
         H           -1.925243619785    -0.907452031126     2.940731588656     1.007825032230
         C            0.193146380215    -1.159902031126     2.399981588656    12.000000000000
         H            0.243096380215    -1.817642031126     1.533851588656     1.007825032230
         H            0.273436380215    -1.791262031126     3.284371588656     1.007825032230
         C            1.322466380215    -0.097192031126     2.400581588656    12.000000000000
         H            1.943726380215    -0.157872031126     1.508711588656     1.007825032230
         H            1.979876380215    -0.247072031126     3.255991588656     1.007825032230
         C            0.612286380215     1.264477968874     2.508451588656    12.000000000000
         H            0.432426380215     1.672967968874     1.512451588656     1.007825032230
         H            1.192676380215     1.998877968874     3.064421588656     1.007825032230
         C           -0.729763619785     0.930007968874     3.158261588656    12.000000000000
         H           -1.469433619785     1.722517968874     3.053381588656     1.007825032230
         H           -0.589723619785     0.738357968874     4.224811588656     1.007825032230

  Running in c1 symmetry.

  Rotational constants: A =      0.06553  B =      0.01540  C =      0.01537 [cm^-1]
  Rotational constants: A =   1964.64167  B =    461.75157  C =    460.77573 [MHz]
  Nuclear repulsion =  188.378405978355943

  Charge       = 0
  Multiplicity = 1
  Electrons    = 40
  Nalpha       = 20
  Nbeta        = 20

  ==> Algorithm <==

  SCF Algorithm Type is DF.
  DIIS enabled.
  MOM disabled.
  Fractional occupation disabled.
  Guess Type is SAD.
  Energy threshold   = 1.00e-07
  Density threshold  = 1.00e-08
  Integral threshold = 0.00e+00

  ==> Primary Basis <==

  Basis Set: AUG-CC-PVTZ
    Blend: AUG-CC-PVTZ
    Number of shells: 320
    Number of basis function: 920
    Number of Cartesian functions: 1050
    Spherical Harmonics?: true
    Max angular momentum: 3

   => Loading Basis Set <=

    Name: (AUG-CC-PVTZ AUX)
    Role: JKFIT
    Keyword: DF_BASIS_SCF
    atoms 1, 4, 7, 10, 13, 16, 19, 22, 25, 28                            entry C          line   162 file /home/liuchw/anaconda3/envs/psi4env/share/psi4/basis/aug-cc-pvtz-jkfit.gbs 
    atoms 2-3, 5-6, 8-9, 11-12, 14-15, 17-18, 20-21, 23-24, 26-27, 29-30 entry H          line    70 file /home/liuchw/anaconda3/envs/psi4env/share/psi4/basis/aug-cc-pvtz-jkfit.gbs 

  ==> Pre-Iterations <==

   -------------------------------------------------------
    Irrep   Nso     Nmo     Nalpha   Nbeta   Ndocc  Nsocc
   -------------------------------------------------------
     A        920     920       0       0       0       0
   -------------------------------------------------------
    Total     920     920      20      20      20       0
   -------------------------------------------------------

  ==> Integral Setup <==

  DFHelper Memory: AOs need 11.141 GiB; user supplied 13.970 GiB. Using in-core AOs.

  ==> MemDFJK: Density-Fitted J/K Matrices <==

    J tasked:                   Yes
    K tasked:                   Yes
    wK tasked:                   No
    OpenMP threads:               8
    Memory [MiB]:             14305
    Algorithm:                 Core
    Schwarz Cutoff:           1E-12
    Mask sparsity (%):      11.8819
    Fitting Condition:        1E-10

   => Auxiliary Basis Set <=

  Basis Set: (AUG-CC-PVTZ AUX)
    Blend: AUG-CC-PVTZ-JKFIT
    Number of shells: 580
    Number of basis function: 1960
    Number of Cartesian functions: 2410
    Spherical Harmonics?: true
    Max angular momentum: 4

  Minimum eigenvalue in the overlap matrix is 1.5226161065E-06.
  Using Symmetric Orthogonalization.

  SCF Guess: Superposition of Atomic Densities via on-the-fly atomic UHF.

  ==> Iterations <==

                           Total Energy        Delta E     RMS |[F,P]|

   @DF-RHF iter SAD:  -195.14898075815654   -1.95149e+02   0.00000e+00 
   @DF-RHF iter   1:  -194.97488405467624    1.74097e-01   7.04357e-04 DIIS
   @DF-RHF iter   2:  -195.15704213401932   -1.82158e-01   4.06852e-04 DIIS
   @DF-RHF iter   3:  -195.22688414391885   -6.98420e-02   6.11564e-05 DIIS
   @DF-RHF iter   4:  -195.23005117942535   -3.16704e-03   9.64634e-06 DIIS
   @DF-RHF iter   5:  -195.23015444292383   -1.03263e-04   2.10583e-06 DIIS
   @DF-RHF iter   6:  -195.23015937296131   -4.93004e-06   2.65402e-07 DIIS
   @DF-RHF iter   7:  -195.23015944761920   -7.46579e-08   4.84354e-08 DIIS
   @DF-RHF iter   8:  -195.23015944909542   -1.47622e-09   1.67603e-08 DIIS
   @DF-RHF iter   9:  -195.23015944925933   -1.63908e-10   2.35947e-09 DIIS
  Energy and wave function converged.


  ==> Post-Iterations <==

    Orbital Energies [Eh]
    ---------------------

    Doubly Occupied:                                                      

       1A    -11.210426     2A    -11.210047     3A    -11.210018  
       4A    -11.209406     5A    -11.209283     6A     -1.116275  
       7A     -0.956683     8A     -0.955845     9A     -0.776889  
      10A     -0.767197    11A     -0.649698    12A     -0.644635  
      13A     -0.569794    14A     -0.567943    15A     -0.475250  
      16A     -0.474345    17A     -0.463480    18A     -0.460298  
      19A     -0.459144    20A     -0.448716  

    Virtual:                                                              

      21A      0.018854    22A      0.031024    23A      0.031627  
      24A      0.032356    25A      0.042562    26A      0.042991  
      27A      0.044044    28A      0.049208    29A      0.049710  
      30A      0.059875    31A      0.063420    32A      0.064275  
      33A      0.065922    34A      0.066040    35A      0.066857  
      36A      0.087151    37A      0.087760    38A      0.089974  
      39A      0.092334    40A      0.093634    41A      0.101982  
      42A      0.104950    43A      0.107567    44A      0.116603  
      45A      0.118833    46A      0.121200    47A      0.124752  
      48A      0.126792    49A      0.127653    50A      0.130349  
      51A      0.135002    52A      0.139216    53A      0.143012  
      54A      0.147278    55A      0.150249    56A      0.153177  
      57A      0.154728    58A      0.155630    59A      0.158413  
      60A      0.160544    61A      0.160675    62A      0.165626  
      63A      0.166168    64A      0.167933    65A      0.173314  
      66A      0.176093    67A      0.182504    68A      0.183078  
      69A      0.185487    70A      0.191809    71A      0.192508  
      72A      0.196442    73A      0.196854    74A      0.201589  
      75A      0.213014    76A      0.227426    77A      0.229105  
      78A      0.234579    79A      0.235476    80A      0.244228  
      81A      0.248774    82A      0.263210    83A      0.277263  
      84A      0.285309    85A      0.289586    86A      0.290123  
      87A      0.294264    88A      0.295387    89A      0.299396  
      90A      0.302221    91A      0.303343    92A      0.306181  
      93A      0.312890    94A      0.318250    95A      0.321140  
      96A      0.324374    97A      0.326757    98A      0.329954  
      99A      0.334757   100A      0.337098   101A      0.337893  
     102A      0.340136   103A      0.345790   104A      0.350126  
     105A      0.351968   106A      0.355080   107A      0.356855  
     108A      0.362370   109A      0.366871   110A      0.367924  
     111A      0.372193   112A      0.373303   113A      0.378241  
     114A      0.379842   115A      0.380911   116A      0.384153  
     117A      0.388695   118A      0.390358   119A      0.398384  
     120A      0.400003   121A      0.405405   122A      0.407587  
     123A      0.408863   124A      0.412095   125A      0.414508  
     126A      0.416289   127A      0.421174   128A      0.426881  
     129A      0.433564   130A      0.435064   131A      0.438645  
     132A      0.438950   133A      0.445203   134A      0.449627  
     135A      0.453279   136A      0.456273   137A      0.457915  
     138A      0.466468   139A      0.471726   140A      0.473633  
     141A      0.477292   142A      0.487371   143A      0.491956  
     144A      0.493460   145A      0.494866   146A      0.501503  
     147A      0.503821   148A      0.505681   149A      0.510004  
     150A      0.513194   151A      0.519840   152A      0.523563  
     153A      0.528352   154A      0.533074   155A      0.535410  
     156A      0.537183   157A      0.540039   158A      0.542493  
     159A      0.549901   160A      0.551971   161A      0.555146  
     162A      0.564532   163A      0.566460   164A      0.569155  
     165A      0.570928   166A      0.573548   167A      0.575360  
     168A      0.580580   169A      0.583983   170A      0.588384  
     171A      0.595016   172A      0.596579   173A      0.601064  
     174A      0.604497   175A      0.608203   176A      0.611540  
     177A      0.614158   178A      0.619812   179A      0.621367  
     180A      0.627106   181A      0.629305   182A      0.632144  
     183A      0.634093   184A      0.641413   185A      0.645102  
     186A      0.651386   187A      0.656473   188A      0.658022  
     189A      0.660858   190A      0.665772   191A      0.669538  
     192A      0.675144   193A      0.678742   194A      0.680896  
     195A      0.689908   196A      0.691672   197A      0.696584  
     198A      0.701216   199A      0.704274   200A      0.707198  
     201A      0.711690   202A      0.718383   203A      0.719113  
     204A      0.723820   205A      0.730143   206A      0.731357  
     207A      0.735423   208A      0.738803   209A      0.740680  
     210A      0.743867   211A      0.750829   212A      0.754936  
     213A      0.759566   214A      0.761139   215A      0.766679  
     216A      0.772385   217A      0.782479   218A      0.793360  
     219A      0.798631   220A      0.806220   221A      0.807702  
     222A      0.814086   223A      0.819378   224A      0.824384  
     225A      0.831402   226A      0.834991   227A      0.842486  
     228A      0.852578   229A      0.854304   230A      0.858691  
     231A      0.864142   232A      0.869206   233A      0.870308  
     234A      0.878034   235A      0.884081   236A      0.893621  
     237A      0.901938   238A      0.906454   239A      0.914453  
     240A      0.917689   241A      0.922375   242A      0.926032  
     243A      0.930580   244A      0.939532   245A      0.943168  
     246A      0.948390   247A      0.958148   248A      0.961751  
     249A      0.968092   250A      0.972972   251A      0.978692  
     252A      0.981877   253A      0.987304   254A      0.998094  
     255A      1.001256   256A      1.005967   257A      1.010945  
     258A      1.013134   259A      1.018043   260A      1.025662  
     261A      1.028392   262A      1.040322   263A      1.042508  
     264A      1.049677   265A      1.054108   266A      1.058409  
     267A      1.061767   268A      1.064635   269A      1.069313  
     270A      1.071162   271A      1.077925   272A      1.078995  
     273A      1.089320   274A      1.090115   275A      1.096827  
     276A      1.102923   277A      1.106154   278A      1.113646  
     279A      1.117694   280A      1.122085   281A      1.127355  
     282A      1.129123   283A      1.133878   284A      1.136508  
     285A      1.137879   286A      1.141530   287A      1.148447  
     288A      1.158754   289A      1.160147   290A      1.164861  
     291A      1.168919   292A      1.172158   293A      1.175951  
     294A      1.180440   295A      1.181474   296A      1.184032  
     297A      1.190293   298A      1.197101   299A      1.205653  
     300A      1.210562   301A      1.214105   302A      1.216621  
     303A      1.226250   304A      1.227327   305A      1.231962  
     306A      1.235501   307A      1.237762   308A      1.242939  
     309A      1.248111   310A      1.252027   311A      1.256732  
     312A      1.259425   313A      1.264516   314A      1.275329  
     315A      1.280008   316A      1.284833   317A      1.290780  
     318A      1.292980   319A      1.298060   320A      1.300923  
     321A      1.304809   322A      1.310465   323A      1.311081  
     324A      1.314712   325A      1.318838   326A      1.332055  
     327A      1.333810   328A      1.336182   329A      1.337921  
     330A      1.345999   331A      1.348275   332A      1.352539  
     333A      1.354568   334A      1.361640   335A      1.365219  
     336A      1.373216   337A      1.381371   338A      1.388035  
     339A      1.393682   340A      1.395427   341A      1.399674  
     342A      1.408325   343A      1.414276   344A      1.417387  
     345A      1.426976   346A      1.429536   347A      1.433283  
     348A      1.446882   349A      1.448846   350A      1.451653  
     351A      1.455176   352A      1.459053   353A      1.466062  
     354A      1.467350   355A      1.470134   356A      1.472708  
     357A      1.481860   358A      1.486944   359A      1.491431  
     360A      1.494684   361A      1.498929   362A      1.503810  
     363A      1.510000   364A      1.517121   365A      1.521420  
     366A      1.522601   367A      1.534792   368A      1.543969  
     369A      1.547745   370A      1.553230   371A      1.559857  
     372A      1.561029   373A      1.566461   374A      1.571941  
     375A      1.574792   376A      1.580574   377A      1.584840  
     378A      1.594392   379A      1.597250   380A      1.599612  
     381A      1.603373   382A      1.609458   383A      1.613827  
     384A      1.618298   385A      1.620134   386A      1.631401  
     387A      1.637136   388A      1.647493   389A      1.650555  
     390A      1.653078   391A      1.657710   392A      1.658658  
     393A      1.668835   394A      1.673230   395A      1.685545  
     396A      1.687203   397A      1.690961   398A      1.701698  
     399A      1.703050   400A      1.706230   401A      1.711223  
     402A      1.717882   403A      1.720190   404A      1.722997  
     405A      1.724899   406A      1.733155   407A      1.739128  
     408A      1.744966   409A      1.750130   410A      1.758335  
     411A      1.766104   412A      1.770867   413A      1.781407  
     414A      1.789725   415A      1.798196   416A      1.799394  
     417A      1.803386   418A      1.810651   419A      1.821052  
     420A      1.823681   421A      1.828026   422A      1.831136  
     423A      1.836643   424A      1.851836   425A      1.863920  
     426A      1.870102   427A      1.875790   428A      1.884822  
     429A      1.894900   430A      1.902002   431A      1.907764  
     432A      1.913918   433A      1.921039   434A      1.929692  
     435A      1.931762   436A      1.940289   437A      1.945826  
     438A      1.953827   439A      1.958230   440A      1.962144  
     441A      1.977412   442A      1.979489   443A      1.988554  
     444A      1.998201   445A      1.999775   446A      2.011937  
     447A      2.016858   448A      2.025647   449A      2.031456  
     450A      2.038736   451A      2.043153   452A      2.048752  
     453A      2.052314   454A      2.058635   455A      2.061703  
     456A      2.071063   457A      2.080807   458A      2.086908  
     459A      2.093628   460A      2.096929   461A      2.104949  
     462A      2.112999   463A      2.117081   464A      2.129188  
     465A      2.130917   466A      2.135171   467A      2.138849  
     468A      2.147625   469A      2.155714   470A      2.164061  
     471A      2.167910   472A      2.171978   473A      2.184576  
     474A      2.188378   475A      2.193021   476A      2.197856  
     477A      2.202005   478A      2.208084   479A      2.231491  
     480A      2.233998   481A      2.243671   482A      2.254069  
[...]
    1250A      7.107284  1251A      7.118841  1252A      7.119480  
    1253A      7.128292  1254A      7.132073  1255A      7.137683  
    1256A      7.140709  1257A      7.164522  1258A      7.167251  
    1259A      7.175977  1260A      7.189534  1261A      7.195449  
    1262A      7.201408  1263A      7.202166  1264A      7.205953  
    1265A      7.206329  1266A      7.213150  1267A      7.218313  
    1268A      7.226610  1269A      7.239849  1270A      7.246865  
    1271A      7.249948  1272A      7.252293  1273A      7.256056  
    1274A      7.258405  1275A      7.277166  1276A      7.300823  
    1277A      7.308226  1278A      7.310299  1279A      7.315460  
    1280A      7.316578  1281A      7.321303  1282A      7.324737  
    1283A      7.354313  1284A      7.358869  1285A      7.362246  
    1286A      7.378622  1287A      7.382233  1288A      7.382499  
    1289A      7.399824  1290A      7.403588  1291A      7.416862  
    1292A      7.423368  1293A      7.426099  1294A      7.427554  
    1295A      7.434233  1296A      7.436159  1297A      7.444131  
    1298A      7.447725  1299A      7.463370  1300A      7.466026  
    1301A      7.494768  1302A      7.498156  1303A      7.507472  
    1304A      7.512611  1305A      7.518122  1306A      7.528682  
    1307A      7.535401  1308A      7.538241  1309A      7.541916  
    1310A      7.549275  1311A      7.553689  1312A      7.555430  
    1313A      7.562520  1314A      7.567431  1315A      7.571627  
    1316A      7.583767  1317A      7.599249  1318A      7.607046  
    1319A      7.610769  1320A      7.611394  1321A      7.616834  
    1322A      7.627860  1323A      7.633052  1324A      7.633112  
    1325A      7.640895  1326A      7.646732  1327A      7.667724  
    1328A      7.669106  1329A      7.696567  1330A      7.703554  
    1331A      7.717063  1332A      7.717659  1333A      7.722096  
    1334A      7.732448  1335A      7.752644  1336A      7.759967  
    1337A      7.761735  1338A      7.772530  1339A      7.776965  
    1340A      7.777381  1341A      7.780482  1342A      7.780760  
    1343A      7.791717  1344A      7.806496  1345A      7.812782  
    1346A      7.815566  1347A      7.821801  1348A      7.823852  
    1349A      7.836019  1350A      7.837722  1351A      7.863470  
    1352A      7.869173  1353A      7.871350  1354A      7.876496  
    1355A      7.915100  1356A      7.923436  1357A      7.944297  
    1358A      7.948105  1359A      7.953066  1360A      7.965901  
    1361A      7.970823  1362A      7.977827  1363A      7.988653  
    1364A      7.999965  1365A      8.000370  1366A      8.005930  
    1367A      8.021710  1368A      8.031939  1369A      8.040433  
    1370A      8.042973  1371A      8.052708  1372A      8.058340  
    1373A      8.090273  1374A      8.092462  1375A      8.118035  
    1376A      8.119742  1377A      8.130615  1378A      8.135149  
    1379A      8.138603  1380A      8.142979  1381A      8.157133  
    1382A      8.159214  1383A      8.181854  1384A      8.192048  
    1385A      8.202752  1386A      8.210112  1387A      8.225907  
    1388A      8.233312  1389A      8.235187  1390A      8.243140  
    1391A      8.265138  1392A      8.271491  1393A      8.297048  
    1394A      8.307301  1395A      8.312203  1396A      8.319571  
    1397A      8.324104  1398A      8.324420  1399A      8.331174  
    1400A      8.347038  1401A      8.359803  1402A      8.376174  
    1403A      8.377729  1404A      8.382204  1405A      8.405416  
    1406A      8.419474  1407A      8.433999  1408A      8.445724  
    1409A      8.446785  1410A      8.459202  1411A      8.524000  
    1412A      8.531142  1413A      8.541227  1414A      8.544462  
    1415A      8.561110  1416A      8.564910  1417A      8.570165  
    1418A      8.573255  1419A      8.597864  1420A      8.599944  
    1421A      8.615634  1422A      8.622197  1423A      8.635774  
    1424A      8.639345  1425A      8.643610  1426A      8.658140  
    1427A      8.660444  1428A      8.669599  1429A      8.676055  
    1430A      8.689234  1431A      8.701239  1432A      8.713283  
    1433A      8.725503  1434A      8.726382  1435A      8.728330  
    1436A      8.739942  1437A      8.766551  1438A      8.780257  
    1439A      8.780372  1440A      8.800522  1441A      8.806245  
    1442A      8.809638  1443A      8.813421  1444A      8.819739  
    1445A      8.820348  1446A      8.829186  1447A      8.861675  
    1448A      8.867017  1449A      8.875245  1450A      8.881144  
    1451A      8.897498  1452A      8.901771  1453A      8.909612  
    1454A      8.912171  1455A      8.929722  1456A      8.938516  
    1457A      8.949868  1458A      8.967257  1459A      8.973382  
    1460A      8.990877  1461A      8.993249  1462A      8.999255  
    1463A      9.000175  1464A      9.010288  1465A      9.019918  
    1466A      9.024664  1467A      9.039318  1468A      9.040878  
    1469A      9.094823  1470A      9.095649  1471A      9.106888  
    1472A      9.118195  1473A      9.119358  1474A      9.121454  
    1475A      9.156926  1476A      9.158496  1477A      9.178265  
    1478A      9.201865  1479A      9.206691  1480A      9.209029  
    1481A      9.225761  1482A      9.230383  1483A      9.237588  
    1484A      9.244918  1485A      9.250663  1486A      9.251750  
    1487A      9.281449  1488A      9.287802  1489A      9.320493  
    1490A      9.325986  1491A      9.330423  1492A      9.337358  
    1493A      9.348676  1494A      9.352063  1495A      9.363638  
    1496A      9.364106  1497A      9.395116  1498A      9.399168  
    1499A      9.399652  1500A      9.416914  1501A      9.417251  
    1502A      9.421749  1503A      9.430146  1504A      9.435050  
    1505A      9.439759  1506A      9.448828  1507A      9.453699  
    1508A      9.461590  1509A      9.465681  1510A      9.469238  
    1511A      9.487583  1512A      9.488530  1513A      9.500763  
    1514A      9.507908  1515A      9.511383  1516A      9.519182  
    1517A      9.544303  1518A      9.556559  1519A      9.568839  
    1520A      9.570607  1521A      9.577614  1522A      9.584537  
    1523A      9.620082  1524A      9.621702  1525A      9.638521  
    1526A      9.649544  1527A      9.652192  1528A      9.656147  
    1529A      9.657709  1530A      9.669381  1531A      9.712592  
    1532A      9.718422  1533A      9.739478  1534A      9.751590  
    1535A      9.752161  1536A      9.754931  1537A      9.762085  
    1538A      9.766123  1539A      9.774285  1540A      9.774375  
    1541A      9.781399  1542A      9.783861  1543A      9.790674  
    1544A      9.795574  1545A      9.814424  1546A      9.815839  
    1547A      9.833237  1548A      9.835085  1549A      9.839971  
    1550A      9.842035  1551A      9.845408  1552A      9.856490  
    1553A      9.865895  1554A      9.876942  1555A      9.882790  
    1556A      9.895497  1557A      9.921712  1558A      9.925031  
    1559A      9.941928  1560A      9.945074  1561A      9.958742  
    1562A      9.968553  1563A      9.979843  1564A      9.983596  
    1565A      9.984294  1566A      9.993418  1567A      9.997926  
    1568A     10.006031  1569A     10.007787  1570A     10.016589  
    1571A     10.016858  1572A     10.021746  1573A     10.033428  
    1574A     10.037857  1575A     10.040880  1576A     10.047778  
    1577A     10.053074  1578A     10.060137  1579A     10.061055  
    1580A     10.066891  1581A     10.090074  1582A     10.091759  
    1583A     10.106998  1584A     10.114115  1585A     10.144650  
    1586A     10.159900  1587A     10.168537  1588A     10.175210  
    1589A     10.188959  1590A     10.200792  1591A     10.203919  
    1592A     10.205325  1593A     10.217377  1594A     10.217802  
    1595A     10.272516  1596A     10.281139  1597A     10.289973  
    1598A     10.295763  1599A     10.305650  1600A     10.306026  
    1601A     10.345310  1602A     10.350371  1603A     10.360745  
    1604A     10.366182  1605A     10.368364  1606A     10.371644  
    1607A     10.381781  1608A     10.387371  1609A     10.415063  
    1610A     10.425680  1611A     10.442234  1612A     10.449001  
    1613A     10.480123  1614A     10.487994  1615A     10.500252  
    1616A     10.515830  1617A     10.516203  1618A     10.534630  
    1619A     10.546808  1620A     10.553426  1621A     10.557101  
    1622A     10.568315  1623A     10.572376  1624A     10.579740  
    1625A     10.596386  1626A     10.601482  1627A     10.625473  
    1628A     10.633298  1629A     10.649199  1630A     10.652028  
    1631A     10.662700  1632A     10.664553  1633A     10.675291  
    1634A     10.689907  1635A     10.749122  1636A     10.752120  
    1637A     10.794613  1638A     10.795239  1639A     10.825968  
    1640A     10.829795  1641A     10.867438  1642A     10.872422  
    1643A     10.907309  1644A     10.910731  1645A     10.949587  
    1646A     10.954549  1647A     10.957734  1648A     10.967281  
    1649A     10.987990  1650A     10.993190  1651A     11.010633  
    1652A     11.013333  1653A     11.042263  1654A     11.044920  
    1655A     11.061243  1656A     11.068757  1657A     11.068974  
    1658A     11.072137  1659A     11.114192  1660A     11.120133  
    1661A     11.129512  1662A     11.142796  1663A     11.192455  
    1664A     11.194552  1665A     11.205080  1666A     11.212166  
    1667A     11.233826  1668A     11.238453  1669A     11.254542  
    1670A     11.257572  1671A     11.261009  1672A     11.270279  
    1673A     11.327774  1674A     11.339448  1675A     11.375055  
    1676A     11.375456  1677A     11.392998  1678A     11.394836  
    1679A     11.423196  1680A     11.426845  1681A     11.499071  
    1682A     11.514119  1683A     11.649078  1684A     11.655586  
    1685A     11.670566  1686A     11.683175  1687A     11.713626  
    1688A     11.720268  1689A     11.926602  1690A     11.929890  
    1691A     13.444725  1692A     13.533018  1693A     13.553115  
    1694A     13.568300  1695A     13.568920  1696A     13.585418  
    1697A     13.621286  1698A     13.635102  1699A     13.647826  
    1700A     13.672424  1701A     13.724367  1702A     13.743230  
    1703A     13.751470  1704A     13.764335  1705A     13.804051  
    1706A     13.807646  1707A     13.888690  1708A     13.898851  
    1709A     14.009735  1710A     14.023378  1711A     28.402444  
    1712A     28.426293  1713A     28.538056  1714A     28.541386  
    1715A     28.599310  1716A     28.608743  1717A     28.663709  
    1718A     28.667251  1719A     28.818888  1720A     28.852306  

    Final Occupation by Irrep:
              A 
    DOCC [    40 ]

  @DF-RHF Final Energy:  -390.48304203193419

   => Energetics <=

    Nuclear Repulsion Energy =            532.1986656539800151
    One-Electron Energy =               -1581.9902727506957945
    Two-Electron Energy =                 659.3085650647816465
    Total Energy =                       -390.4830420319341329

Computation Completed


Properties will be evaluated at   0.000000,   0.000000,   0.000000 [a0]

Properties computed using the SCF density matrix

  Nuclear Dipole Moment: [e a0]
     X:     0.1338      Y:    -0.0594      Z:    -0.0003

  Electronic Dipole Moment: [e a0]
     X:    -0.1436      Y:     0.0637      Z:     0.0003

  Dipole Moment: [e a0]
     X:    -0.0098      Y:     0.0044      Z:     0.0000     Total:     0.0107

  Dipole Moment: [D]
     X:    -0.0249      Y:     0.0111      Z:     0.0000     Total:     0.0272


*** tstop() called on node36.bme.utexas.edu at Thu Apr 23 22:21:30 2020
Module time:
	user time   =    6767.10 seconds =     112.79 minutes
	system time =     705.43 seconds =      11.76 minutes
	total time  =       1369 seconds =      22.82 minutes
Total time:
	user time   =   25122.16 seconds =     418.70 minutes
	system time =    2769.06 seconds =      46.15 minutes
	total time  =       4965 seconds =      82.75 minutes

*** tstart() called on node36.bme.utexas.edu
*** at Thu Apr 23 22:21:30 2020


  //>>>>>>>>>>>>>>>>>>>>>>>>>>>>>>>>>>>//
  //               DFMP2               //
  //<<<<<<<<<<<<<<<<<<<<<<<<<<<<<<<<<<<//

   => Loading Basis Set <=

    Name: (AUG-CC-PVQZ AUX)
    Role: RIFIT
    Keyword: DF_BASIS_MP2
    atoms 1, 4, 7, 10, 13, 16, 19, 22, 25, 28                            entry C          line   184 file /home/liuchw/anaconda3/envs/psi4env/share/psi4/basis/aug-cc-pvqz-ri.gbs 
    atoms 2-3, 5-6, 8-9, 11-12, 14-15, 17-18, 20-21, 23-24, 26-27, 29-30 entry H          line    30 file /home/liuchw/anaconda3/envs/psi4env/share/psi4/basis/aug-cc-pvqz-ri.gbs 

	 --------------------------------------------------------
	                          DF-MP2                         
	      2nd-Order Density-Fitted Moller-Plesset Theory     
	              RMP2 Wavefunction,   8 Threads             
	                                                         
	        Rob Parrish, Justin Turney, Andy Simmonett,      
	           Ed Hohenstein, and C. David Sherrill          
	 --------------------------------------------------------

   => Auxiliary Basis Set <=

  Basis Set: (AUG-CC-PVQZ AUX)
    Blend: AUG-CC-PVQZ-RI
    Number of shells: 760
    Number of basis function: 3280
    Number of Cartesian functions: 4470
    Spherical Harmonics?: true
    Max angular momentum: 5

	 --------------------------------------------------------
	                 NBF =  1720, NAUX =  3280
	 --------------------------------------------------------
	   CLASS    FOCC     OCC    AOCC    AVIR     VIR    FVIR
	   PAIRS       0      40      40    1680    1680       0
	 --------------------------------------------------------

	-----------------------------------------------------------
	 ==================> DF-MP2 Energies <==================== 
	-----------------------------------------------------------
	 Reference Energy          =    -390.4830420319341897 [Eh]
	 Singles Energy            =      -0.0000000000000000 [Eh]
	 Same-Spin Energy          =      -0.4457705694348496 [Eh]
	 Opposite-Spin Energy      =      -1.7006815040884520 [Eh]
	 Correlation Energy        =      -2.1464520735233017 [Eh]
	 Total Energy              =    -392.6294941054574679 [Eh]
	-----------------------------------------------------------
	 ================> DF-SCS-MP2 Energies <================== 
	-----------------------------------------------------------
	 SCS Same-Spin Scale       =       0.3333333333333333 [-]
	 SCS Opposite-Spin Scale   =       1.2000000000000000 [-]
	 SCS Same-Spin Energy      =      -0.1485901898116165 [Eh]
	 SCS Opposite-Spin Energy  =      -2.0408178049061423 [Eh]
	 SCS Correlation Energy    =      -2.1894079947177589 [Eh]
	 SCS Total Energy          =    -392.6724500266519726 [Eh]
	-----------------------------------------------------------


*** tstop() called on node36.bme.utexas.edu at Thu Apr 23 22:26:53 2020
Module time:
	user time   =    1976.58 seconds =      32.94 minutes
	system time =     169.86 seconds =       2.83 minutes
	total time  =        323 seconds =       5.38 minutes
Total time:
	user time   =   27098.75 seconds =     451.65 minutes
	system time =    2938.92 seconds =      48.98 minutes
	total time  =       5288 seconds =      88.13 minutes

  //>>>>>>>>>>>>>>>>>>>>>>>>>>>>>>>>>>>//
  //  CBS Results: mp2/aug-cc-pv[tq]z  //
  //<<<<<<<<<<<<<<<<<<<<<<<<<<<<<<<<<<<//


   ==> HF <==

   HI-zeta (4) Energy:               -390.483042031934


   ==> Helgaker 2-point correlated extrapolation for method: MP2 <==

   LO-zeta (3) Energy:               -392.418226816275
   HI-zeta (4) Energy:               -392.629494105457
   Alpha (exponent) Value:             3.000000000000
   Extrapolated Energy:              -392.783662127293

   @Extrapolated MP2/(T,Q):          -392.783662127293



   ==> Helgaker 2-point correlated extrapolation for method: HF <==

   LO-zeta (3) Energy:               -390.460099271559
   HI-zeta (4) Energy:               -390.483042031934
   Alpha (exponent) Value:             3.000000000000
   Extrapolated Energy:              -390.499784046262

   @Extrapolated HF/(T,Q):           -390.499784046262


   ==> Components <==

  ---------------------------------------------------------------------------------------------------------
                          Method / Basis                      Rqd      Energy [Eh]   Variable
  ---------------------------------------------------------------------------------------------------------
                              hf / aug-cc-pvtz                  *    -390.46009927   HF TOTAL ENERGY
                             mp2 / aug-cc-pvtz                  *    -392.41822682   MP2 TOTAL ENERGY
                              hf / aug-cc-pvqz                  *    -390.48304203   HF TOTAL ENERGY
                             mp2 / aug-cc-pvqz                  *    -392.62949411   MP2 TOTAL ENERGY
  ---------------------------------------------------------------------------------------------------------

   ==> Stages <==

  ---------------------------------------------------------------------------------------------------------
      Stage               Method / Basis                       Wt      Energy [Eh]   Scheme
  ---------------------------------------------------------------------------------------------------------
        scf                   hf / aug-cc-pvqz                  1    -390.48304203   xtpl_highest_1
       corl                  mp2 / aug-cc-pv[tq]z               1    -392.78366213   corl_xtpl_helgaker_2
       corl                   hf / aug-cc-pv[tq]z              -1    -390.49978405   corl_xtpl_helgaker_2
  ---------------------------------------------------------------------------------------------------------

   ==> CBS <==

  ---------------------------------------------------------------------------------------------------------
      Stage               Method / Basis                               Energy [Eh]   Scheme
  ---------------------------------------------------------------------------------------------------------
        scf                   hf / aug-cc-pvqz                       -390.48304203   xtpl_highest_1
       corl                  mp2 / aug-cc-pv[tq]z                      -2.28387808   corl_xtpl_helgaker_2
      total                  CBS                                     -392.76692011   
  ---------------------------------------------------------------------------------------------------------
   => Loading Basis Set <=

    Name: DEF2-SVP
    Role: ORBITAL
    Keyword: BASIS
    atoms 1, 4, 7, 10, 13, 16, 19, 22, 25, 28                            entry C          line    90 file /home/liuchw/anaconda3/envs/psi4env/share/psi4/basis/def2-svp.gbs 
    atoms 2-3, 5-6, 8-9, 11-12, 14-15, 17-18, 20-21, 23-24, 26-27, 29-30 entry H          line    15 file /home/liuchw/anaconda3/envs/psi4env/share/psi4/basis/def2-svp.gbs 


       N-Body: Complex Energy (fragments = (1, 2), basis = (1, 2):  -392.76692011296558)

   ==> N-Body: Counterpoise Corrected (CP) energies <==

   n-Body     Total Energy [Eh]       I.E. [kcal/mol]      Delta [kcal/mol]
        1     -392.764877924696        0.000000000000        0.000000000000
        2     -392.767155186973       -1.429003652883       -1.429003652883

   => Loading Basis Set <=

    Name: DEF2-SVP
    Role: ORBITAL
    Keyword: BASIS
    atoms 1, 4, 7, 10, 13, 16, 19, 22, 25, 28                            entry C          line    90 file /home/liuchw/anaconda3/envs/psi4env/share/psi4/basis/def2-svp.gbs 
    atoms 2-3, 5-6, 8-9, 11-12, 14-15, 17-18, 20-21, 23-24, 26-27, 29-30 entry H          line    15 file /home/liuchw/anaconda3/envs/psi4env/share/psi4/basis/def2-svp.gbs 


    Psi4 stopped on: Thursday, 23 April 2020 10:26PM
    Psi4 wall time for execution: 1:28:14.86

*** Psi4 exiting successfully. Buy a developer a beer!
