
    -----------------------------------------------------------------------
          Psi4: An Open-Source Ab Initio Electronic Structure Package
                               Psi4 1.4a2.dev224 

                         Git: Rev {master} e453b16 


    R. M. Parrish, L. A. Burns, D. G. A. Smith, A. C. Simmonett,
    A. E. DePrince III, E. G. Hohenstein, U. Bozkaya, A. Yu. Sokolov,
    R. Di Remigio, R. M. Richard, J. F. Gonthier, A. M. James,
    H. R. McAlexander, A. Kumar, M. Saitow, X. Wang, B. P. Pritchard,
    P. Verma, H. F. Schaefer III, K. Patkowski, R. A. King, E. F. Valeev,
    F. A. Evangelista, J. M. Turney, T. D. Crawford, and C. D. Sherrill,
    J. Chem. Theory Comput. 13(7) pp 3185--3197 (2017).
    (doi: 10.1021/acs.jctc.7b00174)


                         Additional Contributions by
    P. Kraus, H. Kruse, M. H. Lechner, M. C. Schieber, R. A. Shaw,
    A. Alenaizan, R. Galvelis, Z. L. Glick, S. Lehtola, and J. P. Misiewicz

    -----------------------------------------------------------------------


    Psi4 started on: Thursday, 23 April 2020 08:12PM

    Process ID: 76744
    Host:       node85.bme.utexas.edu
    PSIDATADIR: /home/liuchw/anaconda3/envs/psi4env/share/psi4
    Memory:     500.0 MiB
    Threads:    8
    
  ==> Input File <==

--------------------------------------------------------------------------
#Generated by lconvert.py for cbs job

memory 20 GB

molecule  {
0 1
  N       0.195730   -0.844690    0.823850
  H       0.450400   -1.796750    1.049770
  C      -1.179050   -0.573680    0.759480
  O      -1.993650   -1.456260    0.966900
  C      -1.476710    0.811160    0.437560
  H      -2.506360    1.115650    0.363900
  C      -0.468110    1.682960    0.234890
  H      -0.638430    2.721640   -0.006160
  N       0.845630    1.305990    0.326830
  H       1.589690    1.968880    0.185960
  C       1.254260    0.019460    0.636240
  O       2.422300   -0.301720    0.731880
--
0 1
  C       1.138520   -0.908080    7.053170
  H       1.592380   -1.000140    6.065190
  H       1.683030   -1.572060    7.722370
  C       1.192840    0.557870    7.486110
  H       2.151130    1.030770    7.275380
  H       1.004720    0.639510    8.559330
  C       0.025490    1.170680    6.715330
  H       0.299790    1.259470    5.661860
  H      -0.258930    2.161830    7.066970
  C      -1.091460    0.133110    6.886360
  H      -1.817000    0.156730    6.074990
  H      -1.635550    0.337810    7.808610
  C      -0.368420   -1.233440    6.990020
  H      -0.611090   -1.877590    6.146660
  H      -0.683530   -1.760840    7.889110
units angstrom
no_reorient
symmetry c1
}

set {
scf_type DF
mp2_type DF
e_convergence 7
reference rhf
}

energy('mp2/aug-cc-pv[tq]z', bsse_type='cp')
--------------------------------------------------------------------------

  Memory set to  18.626 GiB by Python driver.

Scratch directory: /scratch/liuchw/


   ===> N-Body Interaction Abacus <===
        BSSE Treatment:                     cp
        Number of 1-body computations:     4
        Number of 2-body computations:     1

   ==> N-Body: Now computing 1-body complexes <==


       N-Body: Computing complex (1/4) with fragments (2,) in the basis of fragments (2,).


Scratch directory: /scratch/liuchw/

  //>>>>>>>>>>>>>>>>>>>>>>>>>>>>>>>>>>>//
  //   CBS Setup: mp2/aug-cc-pv[tq]z   //
  //<<<<<<<<<<<<<<<<<<<<<<<<<<<<<<<<<<<//

    Naive listing of computations required.
             hf / aug-cc-pvqz              for  HF TOTAL ENERGY
            mp2 / aug-cc-pvtz              for  MP2 TOTAL ENERGY
            mp2 / aug-cc-pvqz              for  MP2 TOTAL ENERGY
             hf / aug-cc-pvtz              for  HF TOTAL ENERGY
             hf / aug-cc-pvqz              for  HF TOTAL ENERGY

    Enlightened listing of computations required.
            mp2 / aug-cc-pvtz              for  MP2 TOTAL ENERGY
            mp2 / aug-cc-pvqz              for  MP2 TOTAL ENERGY

    Full listing of computations to be obtained (required and bonus).
             hf / aug-cc-pvtz              for  HF TOTAL ENERGY
            mp2 / aug-cc-pvtz              for  MP2 TOTAL ENERGY
             hf / aug-cc-pvqz              for  HF TOTAL ENERGY
            mp2 / aug-cc-pvqz              for  MP2 TOTAL ENERGY

  //>>>>>>>>>>>>>>>>>>>>>>>>>>>>>>>>>>>>//
  // CBS Computation: MP2 / AUG-CC-PVTZ //
  //<<<<<<<<<<<<<<<<<<<<<<<<<<<<<<<<<<<<//


Scratch directory: /scratch/liuchw/

*** tstart() called on node85.bme.utexas.edu
*** at Thu Apr 23 20:12:16 2020

   => Loading Basis Set <=

    Name: AUG-CC-PVTZ
    Role: ORBITAL
    Keyword: BASIS
    atoms 1, 4, 7, 10, 13             entry C          line   239 file /home/liuchw/anaconda3/envs/psi4env/share/psi4/basis/aug-cc-pvtz.gbs 
    atoms 2-3, 5-6, 8-9, 11-12, 14-15 entry H          line    40 file /home/liuchw/anaconda3/envs/psi4env/share/psi4/basis/aug-cc-pvtz.gbs 


         ---------------------------------------------------------
                                   SCF
               by Justin Turney, Rob Parrish, Andy Simmonett
                          and Daniel G. A. Smith
                              RHF Reference
                        8 Threads,  19073 MiB Core
         ---------------------------------------------------------

  ==> Geometry <==

    Molecular point group: c1
    Full point group: C1

    Geometry (in Angstrom), charge = 0, multiplicity = 1:

       Center              X                  Y                   Z               Mass       
    ------------   -----------------  -----------------  -----------------  -----------------
         C            1.081454819692    -0.917265635858     3.966492165443    12.000000000000
         H            1.535314819692    -1.009325635858     2.978512165443     1.007825032230
         H            1.625964819692    -1.581245635858     4.635692165443     1.007825032230
         C            1.135774819692     0.548684364142     4.399432165443    12.000000000000
         H            2.094064819692     1.021584364142     4.188702165443     1.007825032230
         H            0.947654819692     0.630324364142     5.472652165443     1.007825032230
         C           -0.031575180308     1.161494364142     3.628652165443    12.000000000000
         H            0.242724819692     1.250284364142     2.575182165443     1.007825032230
         H           -0.315995180308     2.152644364142     3.980292165443     1.007825032230
         C           -1.148525180308     0.123924364142     3.799682165443    12.000000000000
         H           -1.874065180308     0.147544364142     2.988312165443     1.007825032230
         H           -1.692615180308     0.328624364142     4.721932165443     1.007825032230
         C           -0.425485180308    -1.242625635858     3.903342165443    12.000000000000
         H           -0.668155180308    -1.886775635858     3.059982165443     1.007825032230
         H           -0.740595180308    -1.770025635858     4.802432165443     1.007825032230

  Running in c1 symmetry.

  Rotational constants: A =      0.12971  B =      0.01446  C =      0.01442 [cm^-1]
  Rotational constants: A =   3888.58777  B =    433.37296  C =    432.26611 [MHz]
  Nuclear repulsion =  188.337154213471081

  Charge       = 0
  Multiplicity = 1
  Electrons    = 40
  Nalpha       = 20
  Nbeta        = 20

  ==> Algorithm <==

  SCF Algorithm Type is DF.
  DIIS enabled.
  MOM disabled.
  Fractional occupation disabled.
  Guess Type is SAD.
  Energy threshold   = 1.00e-07
  Density threshold  = 1.00e-08
  Integral threshold = 0.00e+00

  ==> Primary Basis <==

  Basis Set: AUG-CC-PVTZ
    Blend: AUG-CC-PVTZ
    Number of shells: 160
    Number of basis function: 460
    Number of Cartesian functions: 525
    Spherical Harmonics?: true
    Max angular momentum: 3

   => Loading Basis Set <=

    Name: (AUG-CC-PVTZ AUX)
    Role: JKFIT
    Keyword: DF_BASIS_SCF
    atoms 1, 4, 7, 10, 13             entry C          line   162 file /home/liuchw/anaconda3/envs/psi4env/share/psi4/basis/aug-cc-pvtz-jkfit.gbs 
    atoms 2-3, 5-6, 8-9, 11-12, 14-15 entry H          line    70 file /home/liuchw/anaconda3/envs/psi4env/share/psi4/basis/aug-cc-pvtz-jkfit.gbs 

  ==> Pre-Iterations <==

   -------------------------------------------------------
    Irrep   Nso     Nmo     Nalpha   Nbeta   Ndocc  Nsocc
   -------------------------------------------------------
     A        460     460       0       0       0       0
   -------------------------------------------------------
    Total     460     460      20      20      20       0
   -------------------------------------------------------

  ==> Integral Setup <==

  DFHelper Memory: AOs need 1.597 GiB; user supplied 13.970 GiB. Using in-core AOs.

  ==> MemDFJK: Density-Fitted J/K Matrices <==

    J tasked:                   Yes
    K tasked:                   Yes
    wK tasked:                   No
    OpenMP threads:               8
    Memory [MiB]:             14305
    Algorithm:                 Core
    Schwarz Cutoff:           1E-12
    Mask sparsity (%):       0.6664
    Fitting Condition:        1E-10

   => Auxiliary Basis Set <=

  Basis Set: (AUG-CC-PVTZ AUX)
    Blend: AUG-CC-PVTZ-JKFIT
    Number of shells: 290
    Number of basis function: 980
    Number of Cartesian functions: 1205
    Spherical Harmonics?: true
    Max angular momentum: 4

  Minimum eigenvalue in the overlap matrix is 2.8222058391E-06.
  Using Symmetric Orthogonalization.

  SCF Guess: Superposition of Atomic Densities via on-the-fly atomic UHF.

  ==> Iterations <==

                           Total Energy        Delta E     RMS |[F,P]|

   @DF-RHF iter SAD:  -195.14562781799000   -1.95146e+02   0.00000e+00 
   @DF-RHF iter   1:  -194.97508290918702    1.70545e-01   1.40783e-03 DIIS
   @DF-RHF iter   2:  -195.15709525873933   -1.82012e-01   8.13034e-04 DIIS
   @DF-RHF iter   3:  -195.22684172596232   -6.97465e-02   1.22259e-04 DIIS
   @DF-RHF iter   4:  -195.23000743666404   -3.16571e-03   1.92832e-05 DIIS
   @DF-RHF iter   5:  -195.23011061586081   -1.03179e-04   4.20970e-06 DIIS
   @DF-RHF iter   6:  -195.23011554461377   -4.92875e-06   5.29565e-07 DIIS
   @DF-RHF iter   7:  -195.23011561912830   -7.45145e-08   9.30234e-08 DIIS
   @DF-RHF iter   8:  -195.23011562053244   -1.40415e-09   3.27655e-08 DIIS
   @DF-RHF iter   9:  -195.23011562068663   -1.54188e-10   4.78200e-09 DIIS
  Energy and wave function converged.


  ==> Post-Iterations <==

    Orbital Energies [Eh]
    ---------------------

    Doubly Occupied:                                                      

       1A    -11.210502     2A    -11.210102     3A    -11.210098  
       4A    -11.209484     5A    -11.209350     6A     -1.116059  
       7A     -0.956543     8A     -0.955963     9A     -0.776681  
      10A     -0.767342    11A     -0.649861    12A     -0.644577  
      13A     -0.569559    14A     -0.567611    15A     -0.475235  
      16A     -0.474457    17A     -0.463582    18A     -0.459997  
      19A     -0.459452    20A     -0.448561  

    Virtual:                                                              

      21A      0.031781    22A      0.038505    23A      0.039361  
      24A      0.039806    25A      0.055914    26A      0.058167  
      27A      0.058655    28A      0.060247    29A      0.061133  
      30A      0.079043    31A      0.115442    32A      0.117478  
      33A      0.120437    34A      0.123811    35A      0.124928  
      36A      0.126006    37A      0.132840    38A      0.134723  
      39A      0.138202    40A      0.141398    41A      0.142370  
      42A      0.163325    43A      0.164120    44A      0.167953  
      45A      0.169040    46A      0.186526    47A      0.188821  
      48A      0.200486    49A      0.206634    50A      0.220421  
      51A      0.256394    52A      0.276804    53A      0.282217  
      54A      0.290895    55A      0.293628    56A      0.298921  
      57A      0.305620    58A      0.308058    59A      0.309767  
      60A      0.310878    61A      0.317312    62A      0.319428  
      63A      0.325400    64A      0.345263    65A      0.346165  
      66A      0.349938    67A      0.358919    68A      0.362978  
      69A      0.367556    70A      0.381731    71A      0.382716  
      72A      0.396817    73A      0.402210    74A      0.403957  
      75A      0.409724    76A      0.416360    77A      0.421137  
      78A      0.423907    79A      0.427181    80A      0.429125  
      81A      0.433050    82A      0.438927    83A      0.452365  
      84A      0.454656    85A      0.462162    86A      0.476386  
      87A      0.478297    88A      0.495753    89A      0.499302  
      90A      0.507883    91A      0.512371    92A      0.517922  
      93A      0.522125    94A      0.535164    95A      0.540696  
      96A      0.545391    97A      0.547859    98A      0.554041  
      99A      0.560084   100A      0.565668   101A      0.567747  
     102A      0.572489   103A      0.581343   104A      0.585909  
     105A      0.588978   106A      0.604395   107A      0.608916  
     108A      0.620214   109A      0.623039   110A      0.632067  
     111A      0.643276   112A      0.646754   113A      0.650059  
     114A      0.654573   115A      0.662540   116A      0.695128  
     117A      0.702521   118A      0.719164   119A      0.724373  
     120A      0.740173   121A      0.772582   122A      0.779496  
     123A      0.792367   124A      0.820504   125A      0.835725  
     126A      0.848594   127A      0.850532   128A      0.859972  
     129A      0.873824   130A      0.876316   131A      0.881611  
     132A      0.882583   133A      0.893803   134A      0.897072  
     135A      0.906685   136A      0.918236   137A      0.920333  
     138A      0.936735   139A      0.952853   140A      0.955884  
     141A      0.960993   142A      0.971625   143A      0.979176  
     144A      0.979623   145A      0.990394   146A      0.995618  
     147A      1.007198   148A      1.019896   149A      1.024501  
     150A      1.029221   151A      1.036355   152A      1.038191  
     153A      1.045003   154A      1.049741   155A      1.060638  
     156A      1.080757   157A      1.092890   158A      1.099952  
     159A      1.102668   160A      1.109744   161A      1.123733  
     162A      1.128756   163A      1.147577   164A      1.162390  
     165A      1.171494   166A      1.178290   167A      1.183616  
     168A      1.188988   169A      1.197294   170A      1.210406  
     171A      1.226482   172A      1.229497   173A      1.234375  
     174A      1.238367   175A      1.254664   176A      1.259298  
     177A      1.272096   178A      1.279585   179A      1.292724  
     180A      1.299491   181A      1.299939   182A      1.325682  
     183A      1.328218   184A      1.335954   185A      1.377152  
     186A      1.379864   187A      1.394824   188A      1.408508  
     189A      1.422342   190A      1.432563   191A      1.444182  
     192A      1.450335   193A      1.462286   194A      1.470704  
     195A      1.474856   196A      1.491854   197A      1.509500  
     198A      1.514599   199A      1.527745   200A      1.534081  
     201A      1.546410   202A      1.559740   203A      1.564148  
     204A      1.578300   205A      1.584011   206A      1.588443  
     207A      1.621999   208A      1.631739   209A      1.636757  
     210A      1.641600   211A      1.645745   212A      1.665115  
     213A      1.679420   214A      1.695082   215A      1.708043  
     216A      1.709288   217A      1.720155   218A      1.740997  
     219A      1.745521   220A      1.757829   221A      1.777919  
     222A      1.780477   223A      1.783686   224A      1.798213  
     225A      1.806537   226A      1.821061   227A      1.831888  
     228A      1.844524   229A      1.846415   230A      1.865393  
     231A      1.892649   232A      1.896348   233A      1.909189  
     234A      1.931758   235A      1.940613   236A      1.954894  
     237A      1.962016   238A      1.970595   239A      1.981650  
     240A      1.985669   241A      1.999412   242A      2.012051  
     243A      2.018122   244A      2.022636   245A      2.029818  
     246A      2.032229   247A      2.038366   248A      2.078310  
     249A      2.100595   250A      2.109241   251A      2.120794  
     252A      2.124087   253A      2.148408   254A      2.150416  
     255A      2.158804   256A      2.193545   257A      2.225845  
     258A      2.239233   259A      2.250847   260A      2.271612  
     261A      2.276427   262A      2.291861   263A      2.300998  
     264A      2.309416   265A      2.315689   266A      2.350385  
     267A      2.362474   268A      2.399728   269A      2.404047  
     270A      2.421955   271A      2.436901   272A      2.446990  
     273A      2.460778   274A      2.483080   275A      2.491598  
     276A      2.517822   277A      2.528855   278A      2.568716  
     279A      2.584848   280A      2.598232   281A      2.631888  
     282A      2.658444   283A      2.685002   284A      2.714197  
     285A      2.754097   286A      2.792977   287A      2.953150  
     288A      3.037459   289A      3.075929   290A      3.184611  
     291A      3.251465   292A      3.309272   293A      3.354770  
     294A      3.368600   295A      3.385575   296A      3.391003  
     297A      3.463261   298A      3.499036   299A      3.506304  
     300A      3.525074   301A      3.549077   302A      3.556848  
     303A      3.566307   304A      3.580923   305A      3.597574  
     306A      3.618442   307A      3.623149   308A      3.643807  
     309A      3.674919   310A      3.682832   311A      3.705350  
     312A      3.717816   313A      3.736633   314A      3.742908  
     315A      3.757401   316A      3.761332   317A      3.778299  
     318A      3.806485   319A      3.816689   320A      3.833855  
     321A      3.861532   322A      3.889317   323A      3.900319  
     324A      3.911641   325A      3.922363   326A      3.929950  
     327A      3.957577   328A      3.974056   329A      3.978349  
     330A      3.994855   331A      3.999465   332A      4.001025  
     333A      4.015321   334A      4.028581   335A      4.038239  
     336A      4.053032   337A      4.060908   338A      4.070077  
     339A      4.078697   340A      4.095603   341A      4.105670  
     342A      4.120124   343A      4.140593   344A      4.160500  
     345A      4.177689   346A      4.211739   347A      4.224954  
     348A      4.239176   349A      4.246417   350A      4.267874  
     351A      4.296575   352A      4.329704   353A      4.345917  
     354A      4.362621   355A      4.387168   356A      4.389410  
     357A      4.407011   358A      4.422846   359A      4.437027  
     360A      4.438251   361A      4.471300   362A      4.493832  
     363A      4.498545   364A      4.503913   365A      4.559853  
     366A      4.581962   367A      4.606830   368A      4.623090  
     369A      4.639838   370A      4.656803   371A      4.686880  
     372A      4.688156   373A      4.712197   374A      4.734207  
     375A      4.756595   376A      4.757110   377A      4.815943  
     378A      4.834075   379A      4.847135   380A      4.898830  
     381A      4.910148   382A      4.934219   383A      4.941314  
     384A      4.950992   385A      4.963703   386A      4.976714  
     387A      4.981734   388A      4.992998   389A      5.010933  
     390A      5.029038   391A      5.033729   392A      5.059544  
     393A      5.070422   394A      5.089457   395A      5.097803  
     396A      5.106568   397A      5.143594   398A      5.167834  
     399A      5.174756   400A      5.208045   401A      5.230667  
     402A      5.252829   403A      5.281301   404A      5.290144  
     405A      5.304079   406A      5.330922   407A      5.345612  
     408A      5.411540   409A      5.451206   410A      5.466613  
     411A      5.473748   412A      5.486087   413A      5.491429  
     414A      5.497638   415A      5.503328   416A      5.519821  
     417A      5.532061   418A      5.555842   419A      5.582997  
     420A      5.604094   421A      5.675803   422A      5.705172  
     423A      5.716873   424A      5.755872   425A      5.779453  
     426A      5.785880   427A      5.798066   428A      5.837182  
     429A      5.861430   430A      5.871377   431A      5.897811  
     432A      5.912271   433A      5.947557   434A      5.996203  
     435A      6.037727   436A      6.051323   437A      6.084736  
     438A      6.131573   439A      6.163222   440A      6.218476  
     441A      6.266079   442A      6.301168   443A      6.363611  
     444A      6.413078   445A      6.424473   446A      6.426260  
     447A      6.503909   448A      6.660886   449A      6.701998  
     450A      6.737087   451A      6.857176   452A      6.893366  
     453A      6.947020   454A      7.035064   455A      7.045470  
     456A     17.853051   457A     18.047904   458A     18.757175  
     459A     19.543808   460A     20.037481  

    Final Occupation by Irrep:
              A 
    DOCC [    20 ]

  @DF-RHF Final Energy:  -195.23011562068663

   => Energetics <=

    Nuclear Repulsion Energy =            188.3371542134710808
    One-Electron Energy =                -635.4645043249228138
    Two-Electron Energy =                 251.8972344907651006
    Total Energy =                       -195.2301156206866324

Computation Completed


Properties will be evaluated at   0.000000,   0.000000,   0.000000 [a0]

Properties computed using the SCF density matrix

  Nuclear Dipole Moment: [e a0]
     X:     9.1163      Y:    -5.0476      Z:   297.8006

  Electronic Dipole Moment: [e a0]
     X:    -9.1120      Y:     5.0518      Z:  -297.7992

  Dipole Moment: [e a0]
     X:     0.0044      Y:     0.0042      Z:     0.0014     Total:     0.0062

  Dipole Moment: [D]
     X:     0.0111      Y:     0.0106      Z:     0.0036     Total:     0.0158


*** tstop() called on node85.bme.utexas.edu at Thu Apr 23 20:12:23 2020
Module time:
	user time   =      49.59 seconds =       0.83 minutes
	system time =       1.23 seconds =       0.02 minutes
	total time  =          7 seconds =       0.12 minutes
Total time:
	user time   =      49.59 seconds =       0.83 minutes
	system time =       1.23 seconds =       0.02 minutes
	total time  =          7 seconds =       0.12 minutes

*** tstart() called on node85.bme.utexas.edu
*** at Thu Apr 23 20:12:23 2020


  //>>>>>>>>>>>>>>>>>>>>>>>>>>>>>>>>>>>//
  //               DFMP2               //
  //<<<<<<<<<<<<<<<<<<<<<<<<<<<<<<<<<<<//

   => Loading Basis Set <=

    Name: (AUG-CC-PVTZ AUX)
    Role: RIFIT
    Keyword: DF_BASIS_MP2
    atoms 1, 4, 7, 10, 13             entry C          line   148 file /home/liuchw/anaconda3/envs/psi4env/share/psi4/basis/aug-cc-pvtz-ri.gbs 
    atoms 2-3, 5-6, 8-9, 11-12, 14-15 entry H          line    30 file /home/liuchw/anaconda3/envs/psi4env/share/psi4/basis/aug-cc-pvtz-ri.gbs 

	 --------------------------------------------------------
	                          DF-MP2                         
	      2nd-Order Density-Fitted Moller-Plesset Theory     
	              RMP2 Wavefunction,   8 Threads             
	                                                         
	        Rob Parrish, Justin Turney, Andy Simmonett,      
	           Ed Hohenstein, and C. David Sherrill          
	 --------------------------------------------------------

   => Auxiliary Basis Set <=

  Basis Set: (AUG-CC-PVTZ AUX)
    Blend: AUG-CC-PVTZ-RI
    Number of shells: 280
    Number of basis function: 990
    Number of Cartesian functions: 1230
    Spherical Harmonics?: true
    Max angular momentum: 4

	 --------------------------------------------------------
	                 NBF =   460, NAUX =   990
	 --------------------------------------------------------
	   CLASS    FOCC     OCC    AOCC    AVIR     VIR    FVIR
	   PAIRS       0      20      20     440     440       0
	 --------------------------------------------------------

	-----------------------------------------------------------
	 ==================> DF-MP2 Energies <==================== 
	-----------------------------------------------------------
	 Reference Energy          =    -195.2301156206866324 [Eh]
	 Singles Energy            =      -0.0000000000000000 [Eh]
	 Same-Spin Energy          =      -0.2104770928348695 [Eh]
	 Opposite-Spin Energy      =      -0.7664120119592022 [Eh]
	 Correlation Energy        =      -0.9768891047940718 [Eh]
	 Total Energy              =    -196.2070047254807150 [Eh]
	-----------------------------------------------------------
	 ================> DF-SCS-MP2 Energies <================== 
	-----------------------------------------------------------
	 SCS Same-Spin Scale       =       0.3333333333333333 [-]
	 SCS Opposite-Spin Scale   =       1.2000000000000000 [-]
	 SCS Same-Spin Energy      =      -0.0701590309449565 [Eh]
	 SCS Opposite-Spin Energy  =      -0.9196944143510426 [Eh]
	 SCS Correlation Energy    =      -0.9898534452959991 [Eh]
	 SCS Total Energy          =    -196.2199690659826388 [Eh]
	-----------------------------------------------------------


*** tstop() called on node85.bme.utexas.edu at Thu Apr 23 20:12:27 2020
Module time:
	user time   =      26.48 seconds =       0.44 minutes
	system time =       0.74 seconds =       0.01 minutes
	total time  =          4 seconds =       0.07 minutes
Total time:
	user time   =      76.08 seconds =       1.27 minutes
	system time =       1.97 seconds =       0.03 minutes
	total time  =         11 seconds =       0.18 minutes

  //>>>>>>>>>>>>>>>>>>>>>>>>>>>>>>>>>>>>//
  // CBS Computation: MP2 / AUG-CC-PVQZ //
  //<<<<<<<<<<<<<<<<<<<<<<<<<<<<<<<<<<<<//


Scratch directory: /scratch/liuchw/

*** tstart() called on node85.bme.utexas.edu
*** at Thu Apr 23 20:12:27 2020

   => Loading Basis Set <=

    Name: AUG-CC-PVQZ
    Role: ORBITAL
    Keyword: BASIS
    atoms 1, 4, 7, 10, 13             entry C          line   303 file /home/liuchw/anaconda3/envs/psi4env/share/psi4/basis/aug-cc-pvqz.gbs 
    atoms 2-3, 5-6, 8-9, 11-12, 14-15 entry H          line    40 file /home/liuchw/anaconda3/envs/psi4env/share/psi4/basis/aug-cc-pvqz.gbs 


         ---------------------------------------------------------
                                   SCF
               by Justin Turney, Rob Parrish, Andy Simmonett
                          and Daniel G. A. Smith
                              RHF Reference
                        8 Threads,  19073 MiB Core
         ---------------------------------------------------------

  ==> Geometry <==

    Molecular point group: c1
    Full point group: C1

    Geometry (in Angstrom), charge = 0, multiplicity = 1:

       Center              X                  Y                   Z               Mass       
    ------------   -----------------  -----------------  -----------------  -----------------
         C            1.081454819692    -0.917265635858     3.966492165443    12.000000000000
         H            1.535314819692    -1.009325635858     2.978512165443     1.007825032230
         H            1.625964819692    -1.581245635858     4.635692165443     1.007825032230
         C            1.135774819692     0.548684364142     4.399432165443    12.000000000000
         H            2.094064819692     1.021584364142     4.188702165443     1.007825032230
         H            0.947654819692     0.630324364142     5.472652165443     1.007825032230
         C           -0.031575180308     1.161494364142     3.628652165443    12.000000000000
         H            0.242724819692     1.250284364142     2.575182165443     1.007825032230
         H           -0.315995180308     2.152644364142     3.980292165443     1.007825032230
         C           -1.148525180308     0.123924364142     3.799682165443    12.000000000000
         H           -1.874065180308     0.147544364142     2.988312165443     1.007825032230
         H           -1.692615180308     0.328624364142     4.721932165443     1.007825032230
         C           -0.425485180308    -1.242625635858     3.903342165443    12.000000000000
         H           -0.668155180308    -1.886775635858     3.059982165443     1.007825032230
         H           -0.740595180308    -1.770025635858     4.802432165443     1.007825032230

  Running in c1 symmetry.

  Rotational constants: A =      0.12971  B =      0.01446  C =      0.01442 [cm^-1]
  Rotational constants: A =   3888.58777  B =    433.37296  C =    432.26611 [MHz]
  Nuclear repulsion =  188.337154213471081

  Charge       = 0
  Multiplicity = 1
  Electrons    = 40
  Nalpha       = 20
  Nbeta        = 20

  ==> Algorithm <==

  SCF Algorithm Type is DF.
  DIIS enabled.
  MOM disabled.
  Fractional occupation disabled.
  Guess Type is SAD.
  Energy threshold   = 1.00e-07
  Density threshold  = 1.00e-08
  Integral threshold = 0.00e+00

  ==> Primary Basis <==

  Basis Set: AUG-CC-PVQZ
    Blend: AUG-CC-PVQZ
    Number of shells: 240
    Number of basis function: 860
    Number of Cartesian functions: 1075
    Spherical Harmonics?: true
    Max angular momentum: 4

   => Loading Basis Set <=

    Name: (AUG-CC-PVQZ AUX)
    Role: JKFIT
    Keyword: DF_BASIS_SCF
    atoms 1, 4, 7, 10, 13             entry C          line   178 file /home/liuchw/anaconda3/envs/psi4env/share/psi4/basis/aug-cc-pvqz-jkfit.gbs 
    atoms 2-3, 5-6, 8-9, 11-12, 14-15 entry H          line    70 file /home/liuchw/anaconda3/envs/psi4env/share/psi4/basis/aug-cc-pvqz-jkfit.gbs 

  ==> Pre-Iterations <==

   -------------------------------------------------------
    Irrep   Nso     Nmo     Nalpha   Nbeta   Ndocc  Nsocc
   -------------------------------------------------------
     A        860     860       0       0       0       0
   -------------------------------------------------------
    Total     860     860      20      20      20       0
   -------------------------------------------------------

  ==> Integral Setup <==

  DFHelper Memory: AOs need 8.165 GiB; user supplied 13.970 GiB. Using in-core AOs.

  ==> MemDFJK: Density-Fitted J/K Matrices <==

    J tasked:                   Yes
    K tasked:                   Yes
    wK tasked:                   No
    OpenMP threads:               8
    Memory [MiB]:             14305
    Algorithm:                 Core
    Schwarz Cutoff:           1E-12
    Mask sparsity (%):       2.1955
    Fitting Condition:        1E-10

   => Auxiliary Basis Set <=

  Basis Set: (AUG-CC-PVQZ AUX)
    Blend: AUG-CC-PVQZ-JKFIT
    Number of shells: 350
    Number of basis function: 1470
    Number of Cartesian functions: 2000
    Spherical Harmonics?: true
    Max angular momentum: 5

  Minimum eigenvalue in the overlap matrix is 5.6706959748E-07.
  Using Symmetric Orthogonalization.

  SCF Guess: Superposition of Atomic Densities via on-the-fly atomic UHF.

  ==> Iterations <==

                           Total Energy        Delta E     RMS |[F,P]|

   @DF-RHF iter SAD:  -195.15685551803955   -1.95157e+02   0.00000e+00 
   @DF-RHF iter   1:  -194.98622210793820    1.70633e-01   7.53837e-04 DIIS
   @DF-RHF iter   2:  -195.16840444433379   -1.82182e-01   4.36432e-04 DIIS
   @DF-RHF iter   3:  -195.23830436661214   -6.98999e-02   6.61960e-05 DIIS
   @DF-RHF iter   4:  -195.24148796000964   -3.18359e-03   1.06551e-05 DIIS
   @DF-RHF iter   5:  -195.24159764420466   -1.09684e-04   2.31165e-06 DIIS
   @DF-RHF iter   6:  -195.24160276817742   -5.12397e-06   2.92872e-07 DIIS
   @DF-RHF iter   7:  -195.24160284679448   -7.86171e-08   5.11782e-08 DIIS
   @DF-RHF iter   8:  -195.24160284827613   -1.48165e-09   1.82094e-08 DIIS
   @DF-RHF iter   9:  -195.24160284843808   -1.61947e-10   2.65088e-09 DIIS
  Energy and wave function converged.


  ==> Post-Iterations <==

    Orbital Energies [Eh]
    ---------------------

    Doubly Occupied:                                                      

       1A    -11.209440     2A    -11.209035     3A    -11.209032  
       4A    -11.208416     5A    -11.208278     6A     -1.115821  
       7A     -0.956356     8A     -0.955777     9A     -0.776636  
      10A     -0.767291    11A     -0.649964    12A     -0.644711  
      13A     -0.569706    14A     -0.567757    15A     -0.475381  
      16A     -0.474609    17A     -0.463715    18A     -0.460178  
      19A     -0.459576    20A     -0.448765  

    Virtual:                                                              

      21A      0.028269    22A      0.033859    23A      0.034406  
      24A      0.035112    25A      0.050668    26A      0.051950  
      27A      0.052522    28A      0.054028    29A      0.054916  
      30A      0.070253    31A      0.102089    32A      0.103105  
      33A      0.107136    34A      0.109031    35A      0.110125  
      36A      0.111379    37A      0.114683    38A      0.117125  
      39A      0.118441    40A      0.124789    41A      0.126617  
      42A      0.140953    43A      0.141758    44A      0.144510  
      45A      0.146064    46A      0.162845    47A      0.163557  
      48A      0.177438    49A      0.183118    50A      0.190655  
      51A      0.225784    52A      0.239076    53A      0.245169  
      54A      0.248093    55A      0.252807    56A      0.255897  
      57A      0.259369    58A      0.265127    59A      0.267821  
      60A      0.270097    61A      0.273447    62A      0.276269  
      63A      0.280725    64A      0.285723    65A      0.296524  
      66A      0.299541    67A      0.304192    68A      0.305627  
      69A      0.307597    70A      0.316186    71A      0.317779  
      72A      0.343798    73A      0.346023    74A      0.346681  
      75A      0.349350    76A      0.351086    77A      0.355386  
      78A      0.357498    79A      0.359498    80A      0.362863  
      81A      0.363654    82A      0.365306    83A      0.368385  
      84A      0.371607    85A      0.372481    86A      0.377357  
      87A      0.389781    88A      0.415444    89A      0.417836  
      90A      0.432559    91A      0.434680    92A      0.437175  
      93A      0.437730    94A      0.443613    95A      0.447570  
      96A      0.448790    97A      0.453416    98A      0.456726  
      99A      0.459605   100A      0.464941   101A      0.471968  
     102A      0.477631   103A      0.481079   104A      0.483178  
     105A      0.487487   106A      0.490571   107A      0.496871  
     108A      0.501411   109A      0.501797   110A      0.522289  
     111A      0.523364   112A      0.528828   113A      0.535457  
     114A      0.538352   115A      0.549684   116A      0.552465  
     117A      0.556142   118A      0.564737   119A      0.581232  
     120A      0.585288   121A      0.597777   122A      0.605252  
     123A      0.611847   124A      0.615733   125A      0.627107  
     126A      0.634686   127A      0.646210   128A      0.652020  
     129A      0.668989   130A      0.678745   131A      0.680511  
     132A      0.686669   133A      0.697027   134A      0.700875  
     135A      0.705346   136A      0.710682   137A      0.716808  
     138A      0.720864   139A      0.725988   140A      0.729149  
     141A      0.732952   142A      0.735999   143A      0.744039  
     144A      0.746549   145A      0.752116   146A      0.753498  
     147A      0.757037   148A      0.764384   149A      0.769966  
     150A      0.773045   151A      0.776612   152A      0.784450  
     153A      0.788205   154A      0.791558   155A      0.811132  
     156A      0.823618   157A      0.844007   158A      0.848791  
     159A      0.849429   160A      0.874317   161A      0.878772  
     162A      0.883211   163A      0.892503   164A      0.904770  
     165A      0.914306   166A      0.915151   167A      0.923653  
     168A      0.925522   169A      0.931824   170A      0.941969  
     171A      0.945035   172A      0.952237   173A      0.967245  
     174A      0.969264   175A      0.976288   176A      0.980699  
     177A      0.987974   178A      1.004359   179A      1.009124  
     180A      1.011921   181A      1.014792   182A      1.023331  
     183A      1.027508   184A      1.034590   185A      1.043716  
     186A      1.048487   187A      1.055730   188A      1.060619  
     189A      1.062737   190A      1.073103   191A      1.076372  
     192A      1.089249   193A      1.096294   194A      1.098805  
     195A      1.114537   196A      1.122462   197A      1.129710  
     198A      1.136582   199A      1.146298   200A      1.154191  
     201A      1.158980   202A      1.172141   203A      1.177821  
     204A      1.184035   205A      1.188160   206A      1.193515  
     207A      1.200254   208A      1.205860   209A      1.210753  
     210A      1.213534   211A      1.219673   212A      1.222147  
     213A      1.233714   214A      1.243372   215A      1.252314  
     216A      1.255859   217A      1.261333   218A      1.263208  
     219A      1.265156   220A      1.274773   221A      1.284351  
     222A      1.290535   223A      1.299578   224A      1.312936  
     225A      1.318828   226A      1.326964   227A      1.333480  
     228A      1.339056   229A      1.352603   230A      1.362037  
     231A      1.367370   232A      1.389440   233A      1.410125  
     234A      1.424039   235A      1.425955   236A      1.442468  
     237A      1.449436   238A      1.452431   239A      1.459456  
     240A      1.466483   241A      1.488624   242A      1.501215  
     243A      1.502616   244A      1.512015   245A      1.516639  
     246A      1.527601   247A      1.539181   248A      1.541835  
     249A      1.553441   250A      1.565582   251A      1.577368  
     252A      1.579889   253A      1.597442   254A      1.611250  
     255A      1.616703   256A      1.618969   257A      1.637165  
     258A      1.658573   259A      1.677058   260A      1.687914  
     261A      1.694959   262A      1.706544   263A      1.708839  
     264A      1.720233   265A      1.726214   266A      1.734852  
     267A      1.743041   268A      1.757800   269A      1.763001  
     270A      1.772143   271A      1.779906   272A      1.787792  
     273A      1.794458   274A      1.817491   275A      1.820086  
     276A      1.832618   277A      1.833970   278A      1.844444  
     279A      1.856950   280A      1.865067   281A      1.884776  
     282A      1.895700   283A      1.898286   284A      1.918319  
     285A      1.934576   286A      1.939391   287A      1.947549  
     288A      1.953216   289A      1.966590   290A      1.970991  
     291A      1.982363   292A      1.989126   293A      2.006201  
     294A      2.021753   295A      2.024546   296A      2.029157  
     297A      2.042162   298A      2.049283   299A      2.051055  
     300A      2.066053   301A      2.072539   302A      2.079821  
     303A      2.082294   304A      2.101002   305A      2.101723  
     306A      2.106490   307A      2.113661   308A      2.129867  
     309A      2.136832   310A      2.144598   311A      2.151815  
     312A      2.155889   313A      2.163036   314A      2.166711  
     315A      2.176657   316A      2.192864   317A      2.201804  
     318A      2.202979   319A      2.214804   320A      2.218223  
     321A      2.220450   322A      2.225707   323A      2.236138  
     324A      2.248933   325A      2.252675   326A      2.261703  
     327A      2.267168   328A      2.275466   329A      2.282436  
     330A      2.283549   331A      2.297217   332A      2.299011  
     333A      2.305967   334A      2.307558   335A      2.316143  
     336A      2.325263   337A      2.333571   338A      2.341022  
     339A      2.346931   340A      2.354871   341A      2.363714  
     342A      2.370049   343A      2.384682   344A      2.387878  
     345A      2.402619   346A      2.411502   347A      2.413726  
     348A      2.422968   349A      2.430866   350A      2.445585  
     351A      2.452628   352A      2.456042   353A      2.472398  
     354A      2.481609   355A      2.492746   356A      2.503335  
     357A      2.509152   358A      2.514811   359A      2.520800  
     360A      2.527881   361A      2.531464   362A      2.547818  
     363A      2.549652   364A      2.567654   365A      2.568055  
     366A      2.579252   367A      2.591609   368A      2.596258  
     369A      2.626769   370A      2.641978   371A      2.653253  
     372A      2.663879   373A      2.665583   374A      2.684479  
     375A      2.686256   376A      2.698845   377A      2.708309  
     378A      2.713736   379A      2.728740   380A      2.733440  
     381A      2.742213   382A      2.749210   383A      2.760322  
     384A      2.774637   385A      2.794450   386A      2.801983  
     387A      2.815797   388A      2.821495   389A      2.831761  
     390A      2.837603   391A      2.851814   392A      2.858146  
     393A      2.893577   394A      2.903238   395A      2.912232  
     396A      2.925320   397A      2.941153   398A      2.945028  
     399A      2.954557   400A      2.957449   401A      2.973315  
     402A      2.984902   403A      2.995793   404A      3.019098  
     405A      3.033860   406A      3.042148   407A      3.050465  
     408A      3.062685   409A      3.079151   410A      3.086986  
     411A      3.096901   412A      3.110268   413A      3.113726  
     414A      3.126477   415A      3.138767   416A      3.152631  
     417A      3.167585   418A      3.188924   419A      3.202211  
     420A      3.212287   421A      3.217732   422A      3.228488  
     423A      3.234375   424A      3.248150   425A      3.252658  
     426A      3.262892   427A      3.269894   428A      3.277605  
     429A      3.279143   430A      3.292036   431A      3.307311  
     432A      3.318252   433A      3.338444   434A      3.343339  
     435A      3.354792   436A      3.378269   437A      3.382857  
     438A      3.394071   439A      3.396131   440A      3.416431  
     441A      3.425451   442A      3.432260   443A      3.446150  
     444A      3.466405   445A      3.474743   446A      3.487396  
     447A      3.489615   448A      3.511935   449A      3.519699  
     450A      3.535521   451A      3.548659   452A      3.559300  
     453A      3.567464   454A      3.575306   455A      3.594766  
     456A      3.609343   457A      3.613627   458A      3.633931  
     459A      3.643782   460A      3.647520   461A      3.669463  
     462A      3.696298   463A      3.704883   464A      3.714278  
     465A      3.732108   466A      3.752297   467A      3.761884  
     468A      3.767698   469A      3.786446   470A      3.805172  
     471A      3.822431   472A      3.826541   473A      3.848004  
     474A      3.857084   475A      3.863287   476A      3.890175  
     477A      3.903065   478A      3.910192   479A      3.935330  
     480A      3.942446   481A      3.957210   482A      3.974812  
     483A      3.991173   484A      3.998184   485A      4.006921  
     486A      4.020957   487A      4.034177   488A      4.040213  
     489A      4.052158   490A      4.081272   491A      4.087781  
     492A      4.092652   493A      4.109288   494A      4.129724  
     495A      4.132173   496A      4.138326   497A      4.157396  
     498A      4.165401   499A      4.183698   500A      4.200288  
     501A      4.218080   502A      4.239681   503A      4.252747  
     504A      4.264795   505A      4.272362   506A      4.284023  
     507A      4.304967   508A      4.329888   509A      4.336542  
     510A      4.361578   511A      4.371396   512A      4.384166  
     513A      4.396501   514A      4.406857   515A      4.415820  
     516A      4.431566   517A      4.444966   518A      4.459099  
     519A      4.463581   520A      4.471904   521A      4.507991  
     522A      4.536757   523A      4.540645   524A      4.558331  
     525A      4.566465   526A      4.582213   527A      4.597755  
     528A      4.613375   529A      4.627198   530A      4.631521  
     531A      4.658973   532A      4.670724   533A      4.679348  
     534A      4.710183   535A      4.716808   536A      4.725403  
     537A      4.731992   538A      4.740603   539A      4.775204  
     540A      4.791177   541A      4.798205   542A      4.826866  
     543A      4.844573   544A      4.858270   545A      4.870575  
     546A      4.876025   547A      4.916412   548A      4.926852  
     549A      4.944199   550A      4.953464   551A      4.979337  
     552A      4.984922   553A      5.005852   554A      5.027940  
     555A      5.054334   556A      5.058053   557A      5.100936  
     558A      5.142681   559A      5.177201   560A      5.197580  
     561A      5.207093   562A      5.219517   563A      5.239263  
     564A      5.260690   565A      5.307038   566A      5.330401  
     567A      5.356378   568A      5.379547   569A      5.385918  
     570A      5.406043   571A      5.458290   572A      5.477223  
     573A      5.521050   574A      5.536066   575A      5.563580  
     576A      6.200720   577A      6.222462   578A      6.275558  
     579A      6.287289   580A      6.304553   581A      6.332663  
     582A      6.348338   583A      6.370963   584A      6.405722  
     585A      6.443564   586A      6.457987   587A      6.468872  
     588A      6.492420   589A      6.518468   590A      6.540291  
     591A      6.550705   592A      6.602423   593A      6.638835  
     594A      6.643380   595A      6.653899   596A      6.695803  
     597A      6.704512   598A      6.728505   599A      6.759966  
     600A      6.790404   601A      6.798681   602A      6.819394  
     603A      6.829238   604A      6.842206   605A      6.858782  
     606A      6.864361   607A      6.881752   608A      6.887431  
     609A      6.894566   610A      6.908632   611A      6.914995  
     612A      6.925428   613A      6.940931   614A      6.948821  
     615A      6.971436   616A      6.984925   617A      6.994327  
     618A      7.008202   619A      7.026885   620A      7.034142  
     621A      7.036258   622A      7.043860   623A      7.056674  
     624A      7.067930   625A      7.083023   626A      7.085068  
     627A      7.105933   628A      7.114822   629A      7.121186  
     630A      7.135532   631A      7.155522   632A      7.163275  
     633A      7.165973   634A      7.197312   635A      7.206305  
     636A      7.214018   637A      7.236475   638A      7.245214  
     639A      7.285126   640A      7.295136   641A      7.302895  
     642A      7.317690   643A      7.326363   644A      7.356565  
     645A      7.366485   646A      7.380264   647A      7.391055  
     648A      7.406841   649A      7.411455   650A      7.428655  
     651A      7.469176   652A      7.484061   653A      7.489011  
     654A      7.500188   655A      7.506359   656A      7.522789  
     657A      7.537428   658A      7.544964   659A      7.562455  
     660A      7.582871   661A      7.593749   662A      7.603065  
     663A      7.608591   664A      7.635958   665A      7.646755  
     666A      7.671640   667A      7.681178   668A      7.703262  
     669A      7.731754   670A      7.740007   671A      7.755741  
     672A      7.768523   673A      7.782341   674A      7.794465  
     675A      7.806393   676A      7.829559   677A      7.842304  
     678A      7.887348   679A      7.921565   680A      7.939156  
     681A      7.942910   682A      7.949638   683A      7.970664  
     684A      7.983036   685A      8.009586   686A      8.024040  
     687A      8.037516   688A      8.060442   689A      8.083231  
     690A      8.110998   691A      8.116437   692A      8.137468  
     693A      8.193613   694A      8.201443   695A      8.217747  
     696A      8.244338   697A      8.263878   698A      8.283752  
     699A      8.298126   700A      8.304416   701A      8.307942  
     702A      8.352519   703A      8.377517   704A      8.402497  
     705A      8.442649   706A      8.480418   707A      8.501178  
     708A      8.521483   709A      8.536913   710A      8.560995  
     711A      8.578548   712A      8.598284   713A      8.605246  
     714A      8.636254   715A      8.646823   716A      8.658992  
     717A      8.676936   718A      8.705186   719A      8.722722  
     720A      8.734512   721A      8.769348   722A      8.781086  
     723A      8.804646   724A      8.828542   725A      8.842279  
     726A      8.848598   727A      8.885188   728A      8.897059  
     729A      8.914454   730A      8.935117   731A      8.945643  
     732A      8.959550   733A      8.989877   734A      9.020403  
     735A      9.059882   736A      9.077644   737A      9.097841  
     738A      9.122673   739A      9.147172   740A      9.181491  
     741A      9.200805   742A      9.209912   743A      9.232343  
     744A      9.253052   745A      9.275764   746A      9.319002  
     747A      9.331678   748A      9.335100   749A      9.367977  
     750A      9.385958   751A      9.397410   752A      9.414078  
     753A      9.425901   754A      9.428439   755A      9.445948  
     756A      9.466503   757A      9.478878   758A      9.483516  
     759A      9.518043   760A      9.531724   761A      9.553330  
     762A      9.586281   763A      9.620688   764A      9.624035  
     765A      9.628882   766A      9.683092   767A      9.705189  
     768A      9.725719   769A      9.731763   770A      9.743702  
     771A      9.746977   772A      9.752629   773A      9.761657  
     774A      9.780638   775A      9.795446   776A      9.815527  
     777A      9.843935   778A      9.853375   779A      9.873877  
     780A      9.882248   781A      9.919740   782A      9.953418  
     783A      9.955183   784A      9.965664   785A      9.975897  
     786A      9.980975   787A      9.991647   788A     10.005391  
     789A     10.014278   790A     10.034885   791A     10.049132  
     792A     10.061546   793A     10.098864   794A     10.144954  
     795A     10.154799   796A     10.168760   797A     10.183941  
     798A     10.231447   799A     10.244591   800A     10.268270  
     801A     10.309684   802A     10.324266   803A     10.326298  
     804A     10.347586   805A     10.380559   806A     10.397771  
     807A     10.436925   808A     10.450666   809A     10.484557  
     810A     10.516876   811A     10.522155   812A     10.539798  
     813A     10.549517   814A     10.572922   815A     10.598285  
     816A     10.633842   817A     10.659234   818A     10.722138  
     819A     10.762134   820A     10.773835   821A     10.841790  
     822A     10.874361   823A     10.927649   824A     10.936867  
     825A     10.956740   826A     10.979922   827A     11.003286  
     828A     11.026319   829A     11.056839   830A     11.080380  
     831A     11.120830   832A     11.139959   833A     11.170592  
     834A     11.194232   835A     11.197480   836A     11.231261  
     837A     11.249309   838A     11.294772   839A     11.358961  
     840A     11.374633   841A     11.479267   842A     11.601140  
     843A     11.635744   844A     11.689637   845A     11.909285  
     846A     13.402737   847A     13.470397   848A     13.521343  
     849A     13.555580   850A     13.597190   851A     13.661912  
     852A     13.680660   853A     13.747365   854A     13.845504  
     855A     13.945326   856A     28.309308   857A     28.484082  
     858A     28.544156   859A     28.599667   860A     28.704357  

    Final Occupation by Irrep:
              A 
    DOCC [    20 ]

  @DF-RHF Final Energy:  -195.24160284843808

   => Energetics <=

    Nuclear Repulsion Energy =            188.3371542134710808
    One-Electron Energy =                -635.4966205785161719
    Two-Electron Energy =                 251.9178635166070137
    Total Energy =                       -195.2416028484380774

Computation Completed


Properties will be evaluated at   0.000000,   0.000000,   0.000000 [a0]

Properties computed using the SCF density matrix

  Nuclear Dipole Moment: [e a0]
     X:     9.1163      Y:    -5.0476      Z:   297.8006

  Electronic Dipole Moment: [e a0]
     X:    -9.1120      Y:     5.0518      Z:  -297.7992

  Dipole Moment: [e a0]
     X:     0.0044      Y:     0.0042      Z:     0.0014     Total:     0.0062

  Dipole Moment: [D]
     X:     0.0111      Y:     0.0106      Z:     0.0035     Total:     0.0157


*** tstop() called on node85.bme.utexas.edu at Thu Apr 23 20:12:59 2020
Module time:
	user time   =     230.21 seconds =       3.84 minutes
	system time =       4.87 seconds =       0.08 minutes
	total time  =         32 seconds =       0.53 minutes
Total time:
	user time   =     306.34 seconds =       5.11 minutes
	system time =       6.84 seconds =       0.11 minutes
	total time  =         43 seconds =       0.72 minutes

*** tstart() called on node85.bme.utexas.edu
*** at Thu Apr 23 20:12:59 2020


  //>>>>>>>>>>>>>>>>>>>>>>>>>>>>>>>>>>>//
  //               DFMP2               //
  //<<<<<<<<<<<<<<<<<<<<<<<<<<<<<<<<<<<//

   => Loading Basis Set <=

    Name: (AUG-CC-PVQZ AUX)
    Role: RIFIT
    Keyword: DF_BASIS_MP2
    atoms 1, 4, 7, 10, 13             entry C          line   184 file /home/liuchw/anaconda3/envs/psi4env/share/psi4/basis/aug-cc-pvqz-ri.gbs 
    atoms 2-3, 5-6, 8-9, 11-12, 14-15 entry H          line    30 file /home/liuchw/anaconda3/envs/psi4env/share/psi4/basis/aug-cc-pvqz-ri.gbs 

	 --------------------------------------------------------
	                          DF-MP2                         
	      2nd-Order Density-Fitted Moller-Plesset Theory     
	              RMP2 Wavefunction,   8 Threads             
	                                                         
	        Rob Parrish, Justin Turney, Andy Simmonett,      
	           Ed Hohenstein, and C. David Sherrill          
	 --------------------------------------------------------

   => Auxiliary Basis Set <=

  Basis Set: (AUG-CC-PVQZ AUX)
    Blend: AUG-CC-PVQZ-RI
    Number of shells: 380
    Number of basis function: 1640
    Number of Cartesian functions: 2235
    Spherical Harmonics?: true
    Max angular momentum: 5

	 --------------------------------------------------------
	                 NBF =   860, NAUX =  1640
	 --------------------------------------------------------
	   CLASS    FOCC     OCC    AOCC    AVIR     VIR    FVIR
	   PAIRS       0      20      20     840     840       0
	 --------------------------------------------------------

	-----------------------------------------------------------
	 ==================> DF-MP2 Energies <==================== 
	-----------------------------------------------------------
	 Reference Energy          =    -195.2416028484380774 [Eh]
	 Singles Energy            =      -0.0000000000000000 [Eh]
	 Same-Spin Energy          =      -0.2222213281150854 [Eh]
	 Opposite-Spin Energy      =      -0.8494224609125991 [Eh]
	 Correlation Energy        =      -1.0716437890276844 [Eh]
	 Total Energy              =    -196.3132466374657668 [Eh]
	-----------------------------------------------------------
	 ================> DF-SCS-MP2 Energies <================== 
	-----------------------------------------------------------
	 SCS Same-Spin Scale       =       0.3333333333333333 [-]
	 SCS Opposite-Spin Scale   =       1.2000000000000000 [-]
	 SCS Same-Spin Energy      =      -0.0740737760383618 [Eh]
	 SCS Opposite-Spin Energy  =      -1.0193069530951189 [Eh]
	 SCS Correlation Energy    =      -1.0933807291334807 [Eh]
	 SCS Total Energy          =    -196.3349835775715633 [Eh]
	-----------------------------------------------------------


*** tstop() called on node85.bme.utexas.edu at Thu Apr 23 20:13:18 2020
Module time:
	user time   =     114.88 seconds =       1.91 minutes
	system time =       2.53 seconds =       0.04 minutes
	total time  =         19 seconds =       0.32 minutes
Total time:
	user time   =     421.22 seconds =       7.02 minutes
	system time =       9.37 seconds =       0.16 minutes
	total time  =         62 seconds =       1.03 minutes

  //>>>>>>>>>>>>>>>>>>>>>>>>>>>>>>>>>>>//
  //  CBS Results: mp2/aug-cc-pv[tq]z  //
  //<<<<<<<<<<<<<<<<<<<<<<<<<<<<<<<<<<<//


   ==> HF <==

   HI-zeta (4) Energy:               -195.241602848438


   ==> Helgaker 2-point correlated extrapolation for method: MP2 <==

   LO-zeta (3) Energy:               -196.207004725481
   HI-zeta (4) Energy:               -196.313246637466
   Alpha (exponent) Value:             3.000000000000
   Extrapolated Energy:              -196.390774519185

   @Extrapolated MP2/(T,Q):          -196.390774519185



   ==> Helgaker 2-point correlated extrapolation for method: HF <==

   LO-zeta (3) Energy:               -195.230115620687
   HI-zeta (4) Energy:               -195.241602848438
   Alpha (exponent) Value:             3.000000000000
   Extrapolated Energy:              -195.249985420040

   @Extrapolated HF/(T,Q):           -195.249985420040


   ==> Components <==

  ---------------------------------------------------------------------------------------------------------
                          Method / Basis                      Rqd      Energy [Eh]   Variable
  ---------------------------------------------------------------------------------------------------------
                              hf / aug-cc-pvtz                  *    -195.23011562   HF TOTAL ENERGY
                             mp2 / aug-cc-pvtz                  *    -196.20700473   MP2 TOTAL ENERGY
                              hf / aug-cc-pvqz                  *    -195.24160285   HF TOTAL ENERGY
                             mp2 / aug-cc-pvqz                  *    -196.31324664   MP2 TOTAL ENERGY
  ---------------------------------------------------------------------------------------------------------

   ==> Stages <==

  ---------------------------------------------------------------------------------------------------------
      Stage               Method / Basis                       Wt      Energy [Eh]   Scheme
  ---------------------------------------------------------------------------------------------------------
        scf                   hf / aug-cc-pvqz                  1    -195.24160285   xtpl_highest_1
       corl                  mp2 / aug-cc-pv[tq]z               1    -196.39077452   corl_xtpl_helgaker_2
       corl                   hf / aug-cc-pv[tq]z              -1    -195.24998542   corl_xtpl_helgaker_2
  ---------------------------------------------------------------------------------------------------------

   ==> CBS <==

  ---------------------------------------------------------------------------------------------------------
      Stage               Method / Basis                               Energy [Eh]   Scheme
  ---------------------------------------------------------------------------------------------------------
        scf                   hf / aug-cc-pvqz                       -195.24160285   xtpl_highest_1
       corl                  mp2 / aug-cc-pv[tq]z                      -1.14078910   corl_xtpl_helgaker_2
      total                  CBS                                     -196.38239195   
  ---------------------------------------------------------------------------------------------------------
   => Loading Basis Set <=

    Name: DEF2-SVP
    Role: ORBITAL
    Keyword: BASIS
    atoms 1, 4, 7, 10, 13             entry C          line    90 file /home/liuchw/anaconda3/envs/psi4env/share/psi4/basis/def2-svp.gbs 
    atoms 2-3, 5-6, 8-9, 11-12, 14-15 entry H          line    15 file /home/liuchw/anaconda3/envs/psi4env/share/psi4/basis/def2-svp.gbs 


       N-Body: Complex Energy (fragments = (2,), basis = (2,):  -196.38239194758219)

       N-Body: Computing complex (2/4) with fragments (2,) in the basis of fragments (1, 2).


Scratch directory: /scratch/liuchw/

  //>>>>>>>>>>>>>>>>>>>>>>>>>>>>>>>>>>>//
  //   CBS Setup: mp2/aug-cc-pv[tq]z   //
  //<<<<<<<<<<<<<<<<<<<<<<<<<<<<<<<<<<<//

    Naive listing of computations required.
             hf / aug-cc-pvqz              for  HF TOTAL ENERGY
            mp2 / aug-cc-pvtz              for  MP2 TOTAL ENERGY
            mp2 / aug-cc-pvqz              for  MP2 TOTAL ENERGY
             hf / aug-cc-pvtz              for  HF TOTAL ENERGY
             hf / aug-cc-pvqz              for  HF TOTAL ENERGY

    Enlightened listing of computations required.
            mp2 / aug-cc-pvtz              for  MP2 TOTAL ENERGY
            mp2 / aug-cc-pvqz              for  MP2 TOTAL ENERGY

    Full listing of computations to be obtained (required and bonus).
             hf / aug-cc-pvtz              for  HF TOTAL ENERGY
            mp2 / aug-cc-pvtz              for  MP2 TOTAL ENERGY
             hf / aug-cc-pvqz              for  HF TOTAL ENERGY
            mp2 / aug-cc-pvqz              for  MP2 TOTAL ENERGY

  //>>>>>>>>>>>>>>>>>>>>>>>>>>>>>>>>>>>>//
  // CBS Computation: MP2 / AUG-CC-PVTZ //
  //<<<<<<<<<<<<<<<<<<<<<<<<<<<<<<<<<<<<//


Scratch directory: /scratch/liuchw/

*** tstart() called on node85.bme.utexas.edu
*** at Thu Apr 23 20:13:20 2020

   => Loading Basis Set <=

    Name: AUG-CC-PVTZ
    Role: ORBITAL
    Keyword: BASIS
    atoms 1, 9                                           entry N          line   285 file /home/liuchw/anaconda3/envs/psi4env/share/psi4/basis/aug-cc-pvtz.gbs 
    atoms 2, 6, 8, 10, 14-15, 17-18, 20-21, 23-24, 26-27 entry H          line    40 file /home/liuchw/anaconda3/envs/psi4env/share/psi4/basis/aug-cc-pvtz.gbs 
    atoms 3, 5, 7, 11, 13, 16, 19, 22, 25                entry C          line   239 file /home/liuchw/anaconda3/envs/psi4env/share/psi4/basis/aug-cc-pvtz.gbs 
    atoms 4, 12                                          entry O          line   331 file /home/liuchw/anaconda3/envs/psi4env/share/psi4/basis/aug-cc-pvtz.gbs 


         ---------------------------------------------------------
                                   SCF
               by Justin Turney, Rob Parrish, Andy Simmonett
                          and Daniel G. A. Smith
                              RHF Reference
                        8 Threads,  19073 MiB Core
         ---------------------------------------------------------

  ==> Geometry <==

    Molecular point group: c1
    Full point group: C1

    Geometry (in Angstrom), charge = 0, multiplicity = 1:

       Center              X                  Y                   Z               Mass       
    ------------   -----------------  -----------------  -----------------  -----------------
      Gh(N)           0.138664819692    -0.853875635858    -2.262827834557    14.003074004430
      Gh(H)           0.393334819692    -1.805935635858    -2.036907834557     1.007825032230
      Gh(C)          -1.236115180308    -0.582865635858    -2.327197834557    12.000000000000
      Gh(O)          -2.050715180308    -1.465445635858    -2.119777834557    15.994914619570
      Gh(C)          -1.533775180308     0.801974364142    -2.649117834557    12.000000000000
      Gh(H)          -2.563425180308     1.106464364142    -2.722777834557     1.007825032230
      Gh(C)          -0.525175180308     1.673774364142    -2.851787834557    12.000000000000
      Gh(H)          -0.695495180308     2.712454364142    -3.092837834557     1.007825032230
      Gh(N)           0.788564819692     1.296804364142    -2.759847834557    14.003074004430
      Gh(H)           1.532624819692     1.959694364142    -2.900717834557     1.007825032230
      Gh(C)           1.197194819692     0.010274364142    -2.450437834557    12.000000000000
      Gh(O)           2.365234819692    -0.310905635858    -2.354797834557    15.994914619570
         C            1.081454819692    -0.917265635858     3.966492165443    12.000000000000
         H            1.535314819692    -1.009325635858     2.978512165443     1.007825032230
         H            1.625964819692    -1.581245635858     4.635692165443     1.007825032230
         C            1.135774819692     0.548684364142     4.399432165443    12.000000000000
         H            2.094064819692     1.021584364142     4.188702165443     1.007825032230
         H            0.947654819692     0.630324364142     5.472652165443     1.007825032230
         C           -0.031575180308     1.161494364142     3.628652165443    12.000000000000
         H            0.242724819692     1.250284364142     2.575182165443     1.007825032230
         H           -0.315995180308     2.152644364142     3.980292165443     1.007825032230
         C           -1.148525180308     0.123924364142     3.799682165443    12.000000000000
         H           -1.874065180308     0.147544364142     2.988312165443     1.007825032230
         H           -1.692615180308     0.328624364142     4.721932165443     1.007825032230
         C           -0.425485180308    -1.242625635858     3.903342165443    12.000000000000
         H           -0.668155180308    -1.886775635858     3.059982165443     1.007825032230
         H           -0.740595180308    -1.770025635858     4.802432165443     1.007825032230

  Running in c1 symmetry.

  Rotational constants: A =      0.03366  B =      0.00852  C =      0.00800 [cm^-1]
  Rotational constants: A =   1009.08847  B =    255.33791  C =    239.87020 [MHz]
  Nuclear repulsion =  188.337154213471081

  Charge       = 0
  Multiplicity = 1
  Electrons    = 40
  Nalpha       = 20
  Nbeta        = 20

  ==> Algorithm <==

  SCF Algorithm Type is DF.
  DIIS enabled.
  MOM disabled.
  Fractional occupation disabled.
  Guess Type is SAD.
  Energy threshold   = 1.00e-07
  Density threshold  = 1.00e-08
  Integral threshold = 0.00e+00

  ==> Primary Basis <==

  Basis Set: AUG-CC-PVTZ
    Blend: AUG-CC-PVTZ
    Number of shells: 308
    Number of basis function: 920
    Number of Cartesian functions: 1065
    Spherical Harmonics?: true
    Max angular momentum: 3

   => Loading Basis Set <=

    Name: (AUG-CC-PVTZ AUX)
    Role: JKFIT
    Keyword: DF_BASIS_SCF
    atoms 1, 9                                           entry N          line   224 file /home/liuchw/anaconda3/envs/psi4env/share/psi4/basis/aug-cc-pvtz-jkfit.gbs 
    atoms 2, 6, 8, 10, 14-15, 17-18, 20-21, 23-24, 26-27 entry H          line    70 file /home/liuchw/anaconda3/envs/psi4env/share/psi4/basis/aug-cc-pvtz-jkfit.gbs 
    atoms 3, 5, 7, 11, 13, 16, 19, 22, 25                entry C          line   162 file /home/liuchw/anaconda3/envs/psi4env/share/psi4/basis/aug-cc-pvtz-jkfit.gbs 
    atoms 4, 12                                          entry O          line   286 file /home/liuchw/anaconda3/envs/psi4env/share/psi4/basis/aug-cc-pvtz-jkfit.gbs 

  ==> Pre-Iterations <==

   -------------------------------------------------------
    Irrep   Nso     Nmo     Nalpha   Nbeta   Ndocc  Nsocc
   -------------------------------------------------------
     A        920     920       0       0       0       0
   -------------------------------------------------------
    Total     920     920      20      20      20       0
   -------------------------------------------------------

  ==> Integral Setup <==

  DFHelper Memory: AOs need 10.056 GiB; user supplied 13.970 GiB. Using in-core AOs.

  ==> MemDFJK: Density-Fitted J/K Matrices <==

    J tasked:                   Yes
    K tasked:                   Yes
    wK tasked:                   No
    OpenMP threads:               8
    Memory [MiB]:             14305
    Algorithm:                 Core
    Schwarz Cutoff:           1E-12
    Mask sparsity (%):      22.0983
    Fitting Condition:        1E-10

   => Auxiliary Basis Set <=

  Basis Set: (AUG-CC-PVTZ AUX)
    Blend: AUG-CC-PVTZ-JKFIT
    Number of shells: 586
    Number of basis function: 1996
    Number of Cartesian functions: 2473
    Spherical Harmonics?: true
    Max angular momentum: 4

  Minimum eigenvalue in the overlap matrix is 2.5993959354E-06.
  Using Symmetric Orthogonalization.

  SCF Guess: Superposition of Atomic Densities via on-the-fly atomic UHF.

  ==> Iterations <==

                           Total Energy        Delta E     RMS |[F,P]|

   @DF-RHF iter SAD:  -195.14562793897932   -1.95146e+02   0.00000e+00 
   @DF-RHF iter   1:  -194.97508544453524    1.70542e-01   7.03918e-04 DIIS
   @DF-RHF iter   2:  -195.15709917486731   -1.82014e-01   4.06525e-04 DIIS
   @DF-RHF iter   3:  -195.22684703096044   -6.97479e-02   6.11312e-05 DIIS
   @DF-RHF iter   4:  -195.23001276933988   -3.16574e-03   9.64254e-06 DIIS
   @DF-RHF iter   5:  -195.23011597233759   -1.03203e-04   2.10503e-06 DIIS
   @DF-RHF iter   6:  -195.23012090180640   -4.92947e-06   2.64819e-07 DIIS
   @DF-RHF iter   7:  -195.23012097634302   -7.45366e-08   4.65015e-08 DIIS
   @DF-RHF iter   8:  -195.23012097774711   -1.40409e-09   1.63833e-08 DIIS
   @DF-RHF iter   9:  -195.23012097790223   -1.55126e-10   2.39129e-09 DIIS
  Energy and wave function converged.


  ==> Post-Iterations <==

    Orbital Energies [Eh]
    ---------------------

    Doubly Occupied:                                                      

       1A    -11.210504     2A    -11.210104     3A    -11.210099  
       4A    -11.209485     5A    -11.209352     6A     -1.116059  
       7A     -0.956543     8A     -0.955963     9A     -0.776682  
      10A     -0.767342    11A     -0.649861    12A     -0.644577  
      13A     -0.569559    14A     -0.567611    15A     -0.475235  
      16A     -0.474457    17A     -0.463582    18A     -0.459997  
      19A     -0.459452    20A     -0.448561  

    Virtual:                                                              

      21A      0.017746    22A      0.031530    23A      0.031571  
      24A      0.033558    25A      0.042503    26A      0.043288  
      27A      0.047672    28A      0.051433    29A      0.054082  
      30A      0.061574    31A      0.062013    32A      0.063184  
      33A      0.068648    34A      0.070353    35A      0.075420  
      36A      0.084420    37A      0.092642    38A      0.095379  
      39A      0.101117    40A      0.103942    41A      0.105513  
      42A      0.110324    43A      0.113033    44A      0.119790  
      45A      0.120897    46A      0.126844    47A      0.128097  
      48A      0.130004    49A      0.132870    50A      0.134113  
      51A      0.138851    52A      0.142228    53A      0.143321  
      54A      0.147492    55A      0.149442    56A      0.152255  
      57A      0.156948    58A      0.163112    59A      0.163753  
      60A      0.165896    61A      0.169102    62A      0.169834  
      63A      0.175395    64A      0.175634    65A      0.178570  
      66A      0.182237    67A      0.192653    68A      0.193618  
      69A      0.195259    70A      0.198218    71A      0.204364  
      72A      0.214333    73A      0.215781    74A      0.220681  
      75A      0.227720    76A      0.236453    77A      0.242613  
      78A      0.246421    79A      0.247548    80A      0.252617  
      81A      0.256797    82A      0.260240    83A      0.265323  
      84A      0.271276    85A      0.274440    86A      0.280385  
      87A      0.287443    88A      0.295441    89A      0.297974  
      90A      0.299314    91A      0.301124    92A      0.304828  
      93A      0.308731    94A      0.310196    95A      0.314684  
      96A      0.316186    97A      0.318853    98A      0.322544  
      99A      0.326050   100A      0.331020   101A      0.338785  
     102A      0.340088   103A      0.343572   104A      0.347203  
     105A      0.350924   106A      0.355766   107A      0.359089  
     108A      0.361881   109A      0.366056   110A      0.368751  
     111A      0.369745   112A      0.375858   113A      0.382178  
     114A      0.384480   115A      0.385875   116A      0.389021  
     117A      0.392279   118A      0.396666   119A      0.400344  
     120A      0.403041   121A      0.406032   122A      0.408071  
     123A      0.411338   124A      0.413679   125A      0.417511  
     126A      0.419508   127A      0.422427   128A      0.426219  
     129A      0.428415   130A      0.433861   131A      0.434495  
     132A      0.437404   133A      0.438252   134A      0.443497  
     135A      0.444771   136A      0.457681   137A      0.460912  
     138A      0.467163   139A      0.467451   140A      0.472887  
     141A      0.476476   142A      0.478581   143A      0.479219  
     144A      0.490910   145A      0.494668   146A      0.496407  
     147A      0.502324   148A      0.504561   149A      0.506160  
     150A      0.508930   151A      0.516791   152A      0.518001  
     153A      0.522616   154A      0.525167   155A      0.527723  
     156A      0.533248   157A      0.539092   158A      0.542698  
     159A      0.546761   160A      0.548283   161A      0.552358  
     162A      0.557493   163A      0.559234   164A      0.563763  
     165A      0.566886   166A      0.571222   167A      0.572193  
     168A      0.576031   169A      0.580116   170A      0.583012  
     171A      0.590202   172A      0.592200   173A      0.594249  
     174A      0.605221   175A      0.609957   176A      0.610356  
     177A      0.615806   178A      0.622166   179A      0.628496  
     180A      0.630721   181A      0.634220   182A      0.635602  
     183A      0.642195   184A      0.642972   185A      0.645025  
     186A      0.651777   187A      0.653415   188A      0.657804  
     189A      0.662793   190A      0.665068   191A      0.666632  
     192A      0.670124   193A      0.676388   194A      0.680784  
     195A      0.688067   196A      0.704803   197A      0.706675  
     198A      0.711725   199A      0.725074   200A      0.726630  
     201A      0.733201   202A      0.737323   203A      0.746072  
     204A      0.748370   205A      0.765598   206A      0.772480  
     207A      0.776918   208A      0.779393   209A      0.792577  
     210A      0.799847   211A      0.804292   212A      0.810826  
     213A      0.818801   214A      0.823468   215A      0.831507  
     216A      0.835044   217A      0.835983   218A      0.845618  
     219A      0.852136   220A      0.852839   221A      0.859030  
     222A      0.864281   223A      0.867001   224A      0.872727  
     225A      0.876685   226A      0.881325   227A      0.886168  
     228A      0.889134   229A      0.892742   230A      0.894984  
     231A      0.900389   232A      0.903255   233A      0.909841  
     234A      0.914740   235A      0.918799   236A      0.922447  
     237A      0.928055   238A      0.930393   239A      0.939719  
     240A      0.940347   241A      0.945591   242A      0.947774  
     243A      0.951201   244A      0.955484   245A      0.957981  
     246A      0.960973   247A      0.962420   248A      0.967386  
     249A      0.974007   250A      0.976122   251A      0.979453  
     252A      0.986176   253A      0.992307   254A      0.996939  
     255A      1.004594   256A      1.005891   257A      1.010875  
     258A      1.015292   259A      1.018382   260A      1.025175  
     261A      1.029126   262A      1.034600   263A      1.036170  
     264A      1.041681   265A      1.048946   266A      1.050135  
     267A      1.055443   268A      1.062623   269A      1.066990  
     270A      1.071110   271A      1.073302   272A      1.081579  
     273A      1.084544   274A      1.089068   275A      1.090489  
     276A      1.095996   277A      1.107951   278A      1.113607  
     279A      1.115599   280A      1.116973   281A      1.119130  
     282A      1.119737   283A      1.129024   284A      1.134177  
     285A      1.139967   286A      1.144414   287A      1.151819  
     288A      1.162158   289A      1.162753   290A      1.171867  
     291A      1.172904   292A      1.175342   293A      1.178699  
     294A      1.180519   295A      1.182639   296A      1.193917  
     297A      1.198309   298A      1.200290   299A      1.204036  
     300A      1.208016   301A      1.212649   302A      1.214548  
     303A      1.221942   304A      1.232656   305A      1.233773  
     306A      1.238052   307A      1.241641   308A      1.250344  
     309A      1.252786   310A      1.260350   311A      1.264427  
     312A      1.270969   313A      1.273691   314A      1.278715  
     315A      1.283312   316A      1.289439   317A      1.293589  
     318A      1.298822   319A      1.303523   320A      1.309400  
     321A      1.315937   322A      1.321646   323A      1.325464  
     324A      1.332454   325A      1.335793   326A      1.342189  
     327A      1.348364   328A      1.354036   329A      1.361192  
     330A      1.370560   331A      1.377725   332A      1.382890  
     333A      1.386546   334A      1.392183   335A      1.395939  
     336A      1.400879   337A      1.414915   338A      1.416021  
     339A      1.417920   340A      1.424597   341A      1.437198  
     342A      1.442116   343A      1.451541   344A      1.457878  
     345A      1.469602   346A      1.476047   347A      1.479580  
     348A      1.484583   349A      1.487003   350A      1.498013  
     351A      1.508047   352A      1.515313   353A      1.522833  
     354A      1.528301   355A      1.528920   356A      1.537741  
     357A      1.538332   358A      1.544919   359A      1.556111  
     360A      1.557850   361A      1.565312   362A      1.570811  
     363A      1.581551   364A      1.584378   365A      1.588598  
     366A      1.594335   367A      1.598831   368A      1.610369  
     369A      1.626103   370A      1.628285   371A      1.634798  
     372A      1.639482   373A      1.647814   374A      1.652324  
     375A      1.658757   376A      1.663441   377A      1.671872  
     378A      1.686351   379A      1.688498   380A      1.696733  
     381A      1.698850   382A      1.704497   383A      1.711541  
     384A      1.718278   385A      1.724563   386A      1.726375  
     387A      1.735698   388A      1.737068   389A      1.747682  
     390A      1.752151   391A      1.753806   392A      1.760465  
     393A      1.766060   394A      1.767861   395A      1.778387  
     396A      1.779797   397A      1.785864   398A      1.787040  
     399A      1.793542   400A      1.798546   401A      1.808242  
     402A      1.812994   403A      1.820711   404A      1.825495  
     405A      1.840243   406A      1.843369   407A      1.852140  
     408A      1.852952   409A      1.858859   410A      1.864441  
     411A      1.868341   412A      1.871037   413A      1.884302  
     414A      1.888441   415A      1.895960   416A      1.901143  
     417A      1.911535   418A      1.917081   419A      1.926794  
     420A      1.935646   421A      1.940011   422A      1.944815  
     423A      1.955723   424A      1.959710   425A      1.968829  
     426A      1.975138   427A      1.977387   428A      1.984841  
     429A      1.990907   430A      1.993300   431A      1.997943  
     432A      2.006296   433A      2.019408   434A      2.023148  
     435A      2.028123   436A      2.029170   437A      2.033224  
     438A      2.034261   439A      2.039178   440A      2.045731  
     441A      2.067111   442A      2.081740   443A      2.085547  
     444A      2.097654   445A      2.109571   446A      2.115139  
     447A      2.121326   448A      2.127093   449A      2.132659  
     450A      2.139778   451A      2.145962   452A      2.155771  
     453A      2.159900   454A      2.163541   455A      2.171214  
     456A      2.185585   457A      2.201001   458A      2.222447  
     459A      2.226040   460A      2.233166   461A      2.241727  
     462A      2.247967   463A      2.248542   464A      2.260684  
     465A      2.267039   466A      2.280485   467A      2.288777  
     468A      2.291405   469A      2.292156   470A      2.302150  
     471A      2.307169   472A      2.314591   473A      2.317266  
     474A      2.318626   475A      2.330628   476A      2.340485  
[...]
    1250A      7.308308  1251A      7.317522  1252A      7.323502  
    1253A      7.334148  1254A      7.338866  1255A      7.347532  
    1256A      7.364175  1257A      7.369536  1258A      7.373511  
    1259A      7.391751  1260A      7.401909  1261A      7.403622  
    1262A      7.406173  1263A      7.413050  1264A      7.416701  
    1265A      7.434497  1266A      7.458265  1267A      7.474892  
    1268A      7.475979  1269A      7.478539  1270A      7.492183  
    1271A      7.498979  1272A      7.505317  1273A      7.513339  
    1274A      7.515699  1275A      7.529049  1276A      7.529696  
    1277A      7.546150  1278A      7.551842  1279A      7.570743  
    1280A      7.573036  1281A      7.583765  1282A      7.588669  
    1283A      7.605435  1284A      7.610276  1285A      7.614736  
    1286A      7.621522  1287A      7.641167  1288A      7.654940  
    1289A      7.663622  1290A      7.668909  1291A      7.680200  
    1292A      7.697586  1293A      7.701927  1294A      7.715800  
    1295A      7.731999  1296A      7.734708  1297A      7.742534  
    1298A      7.749414  1299A      7.762922  1300A      7.766544  
    1301A      7.770269  1302A      7.777991  1303A      7.788114  
    1304A      7.798619  1305A      7.806107  1306A      7.813159  
    1307A      7.835463  1308A      7.837430  1309A      7.848170  
    1310A      7.858105  1311A      7.861145  1312A      7.893978  
    1313A      7.906856  1314A      7.912875  1315A      7.928430  
    1316A      7.946579  1317A      7.948604  1318A      7.949374  
    1319A      7.959018  1320A      7.962117  1321A      7.979394  
    1322A      7.994943  1323A      8.003548  1324A      8.015862  
    1325A      8.017811  1326A      8.031883  1327A      8.035878  
    1328A      8.047582  1329A      8.054069  1330A      8.068453  
    1331A      8.088314  1332A      8.109854  1333A      8.120625  
    1334A      8.125595  1335A      8.137176  1336A      8.141997  
    1337A      8.177747  1338A      8.197346  1339A      8.212812  
    1340A      8.219951  1341A      8.226502  1342A      8.228307  
    1343A      8.250032  1344A      8.274320  1345A      8.289312  
    1346A      8.296544  1347A      8.306450  1348A      8.315490  
    1349A      8.320492  1350A      8.326495  1351A      8.358834  
    1352A      8.370173  1353A      8.384606  1354A      8.406305  
    1355A      8.414012  1356A      8.447896  1357A      8.449766  
    1358A      8.456870  1359A      8.470542  1360A      8.491709  
    1361A      8.505401  1362A      8.509136  1363A      8.527333  
    1364A      8.534074  1365A      8.544710  1366A      8.565749  
    1367A      8.568974  1368A      8.573111  1369A      8.576857  
    1370A      8.586986  1371A      8.595123  1372A      8.603980  
    1373A      8.607594  1374A      8.615368  1375A      8.644291  
    1376A      8.648824  1377A      8.651998  1378A      8.652816  
    1379A      8.664057  1380A      8.669319  1381A      8.690542  
    1382A      8.711095  1383A      8.717301  1384A      8.730624  
    1385A      8.733747  1386A      8.736985  1387A      8.743847  
    1388A      8.778388  1389A      8.789699  1390A      8.792395  
    1391A      8.809927  1392A      8.819145  1393A      8.832047  
    1394A      8.834708  1395A      8.848941  1396A      8.850444  
    1397A      8.858050  1398A      8.870117  1399A      8.887803  
    1400A      8.895322  1401A      8.902556  1402A      8.916577  
    1403A      8.921573  1404A      8.941537  1405A      8.949433  
    1406A      8.953525  1407A      8.956197  1408A      8.971306  
    1409A      8.996663  1410A      8.999712  1411A      9.027195  
    1412A      9.052955  1413A      9.065338  1414A      9.068785  
    1415A      9.081586  1416A      9.095728  1417A      9.103184  
    1418A      9.127068  1419A      9.129885  1420A      9.137772  
    1421A      9.142632  1422A      9.156281  1423A      9.180261  
    1424A      9.181693  1425A      9.189256  1426A      9.205925  
    1427A      9.214917  1428A      9.237187  1429A      9.255330  
    1430A      9.258799  1431A      9.277495  1432A      9.285240  
    1433A      9.289845  1434A      9.306572  1435A      9.311479  
    1436A      9.324764  1437A      9.337269  1438A      9.340800  
    1439A      9.353221  1440A      9.373995  1441A      9.378234  
    1442A      9.395230  1443A      9.402046  1444A      9.404662  
    1445A      9.416573  1446A      9.419578  1447A      9.432638  
    1448A      9.436453  1449A      9.450997  1450A      9.471587  
    1451A      9.484498  1452A      9.485854  1453A      9.488722  
    1454A      9.500726  1455A      9.516377  1456A      9.523608  
    1457A      9.542167  1458A      9.550934  1459A      9.563104  
    1460A      9.585337  1461A      9.594493  1462A      9.600109  
    1463A      9.626824  1464A      9.631079  1465A      9.639681  
    1466A      9.648034  1467A      9.669051  1468A      9.688601  
    1469A      9.692943  1470A      9.695906  1471A      9.715367  
    1472A      9.734671  1473A      9.742181  1474A      9.755211  
    1475A      9.755567  1476A      9.762839  1477A      9.768496  
    1478A      9.782055  1479A      9.788942  1480A      9.806145  
    1481A      9.807644  1482A      9.825633  1483A      9.849034  
    1484A      9.850477  1485A      9.864425  1486A      9.870352  
    1487A      9.881223  1488A      9.897274  1489A      9.911101  
    1490A      9.926574  1491A      9.943966  1492A      9.957766  
    1493A      9.959869  1494A      9.963603  1495A      9.972768  
    1496A      9.976698  1497A      9.987000  1498A      9.993526  
    1499A      9.997344  1500A     10.005458  1501A     10.010191  
    1502A     10.013354  1503A     10.019313  1504A     10.031690  
    1505A     10.043285  1506A     10.059163  1507A     10.066095  
    1508A     10.068554  1509A     10.074554  1510A     10.104404  
    1511A     10.150293  1512A     10.156304  1513A     10.162962  
    1514A     10.165275  1515A     10.174822  1516A     10.181079  
    1517A     10.194935  1518A     10.224682  1519A     10.241581  
    1520A     10.256258  1521A     10.258252  1522A     10.264308  
    1523A     10.276707  1524A     10.278688  1525A     10.281545  
    1526A     10.321140  1527A     10.334970  1528A     10.339974  
    1529A     10.345860  1530A     10.361473  1531A     10.392659  
    1532A     10.416624  1533A     10.430882  1534A     10.455083  
    1535A     10.461063  1536A     10.496236  1537A     10.520670  
    1538A     10.529120  1539A     10.534061  1540A     10.545820  
    1541A     10.555789  1542A     10.581839  1543A     10.585083  
    1544A     10.614858  1545A     10.637979  1546A     10.640795  
    1547A     10.654740  1548A     10.665442  1549A     10.681427  
    1550A     10.688412  1551A     10.709419  1552A     10.728666  
    1553A     10.730999  1554A     10.769465  1555A     10.775881  
    1556A     10.788096  1557A     10.808012  1558A     10.823794  
    1559A     10.850264  1560A     10.853404  1561A     10.877026  
    1562A     10.880812  1563A     10.881973  1564A     10.889416  
    1565A     10.900862  1566A     10.933918  1567A     10.943736  
    1568A     10.965473  1569A     10.989156  1570A     11.008043  
    1571A     11.037608  1572A     11.054932  1573A     11.060284  
    1574A     11.089444  1575A     11.124040  1576A     11.127350  
    1577A     11.147564  1578A     11.153587  1579A     11.168329  
    1580A     11.173058  1581A     11.179861  1582A     11.186906  
    1583A     11.207072  1584A     11.210985  1585A     11.216593  
    1586A     11.237575  1587A     11.249870  1588A     11.262648  
    1589A     11.273531  1590A     11.305953  1591A     11.344783  
    1592A     11.365587  1593A     11.367607  1594A     11.378087  
    1595A     11.384111  1596A     11.414923  1597A     11.426976  
    1598A     11.454765  1599A     11.462768  1600A     11.484789  
    1601A     11.511455  1602A     11.528779  1603A     11.555373  
    1604A     11.563827  1605A     11.609008  1606A     11.614264  
    1607A     11.618541  1608A     11.642042  1609A     11.652691  
    1610A     11.693362  1611A     11.729192  1612A     11.809150  
    1613A     11.879846  1614A     11.909249  1615A     11.913361  
    1616A     11.956573  1617A     12.002802  1618A     12.008033  
    1619A     12.128849  1620A     12.166665  1621A     12.167602  
    1622A     12.192816  1623A     12.218205  1624A     12.244070  
    1625A     12.268892  1626A     12.309674  1627A     12.352501  
    1628A     12.461785  1629A     12.522482  1630A     12.535968  
    1631A     12.582870  1632A     12.618910  1633A     12.706882  
    1634A     12.815364  1635A     12.817309  1636A     12.860922  
    1637A     12.886641  1638A     12.962777  1639A     13.000008  
    1640A     13.239385  1641A     13.243706  1642A     13.313490  
    1643A     13.316070  1644A     13.364204  1645A     13.422607  
    1646A     13.442072  1647A     13.461287  1648A     13.491006  
    1649A     13.505162  1650A     13.517257  1651A     13.534871  
    1652A     13.574793  1653A     13.591336  1654A     13.609382  
    1655A     13.622391  1656A     13.679939  1657A     13.696669  
    1658A     13.757934  1659A     13.856210  1660A     13.958436  
    1661A     13.960766  1662A     14.062577  1663A     14.121110  
    1664A     14.288178  1665A     14.340827  1666A     14.799902  
    1667A     14.934922  1668A     15.139498  1669A     15.211876  
    1670A     15.290471  1671A     15.358350  1672A     26.455031  
    1673A     26.665333  1674A     26.813295  1675A     27.185604  
    1676A     28.331812  1677A     28.503542  1678A     28.558958  
    1679A     28.619434  1680A     28.739043  1681A     35.208746  
    1682A     35.335335  1683A     44.398577  1684A     44.542296  

    Final Occupation by Irrep:
              A 
    DOCC [    49 ]

  @DF-RHF Final Energy:  -607.89176623376034

   => Energetics <=

    Nuclear Repulsion Energy =            726.7776434797834781
    One-Electron Energy =               -2268.8671713115309103
    Two-Electron Energy =                 934.1977615979872098
    Total Energy =                       -607.8917662337603360

Computation Completed


Properties will be evaluated at   0.000000,   0.000000,   0.000000 [a0]

Properties computed using the SCF density matrix

  Nuclear Dipole Moment: [e a0]
     X:    -0.1687      Y:     3.0429      Z:    26.8520

  Electronic Dipole Moment: [e a0]
     X:     0.1888      Y:    -1.1491      Z:   -27.3124

  Dipole Moment: [e a0]
     X:     0.0201      Y:     1.8937      Z:    -0.4603     Total:     1.9490

  Dipole Moment: [D]
     X:     0.0511      Y:     4.8134      Z:    -1.1701     Total:     4.9539


*** tstop() called on node85.bme.utexas.edu at Thu Apr 23 21:07:01 2020
Module time:
	user time   =    3580.09 seconds =      59.67 minutes
	system time =     123.32 seconds =       2.06 minutes
	total time  =        921 seconds =      15.35 minutes
Total time:
	user time   =   13950.41 seconds =     232.51 minutes
	system time =     418.07 seconds =       6.97 minutes
	total time  =       3285 seconds =      54.75 minutes

*** tstart() called on node85.bme.utexas.edu
*** at Thu Apr 23 21:07:01 2020


  //>>>>>>>>>>>>>>>>>>>>>>>>>>>>>>>>>>>//
  //               DFMP2               //
  //<<<<<<<<<<<<<<<<<<<<<<<<<<<<<<<<<<<//

   => Loading Basis Set <=

    Name: (AUG-CC-PVQZ AUX)
    Role: RIFIT
    Keyword: DF_BASIS_MP2
    atoms 1, 9                                           entry N          line   258 file /home/liuchw/anaconda3/envs/psi4env/share/psi4/basis/aug-cc-pvqz-ri.gbs 
    atoms 2, 6, 8, 10, 14-15, 17-18, 20-21, 23-24, 26-27 entry H          line    30 file /home/liuchw/anaconda3/envs/psi4env/share/psi4/basis/aug-cc-pvqz-ri.gbs 
    atoms 3, 5, 7, 11, 13, 16, 19, 22, 25                entry C          line   184 file /home/liuchw/anaconda3/envs/psi4env/share/psi4/basis/aug-cc-pvqz-ri.gbs 
    atoms 4, 12                                          entry O          line   332 file /home/liuchw/anaconda3/envs/psi4env/share/psi4/basis/aug-cc-pvqz-ri.gbs 

	 --------------------------------------------------------
	                          DF-MP2                         
	      2nd-Order Density-Fitted Moller-Plesset Theory     
	              RMP2 Wavefunction,   8 Threads             
	                                                         
	        Rob Parrish, Justin Turney, Andy Simmonett,      
	           Ed Hohenstein, and C. David Sherrill          
	 --------------------------------------------------------

   => Auxiliary Basis Set <=

  Basis Set: (AUG-CC-PVQZ AUX)
    Blend: AUG-CC-PVQZ-RI
    Number of shells: 748
    Number of basis function: 3304
    Number of Cartesian functions: 4551
    Spherical Harmonics?: true
    Max angular momentum: 5

	 --------------------------------------------------------
	                 NBF =  1684, NAUX =  3304
	 --------------------------------------------------------
	   CLASS    FOCC     OCC    AOCC    AVIR     VIR    FVIR
	   PAIRS       0      49      49    1635    1635       0
	 --------------------------------------------------------

	-----------------------------------------------------------
	 ==================> DF-MP2 Energies <==================== 
	-----------------------------------------------------------
	 Reference Energy          =    -607.8917662337603360 [Eh]
	 Singles Energy            =      -0.0000000000000000 [Eh]
	 Same-Spin Energy          =      -0.6616842660826476 [Eh]
	 Opposite-Spin Energy      =      -2.2382097910315348 [Eh]
	 Correlation Energy        =      -2.8998940571141825 [Eh]
	 Total Energy              =    -610.7916602908745745 [Eh]
	-----------------------------------------------------------
	 ================> DF-SCS-MP2 Energies <================== 
	-----------------------------------------------------------
	 SCS Same-Spin Scale       =       0.3333333333333333 [-]
	 SCS Opposite-Spin Scale   =       1.2000000000000000 [-]
	 SCS Same-Spin Energy      =      -0.2205614220275492 [Eh]
	 SCS Opposite-Spin Energy  =      -2.6858517492378415 [Eh]
	 SCS Correlation Energy    =      -2.9064131712653909 [Eh]
	 SCS Total Energy          =    -610.7981794050257349 [Eh]
	-----------------------------------------------------------


*** tstop() called on node85.bme.utexas.edu at Thu Apr 23 21:11:01 2020
Module time:
	user time   =    1717.85 seconds =      28.63 minutes
	system time =       9.85 seconds =       0.16 minutes
	total time  =        240 seconds =       4.00 minutes
Total time:
	user time   =   15668.27 seconds =     261.14 minutes
	system time =     427.92 seconds =       7.13 minutes
	total time  =       3525 seconds =      58.75 minutes

  //>>>>>>>>>>>>>>>>>>>>>>>>>>>>>>>>>>>//
  //  CBS Results: mp2/aug-cc-pv[tq]z  //
  //<<<<<<<<<<<<<<<<<<<<<<<<<<<<<<<<<<<//


   ==> HF <==

   HI-zeta (4) Energy:               -607.891766233760


   ==> Helgaker 2-point correlated extrapolation for method: MP2 <==

   LO-zeta (3) Energy:               -610.473209216332
   HI-zeta (4) Energy:               -610.791660290875
   Alpha (exponent) Value:             3.000000000000
   Extrapolated Energy:              -611.024043507433

   @Extrapolated MP2/(T,Q):          -611.024043507433



   ==> Helgaker 2-point correlated extrapolation for method: HF <==

   LO-zeta (3) Energy:               -607.854767804369
   HI-zeta (4) Energy:               -607.891766233760
   Alpha (exponent) Value:             3.000000000000
   Extrapolated Energy:              -607.918765087641

   @Extrapolated HF/(T,Q):           -607.918765087641


   ==> Components <==

  ---------------------------------------------------------------------------------------------------------
                          Method / Basis                      Rqd      Energy [Eh]   Variable
  ---------------------------------------------------------------------------------------------------------
                              hf / aug-cc-pvtz                  *    -607.85476780   HF TOTAL ENERGY
                             mp2 / aug-cc-pvtz                  *    -610.47320922   MP2 TOTAL ENERGY
                              hf / aug-cc-pvqz                  *    -607.89176623   HF TOTAL ENERGY
                             mp2 / aug-cc-pvqz                  *    -610.79166029   MP2 TOTAL ENERGY
  ---------------------------------------------------------------------------------------------------------

   ==> Stages <==

  ---------------------------------------------------------------------------------------------------------
      Stage               Method / Basis                       Wt      Energy [Eh]   Scheme
  ---------------------------------------------------------------------------------------------------------
        scf                   hf / aug-cc-pvqz                  1    -607.89176623   xtpl_highest_1
       corl                  mp2 / aug-cc-pv[tq]z               1    -611.02404351   corl_xtpl_helgaker_2
       corl                   hf / aug-cc-pv[tq]z              -1    -607.91876509   corl_xtpl_helgaker_2
  ---------------------------------------------------------------------------------------------------------

   ==> CBS <==

  ---------------------------------------------------------------------------------------------------------
      Stage               Method / Basis                               Energy [Eh]   Scheme
  ---------------------------------------------------------------------------------------------------------
        scf                   hf / aug-cc-pvqz                       -607.89176623   xtpl_highest_1
       corl                  mp2 / aug-cc-pv[tq]z                      -3.10527842   corl_xtpl_helgaker_2
      total                  CBS                                     -610.99704465   
  ---------------------------------------------------------------------------------------------------------
   => Loading Basis Set <=

    Name: DEF2-SVP
    Role: ORBITAL
    Keyword: BASIS
    atoms 1, 9                                           entry N          line   110 file /home/liuchw/anaconda3/envs/psi4env/share/psi4/basis/def2-svp.gbs 
    atoms 2, 6, 8, 10, 14-15, 17-18, 20-21, 23-24, 26-27 entry H          line    15 file /home/liuchw/anaconda3/envs/psi4env/share/psi4/basis/def2-svp.gbs 
    atoms 3, 5, 7, 11, 13, 16, 19, 22, 25                entry C          line    90 file /home/liuchw/anaconda3/envs/psi4env/share/psi4/basis/def2-svp.gbs 
    atoms 4, 12                                          entry O          line   130 file /home/liuchw/anaconda3/envs/psi4env/share/psi4/basis/def2-svp.gbs 


       N-Body: Complex Energy (fragments = (1, 2), basis = (1, 2):  -610.99704465355239)

   ==> N-Body: Counterpoise Corrected (CP) energies <==

   n-Body     Total Energy [Eh]       I.E. [kcal/mol]      Delta [kcal/mol]
        1     -610.996514115475        0.000000000000        0.000000000000
        2     -610.997062051418       -0.343834994839       -0.343834994839

   => Loading Basis Set <=

    Name: DEF2-SVP
    Role: ORBITAL
    Keyword: BASIS
    atoms 1, 9                                           entry N          line   110 file /home/liuchw/anaconda3/envs/psi4env/share/psi4/basis/def2-svp.gbs 
    atoms 2, 6, 8, 10, 14-15, 17-18, 20-21, 23-24, 26-27 entry H          line    15 file /home/liuchw/anaconda3/envs/psi4env/share/psi4/basis/def2-svp.gbs 
    atoms 3, 5, 7, 11, 13, 16, 19, 22, 25                entry C          line    90 file /home/liuchw/anaconda3/envs/psi4env/share/psi4/basis/def2-svp.gbs 
    atoms 4, 12                                          entry O          line   130 file /home/liuchw/anaconda3/envs/psi4env/share/psi4/basis/def2-svp.gbs 


    Psi4 stopped on: Thursday, 23 April 2020 09:11PM
    Psi4 wall time for execution: 0:58:49.98

*** Psi4 exiting successfully. Buy a developer a beer!
