
    -----------------------------------------------------------------------
          Psi4: An Open-Source Ab Initio Electronic Structure Package
                               Psi4 1.4a2.dev224 

                         Git: Rev {master} e453b16 


    R. M. Parrish, L. A. Burns, D. G. A. Smith, A. C. Simmonett,
    A. E. DePrince III, E. G. Hohenstein, U. Bozkaya, A. Yu. Sokolov,
    R. Di Remigio, R. M. Richard, J. F. Gonthier, A. M. James,
    H. R. McAlexander, A. Kumar, M. Saitow, X. Wang, B. P. Pritchard,
    P. Verma, H. F. Schaefer III, K. Patkowski, R. A. King, E. F. Valeev,
    F. A. Evangelista, J. M. Turney, T. D. Crawford, and C. D. Sherrill,
    J. Chem. Theory Comput. 13(7) pp 3185--3197 (2017).
    (doi: 10.1021/acs.jctc.7b00174)


                         Additional Contributions by
    P. Kraus, H. Kruse, M. H. Lechner, M. C. Schieber, R. A. Shaw,
    A. Alenaizan, R. Galvelis, Z. L. Glick, S. Lehtola, and J. P. Misiewicz

    -----------------------------------------------------------------------


    Psi4 started on: Saturday, 11 April 2020 03:46PM

    Process ID: 89248
    Host:       node73.bme.utexas.edu
    PSIDATADIR: /home/liuchw/anaconda3/envs/psi4env/share/psi4
    Memory:     500.0 MiB
    Threads:    8
    
  ==> Input File <==

--------------------------------------------------------------------------
#Generated by lconvert.py for cbs job

memory 40 GB

molecule  {
0 1
  N        0.1957300    -0.8446890     0.8238460
  H        0.4503980    -1.7967530     1.0497680
  C       -1.1790490    -0.5736840     0.7594830
  O       -1.9936460    -1.4562650     0.9669010
  C       -1.4767150     0.8111560     0.4375600
  H       -2.5063560     1.1156510     0.3638950
  C       -0.4681130     1.6829620     0.2348910
  H       -0.6384350     2.7216430    -0.0061640
  N        0.8456290     1.3059910     0.3268310
  H        1.5896930     1.9688790     0.1859600
  C        1.2542610     0.0194620     0.6362440
  O        2.4223040    -0.3017160     0.7318790
--
0 1
  C        1.0480940    -0.8588090     4.1187490
  H        1.5019470    -0.9508650     3.1307660
  H        1.5925970    -1.5227890     4.7879460
  C        1.1024080     0.6071430     4.5516850
  H        2.0606980     1.0800420     4.3409600
  H        0.9142930     0.6887810     5.6249080
  C       -0.0649440     1.2199580     3.7809130
  H        0.2093610     1.3087390     2.7274420
  H       -0.3493580     2.2110990     4.1325470
  C       -1.1818880     0.1823860     3.9519420
  H       -1.9074280     0.2060000     3.1405700
  H       -1.7259740     0.3870830     4.8741900
  C       -0.4588520    -1.1841620     4.0555990
  H       -0.7015160    -1.8283180     3.2122390
  H       -0.7739580    -1.7115640     4.9546850
units angstrom
no_reorient
symmetry c1
}

set {
scf_type DF
mp2_type DF
e_convergence 7
reference rhf
}

energy('mp2/aug-cc-pv[tq]z', bsse_type='cp')
--------------------------------------------------------------------------

  Memory set to  37.253 GiB by Python driver.

Scratch directory: /scratch//


   ===> N-Body Interaction Abacus <===
        BSSE Treatment:                     cp
        Number of 1-body computations:     4
        Number of 2-body computations:     1

   ==> N-Body: Now computing 1-body complexes <==


       N-Body: Computing complex (1/4) with fragments (2,) in the basis of fragments (2,).


Scratch directory: /scratch//

  //>>>>>>>>>>>>>>>>>>>>>>>>>>>>>>>>>>>//
  //   CBS Setup: mp2/aug-cc-pv[tq]z   //
  //<<<<<<<<<<<<<<<<<<<<<<<<<<<<<<<<<<<//

    Naive listing of computations required.
             hf / aug-cc-pvqz              for  HF TOTAL ENERGY
            mp2 / aug-cc-pvtz              for  MP2 TOTAL ENERGY
            mp2 / aug-cc-pvqz              for  MP2 TOTAL ENERGY
             hf / aug-cc-pvtz              for  HF TOTAL ENERGY
             hf / aug-cc-pvqz              for  HF TOTAL ENERGY

    Enlightened listing of computations required.
            mp2 / aug-cc-pvtz              for  MP2 TOTAL ENERGY
            mp2 / aug-cc-pvqz              for  MP2 TOTAL ENERGY

    Full listing of computations to be obtained (required and bonus).
             hf / aug-cc-pvtz              for  HF TOTAL ENERGY
            mp2 / aug-cc-pvtz              for  MP2 TOTAL ENERGY
             hf / aug-cc-pvqz              for  HF TOTAL ENERGY
            mp2 / aug-cc-pvqz              for  MP2 TOTAL ENERGY

  //>>>>>>>>>>>>>>>>>>>>>>>>>>>>>>>>>>>>//
  // CBS Computation: MP2 / AUG-CC-PVTZ //
  //<<<<<<<<<<<<<<<<<<<<<<<<<<<<<<<<<<<<//


Scratch directory: /scratch//

*** tstart() called on node73.bme.utexas.edu
*** at Sat Apr 11 15:46:21 2020

   => Loading Basis Set <=

    Name: AUG-CC-PVTZ
    Role: ORBITAL
    Keyword: BASIS
    atoms 1, 4, 7, 10, 13             entry C          line   239 file /home/liuchw/anaconda3/envs/psi4env/share/psi4/basis/aug-cc-pvtz.gbs 
    atoms 2-3, 5-6, 8-9, 11-12, 14-15 entry H          line    40 file /home/liuchw/anaconda3/envs/psi4env/share/psi4/basis/aug-cc-pvtz.gbs 


         ---------------------------------------------------------
                                   SCF
               by Justin Turney, Rob Parrish, Andy Simmonett
                          and Daniel G. A. Smith
                              RHF Reference
                        8 Threads,  38146 MiB Core
         ---------------------------------------------------------

  ==> Geometry <==

    Molecular point group: c1
    Full point group: C1

    Geometry (in Angstrom), charge = 0, multiplicity = 1:

       Center              X                  Y                   Z               Mass       
    ------------   -----------------  -----------------  -----------------  -----------------
         C            1.025828126482    -0.886956441077     2.161301124232    12.000000000000
         H            1.479681126482    -0.979012441077     1.173318124232     1.007825032230
         H            1.570331126482    -1.550936441077     2.830498124232     1.007825032230
         C            1.080142126482     0.578995558923     2.594237124232    12.000000000000
         H            2.038432126482     1.051894558923     2.383512124232     1.007825032230
         H            0.892027126482     0.660633558923     3.667460124232     1.007825032230
         C           -0.087209873518     1.191810558923     1.823465124232    12.000000000000
         H            0.187095126482     1.280591558923     0.769994124232     1.007825032230
         H           -0.371623873518     2.182951558923     2.175099124232     1.007825032230
         C           -1.204153873518     0.154238558923     1.994494124232    12.000000000000
         H           -1.929693873518     0.177852558923     1.183122124232     1.007825032230
         H           -1.748239873518     0.358935558923     2.916742124232     1.007825032230
         C           -0.481117873518    -1.212309441077     2.098151124232    12.000000000000
         H           -0.723781873518    -1.856465441077     1.254791124232     1.007825032230
         H           -0.796223873518    -1.739711441077     2.997237124232     1.007825032230

  Running in c1 symmetry.

  Rotational constants: A =      0.13013  B =      0.04248  C =      0.04212 [cm^-1]
  Rotational constants: A =   3901.13327  B =   1273.61685  C =   1262.78456 [MHz]
  Nuclear repulsion =  188.337283106056560

  Charge       = 0
  Multiplicity = 1
  Electrons    = 40
  Nalpha       = 20
  Nbeta        = 20

  ==> Algorithm <==

  SCF Algorithm Type is DF.
  DIIS enabled.
  MOM disabled.
  Fractional occupation disabled.
  Guess Type is SAD.
  Energy threshold   = 1.00e-07
  Density threshold  = 1.00e-08
  Integral threshold = 0.00e+00

  ==> Primary Basis <==

  Basis Set: AUG-CC-PVTZ
    Blend: AUG-CC-PVTZ
    Number of shells: 160
    Number of basis function: 460
    Number of Cartesian functions: 525
    Spherical Harmonics?: true
    Max angular momentum: 3

   => Loading Basis Set <=

    Name: (AUG-CC-PVTZ AUX)
    Role: JKFIT
    Keyword: DF_BASIS_SCF
    atoms 1, 4, 7, 10, 13             entry C          line   162 file /home/liuchw/anaconda3/envs/psi4env/share/psi4/basis/aug-cc-pvtz-jkfit.gbs 
    atoms 2-3, 5-6, 8-9, 11-12, 14-15 entry H          line    70 file /home/liuchw/anaconda3/envs/psi4env/share/psi4/basis/aug-cc-pvtz-jkfit.gbs 

  ==> Pre-Iterations <==

   -------------------------------------------------------
    Irrep   Nso     Nmo     Nalpha   Nbeta   Ndocc  Nsocc
   -------------------------------------------------------
     A        460     460       0       0       0       0
   -------------------------------------------------------
    Total     460     460      20      20      20       0
   -------------------------------------------------------

  ==> Integral Setup <==

  DFHelper Memory: AOs need 1.597 GiB; user supplied 27.940 GiB. Using in-core AOs.

  ==> MemDFJK: Density-Fitted J/K Matrices <==

    J tasked:                   Yes
    K tasked:                   Yes
    wK tasked:                   No
    OpenMP threads:               8
    Memory [MiB]:             28610
    Algorithm:                 Core
    Schwarz Cutoff:           1E-12
    Mask sparsity (%):       0.6664
    Fitting Condition:        1E-10

   => Auxiliary Basis Set <=

  Basis Set: (AUG-CC-PVTZ AUX)
    Blend: AUG-CC-PVTZ-JKFIT
    Number of shells: 290
    Number of basis function: 980
    Number of Cartesian functions: 1205
    Spherical Harmonics?: true
    Max angular momentum: 4

  Minimum eigenvalue in the overlap matrix is 2.8222133988E-06.
  Using Symmetric Orthogonalization.

  SCF Guess: Superposition of Atomic Densities via on-the-fly atomic UHF.

  ==> Iterations <==

                           Total Energy        Delta E     RMS |[F,P]|

   @DF-RHF iter SAD:  -195.14564175819194   -1.95146e+02   0.00000e+00 
   @DF-RHF iter   1:  -194.97508326849726    1.70558e-01   1.40783e-03 DIIS
   @DF-RHF iter   2:  -195.15709595419830   -1.82013e-01   8.13031e-04 DIIS
   @DF-RHF iter   3:  -195.22684191635847   -6.97460e-02   1.22259e-04 DIIS
   @DF-RHF iter   4:  -195.23000761815319   -3.16570e-03   1.92832e-05 DIIS
   @DF-RHF iter   5:  -195.23011079771905   -1.03180e-04   4.20970e-06 DIIS
   @DF-RHF iter   6:  -195.23011572649489   -4.92878e-06   5.29554e-07 DIIS
   @DF-RHF iter   7:  -195.23011580100834   -7.45135e-08   9.29938e-08 DIIS
   @DF-RHF iter   8:  -195.23011580241189   -1.40355e-09   3.27662e-08 DIIS
   @DF-RHF iter   9:  -195.23011580256622   -1.54330e-10   4.78203e-09 DIIS
  Energy and wave function converged.


  ==> Post-Iterations <==

    Orbital Energies [Eh]
    ---------------------

    Doubly Occupied:                                                      

       1A    -11.210502     2A    -11.210101     3A    -11.210097  
       4A    -11.209483     5A    -11.209349     6A     -1.116059  
       7A     -0.956544     8A     -0.955963     9A     -0.776682  
      10A     -0.767343    11A     -0.649862    12A     -0.644578  
      13A     -0.569559    14A     -0.567612    15A     -0.475237  
      16A     -0.474457    17A     -0.463583    18A     -0.459995  
      19A     -0.459452    20A     -0.448561  

    Virtual:                                                              

      21A      0.031781    22A      0.038505    23A      0.039361  
      24A      0.039806    25A      0.055914    26A      0.058167  
      27A      0.058655    28A      0.060247    29A      0.061133  
      30A      0.079043    31A      0.115442    32A      0.117478  
      33A      0.120437    34A      0.123811    35A      0.124928  
      36A      0.126006    37A      0.132840    38A      0.134723  
      39A      0.138202    40A      0.141398    41A      0.142370  
      42A      0.163325    43A      0.164120    44A      0.167953  
      45A      0.169041    46A      0.186526    47A      0.188821  
      48A      0.200486    49A      0.206634    50A      0.220421  
      51A      0.256394    52A      0.276804    53A      0.282217  
      54A      0.290895    55A      0.293628    56A      0.298921  
      57A      0.305620    58A      0.308059    59A      0.309767  
      60A      0.310879    61A      0.317312    62A      0.319428  
      63A      0.325400    64A      0.345263    65A      0.346165  
      66A      0.349938    67A      0.358920    68A      0.362979  
      69A      0.367555    70A      0.381731    71A      0.382716  
      72A      0.396817    73A      0.402210    74A      0.403958  
      75A      0.409724    76A      0.416361    77A      0.421138  
      78A      0.423908    79A      0.427181    80A      0.429125  
      81A      0.433051    82A      0.438927    83A      0.452365  
      84A      0.454656    85A      0.462162    86A      0.476386  
      87A      0.478296    88A      0.495753    89A      0.499302  
      90A      0.507882    91A      0.512371    92A      0.517922  
      93A      0.522125    94A      0.535164    95A      0.540697  
      96A      0.545391    97A      0.547859    98A      0.554041  
      99A      0.560084   100A      0.565668   101A      0.567747  
     102A      0.572489   103A      0.581344   104A      0.585909  
     105A      0.588978   106A      0.604395   107A      0.608916  
     108A      0.620214   109A      0.623039   110A      0.632068  
     111A      0.643276   112A      0.646755   113A      0.650059  
     114A      0.654574   115A      0.662540   116A      0.695128  
     117A      0.702522   118A      0.719164   119A      0.724374  
     120A      0.740174   121A      0.772583   122A      0.779496  
     123A      0.792368   124A      0.820504   125A      0.835725  
     126A      0.848594   127A      0.850533   128A      0.859972  
     129A      0.873824   130A      0.876316   131A      0.881611  
     132A      0.882583   133A      0.893803   134A      0.897071  
     135A      0.906686   136A      0.918236   137A      0.920333  
     138A      0.936736   139A      0.952854   140A      0.955885  
     141A      0.960994   142A      0.971625   143A      0.979176  
     144A      0.979624   145A      0.990394   146A      0.995618  
     147A      1.007199   148A      1.019897   149A      1.024502  
     150A      1.029223   151A      1.036354   152A      1.038192  
     153A      1.045004   154A      1.049739   155A      1.060638  
     156A      1.080757   157A      1.092890   158A      1.099953  
     159A      1.102668   160A      1.109743   161A      1.123734  
     162A      1.128757   163A      1.147578   164A      1.162391  
     165A      1.171494   166A      1.178290   167A      1.183618  
     168A      1.188988   169A      1.197295   170A      1.210407  
     171A      1.226482   172A      1.229498   173A      1.234376  
     174A      1.238368   175A      1.254665   176A      1.259299  
     177A      1.272097   178A      1.279586   179A      1.292725  
     180A      1.299492   181A      1.299939   182A      1.325683  
     183A      1.328219   184A      1.335954   185A      1.377154  
     186A      1.379865   187A      1.394824   188A      1.408508  
     189A      1.422341   190A      1.432562   191A      1.444182  
     192A      1.450334   193A      1.462288   194A      1.470705  
     195A      1.474857   196A      1.491855   197A      1.509501  
     198A      1.514599   199A      1.527747   200A      1.534082  
     201A      1.546412   202A      1.559742   203A      1.564148  
     204A      1.578301   205A      1.584012   206A      1.588444  
     207A      1.622001   208A      1.631741   209A      1.636757  
     210A      1.641601   211A      1.645746   212A      1.665115  
     213A      1.679421   214A      1.695082   215A      1.708044  
     216A      1.709288   217A      1.720155   218A      1.740997  
     219A      1.745521   220A      1.757829   221A      1.777920  
     222A      1.780478   223A      1.783687   224A      1.798214  
     225A      1.806539   226A      1.821061   227A      1.831888  
     228A      1.844525   229A      1.846416   230A      1.865395  
     231A      1.892650   232A      1.896349   233A      1.909192  
     234A      1.931759   235A      1.940614   236A      1.954895  
     237A      1.962018   238A      1.970597   239A      1.981650  
     240A      1.985669   241A      1.999413   242A      2.012051  
     243A      2.018122   244A      2.022638   245A      2.029818  
     246A      2.032230   247A      2.038365   248A      2.078313  
     249A      2.100595   250A      2.109242   251A      2.120794  
     252A      2.124088   253A      2.148409   254A      2.150418  
     255A      2.158806   256A      2.193545   257A      2.225846  
     258A      2.239234   259A      2.250849   260A      2.271613  
     261A      2.276427   262A      2.291863   263A      2.300999  
     264A      2.309418   265A      2.315690   266A      2.350388  
     267A      2.362475   268A      2.399728   269A      2.404047  
     270A      2.421957   271A      2.436900   272A      2.446989  
     273A      2.460780   274A      2.483083   275A      2.491599  
     276A      2.517822   277A      2.528856   278A      2.568717  
     279A      2.584850   280A      2.598232   281A      2.631889  
     282A      2.658443   283A      2.685002   284A      2.714197  
     285A      2.754099   286A      2.792980   287A      2.953148  
     288A      3.037465   289A      3.075929   290A      3.184609  
     291A      3.251468   292A      3.309270   293A      3.354770  
     294A      3.368601   295A      3.385577   296A      3.391003  
     297A      3.463262   298A      3.499039   299A      3.506306  
     300A      3.525073   301A      3.549077   302A      3.556846  
     303A      3.566308   304A      3.580926   305A      3.597578  
     306A      3.618444   307A      3.623153   308A      3.643806  
     309A      3.674917   310A      3.682832   311A      3.705350  
     312A      3.717818   313A      3.736636   314A      3.742908  
     315A      3.757403   316A      3.761334   317A      3.778299  
     318A      3.806486   319A      3.816689   320A      3.833854  
     321A      3.861530   322A      3.889317   323A      3.900320  
     324A      3.911644   325A      3.922365   326A      3.929949  
     327A      3.957577   328A      3.974055   329A      3.978348  
     330A      3.994858   331A      3.999466   332A      4.001025  
     333A      4.015320   334A      4.028583   335A      4.038240  
     336A      4.053033   337A      4.060909   338A      4.070077  
     339A      4.078700   340A      4.095604   341A      4.105673  
     342A      4.120125   343A      4.140597   344A      4.160500  
     345A      4.177692   346A      4.211742   347A      4.224955  
     348A      4.239180   349A      4.246419   350A      4.267875  
     351A      4.296576   352A      4.329706   353A      4.345919  
     354A      4.362621   355A      4.387171   356A      4.389411  
     357A      4.407013   358A      4.422848   359A      4.437030  
     360A      4.438254   361A      4.471302   362A      4.493838  
     363A      4.498547   364A      4.503918   365A      4.559860  
     366A      4.581964   367A      4.606833   368A      4.623093  
     369A      4.639842   370A      4.656805   371A      4.686881  
     372A      4.688156   373A      4.712200   374A      4.734208  
     375A      4.756598   376A      4.757111   377A      4.815947  
     378A      4.834078   379A      4.847140   380A      4.898836  
     381A      4.910153   382A      4.934221   383A      4.941316  
     384A      4.950995   385A      4.963708   386A      4.976719  
     387A      4.981739   388A      4.993000   389A      5.010936  
     390A      5.029041   391A      5.033732   392A      5.059548  
     393A      5.070424   394A      5.089461   395A      5.097807  
     396A      5.106570   397A      5.143597   398A      5.167839  
     399A      5.174755   400A      5.208048   401A      5.230670  
     402A      5.252828   403A      5.281306   404A      5.290148  
     405A      5.304081   406A      5.330924   407A      5.345615  
     408A      5.411547   409A      5.451213   410A      5.466618  
     411A      5.473753   412A      5.486095   413A      5.491438  
     414A      5.497643   415A      5.503333   416A      5.519824  
     417A      5.532066   418A      5.555843   419A      5.583003  
     420A      5.604102   421A      5.675804   422A      5.705180  
     423A      5.716881   424A      5.755876   425A      5.779459  
     426A      5.785885   427A      5.798070   428A      5.837186  
     429A      5.861433   430A      5.871383   431A      5.897819  
     432A      5.912278   433A      5.947564   434A      5.996206  
     435A      6.037734   436A      6.051329   437A      6.084744  
     438A      6.131583   439A      6.163228   440A      6.218483  
     441A      6.266086   442A      6.301176   443A      6.363618  
     444A      6.413077   445A      6.424484   446A      6.426269  
     447A      6.503913   448A      6.660890   449A      6.701994  
     450A      6.737092   451A      6.857175   452A      6.893370  
     453A      6.947020   454A      7.035065   455A      7.045471  
     456A     17.853093   457A     18.047946   458A     18.757213  
     459A     19.543855   460A     20.037512  

    Final Occupation by Irrep:
              A 
    DOCC [    20 ]

  @DF-RHF Final Energy:  -195.23011580256622

   => Energetics <=

    Nuclear Repulsion Energy =            188.3372831060565602
    One-Electron Energy =                -635.4647579551053695
    Two-Electron Energy =                 251.8973590464825634
    Total Energy =                       -195.2301158025662176

Computation Completed


Properties will be evaluated at   0.000000,   0.000000,   0.000000 [a0]

Properties computed using the SCF density matrix

  Nuclear Dipole Moment: [e a0]
     X:     4.9113      Y:    -2.7563      Z:   161.3480

  Electronic Dipole Moment: [e a0]
     X:    -4.9069      Y:     2.7605      Z:  -161.3466

  Dipole Moment: [e a0]
     X:     0.0044      Y:     0.0042      Z:     0.0014     Total:     0.0062

  Dipole Moment: [D]
     X:     0.0111      Y:     0.0106      Z:     0.0036     Total:     0.0158


*** tstop() called on node73.bme.utexas.edu at Sat Apr 11 15:46:31 2020
Module time:
	user time   =      66.38 seconds =       1.11 minutes
	system time =       2.23 seconds =       0.04 minutes
	total time  =         10 seconds =       0.17 minutes
Total time:
	user time   =      66.38 seconds =       1.11 minutes
	system time =       2.23 seconds =       0.04 minutes
	total time  =         10 seconds =       0.17 minutes

*** tstart() called on node73.bme.utexas.edu
*** at Sat Apr 11 15:46:31 2020


  //>>>>>>>>>>>>>>>>>>>>>>>>>>>>>>>>>>>//
  //               DFMP2               //
  //<<<<<<<<<<<<<<<<<<<<<<<<<<<<<<<<<<<//

   => Loading Basis Set <=

    Name: (AUG-CC-PVTZ AUX)
    Role: RIFIT
    Keyword: DF_BASIS_MP2
    atoms 1, 4, 7, 10, 13             entry C          line   148 file /home/liuchw/anaconda3/envs/psi4env/share/psi4/basis/aug-cc-pvtz-ri.gbs 
    atoms 2-3, 5-6, 8-9, 11-12, 14-15 entry H          line    30 file /home/liuchw/anaconda3/envs/psi4env/share/psi4/basis/aug-cc-pvtz-ri.gbs 

	 --------------------------------------------------------
	                          DF-MP2                         
	      2nd-Order Density-Fitted Moller-Plesset Theory     
	              RMP2 Wavefunction,   8 Threads             
	                                                         
	        Rob Parrish, Justin Turney, Andy Simmonett,      
	           Ed Hohenstein, and C. David Sherrill          
	 --------------------------------------------------------

   => Auxiliary Basis Set <=

  Basis Set: (AUG-CC-PVTZ AUX)
    Blend: AUG-CC-PVTZ-RI
    Number of shells: 280
    Number of basis function: 990
    Number of Cartesian functions: 1230
    Spherical Harmonics?: true
    Max angular momentum: 4

	 --------------------------------------------------------
	                 NBF =   460, NAUX =   990
	 --------------------------------------------------------
	   CLASS    FOCC     OCC    AOCC    AVIR     VIR    FVIR
	   PAIRS       0      20      20     440     440       0
	 --------------------------------------------------------

	-----------------------------------------------------------
	 ==================> DF-MP2 Energies <==================== 
	-----------------------------------------------------------
	 Reference Energy          =    -195.2301158025662176 [Eh]
	 Singles Energy            =      -0.0000000000000000 [Eh]
	 Same-Spin Energy          =      -0.2104771109100032 [Eh]
	 Opposite-Spin Energy      =      -0.7664119033044169 [Eh]
	 Correlation Energy        =      -0.9768890142144200 [Eh]
	 Total Energy              =    -196.2070048167806249 [Eh]
	-----------------------------------------------------------
	 ================> DF-SCS-MP2 Energies <================== 
	-----------------------------------------------------------
	 SCS Same-Spin Scale       =       0.3333333333333333 [-]
	 SCS Opposite-Spin Scale   =       1.2000000000000000 [-]
	 SCS Same-Spin Energy      =      -0.0701590369700010 [Eh]
	 SCS Opposite-Spin Energy  =      -0.9196942839653002 [Eh]
	 SCS Correlation Energy    =      -0.9898533209353012 [Eh]
	 SCS Total Energy          =    -196.2199691235015280 [Eh]
	-----------------------------------------------------------


*** tstop() called on node73.bme.utexas.edu at Sat Apr 11 15:46:37 2020
Module time:
	user time   =      37.35 seconds =       0.62 minutes
	system time =       1.39 seconds =       0.02 minutes
	total time  =          6 seconds =       0.10 minutes
Total time:
	user time   =     103.74 seconds =       1.73 minutes
	system time =       3.62 seconds =       0.06 minutes
	total time  =         16 seconds =       0.27 minutes

  //>>>>>>>>>>>>>>>>>>>>>>>>>>>>>>>>>>>>//
  // CBS Computation: MP2 / AUG-CC-PVQZ //
  //<<<<<<<<<<<<<<<<<<<<<<<<<<<<<<<<<<<<//


Scratch directory: /scratch//

*** tstart() called on node73.bme.utexas.edu
*** at Sat Apr 11 15:46:37 2020

   => Loading Basis Set <=

    Name: AUG-CC-PVQZ
    Role: ORBITAL
    Keyword: BASIS
    atoms 1, 4, 7, 10, 13             entry C          line   303 file /home/liuchw/anaconda3/envs/psi4env/share/psi4/basis/aug-cc-pvqz.gbs 
    atoms 2-3, 5-6, 8-9, 11-12, 14-15 entry H          line    40 file /home/liuchw/anaconda3/envs/psi4env/share/psi4/basis/aug-cc-pvqz.gbs 


         ---------------------------------------------------------
                                   SCF
               by Justin Turney, Rob Parrish, Andy Simmonett
                          and Daniel G. A. Smith
                              RHF Reference
                        8 Threads,  38146 MiB Core
         ---------------------------------------------------------

  ==> Geometry <==

    Molecular point group: c1
    Full point group: C1

    Geometry (in Angstrom), charge = 0, multiplicity = 1:

       Center              X                  Y                   Z               Mass       
    ------------   -----------------  -----------------  -----------------  -----------------
         C            1.025828126482    -0.886956441077     2.161301124232    12.000000000000
         H            1.479681126482    -0.979012441077     1.173318124232     1.007825032230
         H            1.570331126482    -1.550936441077     2.830498124232     1.007825032230
         C            1.080142126482     0.578995558923     2.594237124232    12.000000000000
         H            2.038432126482     1.051894558923     2.383512124232     1.007825032230
         H            0.892027126482     0.660633558923     3.667460124232     1.007825032230
         C           -0.087209873518     1.191810558923     1.823465124232    12.000000000000
         H            0.187095126482     1.280591558923     0.769994124232     1.007825032230
         H           -0.371623873518     2.182951558923     2.175099124232     1.007825032230
         C           -1.204153873518     0.154238558923     1.994494124232    12.000000000000
         H           -1.929693873518     0.177852558923     1.183122124232     1.007825032230
         H           -1.748239873518     0.358935558923     2.916742124232     1.007825032230
         C           -0.481117873518    -1.212309441077     2.098151124232    12.000000000000
         H           -0.723781873518    -1.856465441077     1.254791124232     1.007825032230
         H           -0.796223873518    -1.739711441077     2.997237124232     1.007825032230

  Running in c1 symmetry.

  Rotational constants: A =      0.13013  B =      0.04248  C =      0.04212 [cm^-1]
  Rotational constants: A =   3901.13327  B =   1273.61685  C =   1262.78456 [MHz]
  Nuclear repulsion =  188.337283106056560

  Charge       = 0
  Multiplicity = 1
  Electrons    = 40
  Nalpha       = 20
  Nbeta        = 20

  ==> Algorithm <==

  SCF Algorithm Type is DF.
  DIIS enabled.
  MOM disabled.
  Fractional occupation disabled.
  Guess Type is SAD.
  Energy threshold   = 1.00e-07
  Density threshold  = 1.00e-08
  Integral threshold = 0.00e+00

  ==> Primary Basis <==

  Basis Set: AUG-CC-PVQZ
    Blend: AUG-CC-PVQZ
    Number of shells: 240
    Number of basis function: 860
    Number of Cartesian functions: 1075
    Spherical Harmonics?: true
    Max angular momentum: 4

   => Loading Basis Set <=

    Name: (AUG-CC-PVQZ AUX)
    Role: JKFIT
    Keyword: DF_BASIS_SCF
    atoms 1, 4, 7, 10, 13             entry C          line   178 file /home/liuchw/anaconda3/envs/psi4env/share/psi4/basis/aug-cc-pvqz-jkfit.gbs 
    atoms 2-3, 5-6, 8-9, 11-12, 14-15 entry H          line    70 file /home/liuchw/anaconda3/envs/psi4env/share/psi4/basis/aug-cc-pvqz-jkfit.gbs 

  ==> Pre-Iterations <==

   -------------------------------------------------------
    Irrep   Nso     Nmo     Nalpha   Nbeta   Ndocc  Nsocc
   -------------------------------------------------------
     A        860     860       0       0       0       0
   -------------------------------------------------------
    Total     860     860      20      20      20       0
   -------------------------------------------------------

  ==> Integral Setup <==

  DFHelper Memory: AOs need 8.165 GiB; user supplied 27.940 GiB. Using in-core AOs.

  ==> MemDFJK: Density-Fitted J/K Matrices <==

    J tasked:                   Yes
    K tasked:                   Yes
    wK tasked:                   No
    OpenMP threads:               8
    Memory [MiB]:             28610
    Algorithm:                 Core
    Schwarz Cutoff:           1E-12
    Mask sparsity (%):       2.1955
    Fitting Condition:        1E-10

   => Auxiliary Basis Set <=

  Basis Set: (AUG-CC-PVQZ AUX)
    Blend: AUG-CC-PVQZ-JKFIT
    Number of shells: 350
    Number of basis function: 1470
    Number of Cartesian functions: 2000
    Spherical Harmonics?: true
    Max angular momentum: 5

  Minimum eigenvalue in the overlap matrix is 5.6706711010E-07.
  Using Symmetric Orthogonalization.

  SCF Guess: Superposition of Atomic Densities via on-the-fly atomic UHF.

  ==> Iterations <==

                           Total Energy        Delta E     RMS |[F,P]|

   @DF-RHF iter SAD:  -195.15686950093567   -1.95157e+02   0.00000e+00 
   @DF-RHF iter   1:  -194.98622247763916    1.70647e-01   7.53838e-04 DIIS
   @DF-RHF iter   2:  -195.16840515390049   -1.82183e-01   4.36431e-04 DIIS
   @DF-RHF iter   3:  -195.23830456956085   -6.98994e-02   6.61960e-05 DIIS
   @DF-RHF iter   4:  -195.24148815402478   -3.18358e-03   1.06551e-05 DIIS
   @DF-RHF iter   5:  -195.24159783862245   -1.09685e-04   2.31165e-06 DIIS
   @DF-RHF iter   6:  -195.24160296261451   -5.12399e-06   2.92866e-07 DIIS
   @DF-RHF iter   7:  -195.24160304123180   -7.86173e-08   5.11632e-08 DIIS
   @DF-RHF iter   8:  -195.24160304271362   -1.48182e-09   1.82096e-08 DIIS
   @DF-RHF iter   9:  -195.24160304287537   -1.61748e-10   2.65090e-09 DIIS
  Energy and wave function converged.


  ==> Post-Iterations <==

    Orbital Energies [Eh]
    ---------------------

    Doubly Occupied:                                                      

       1A    -11.209439     2A    -11.209034     3A    -11.209031  
       4A    -11.208416     5A    -11.208277     6A     -1.115821  
       7A     -0.956357     8A     -0.955777     9A     -0.776637  
      10A     -0.767291    11A     -0.649965    12A     -0.644712  
      13A     -0.569706    14A     -0.567758    15A     -0.475383  
      16A     -0.474609    17A     -0.463715    18A     -0.460177  
      19A     -0.459577    20A     -0.448765  

    Virtual:                                                              

      21A      0.028269    22A      0.033859    23A      0.034406  
      24A      0.035112    25A      0.050668    26A      0.051950  
      27A      0.052522    28A      0.054028    29A      0.054916  
      30A      0.070253    31A      0.102090    32A      0.103105  
      33A      0.107136    34A      0.109031    35A      0.110126  
      36A      0.111379    37A      0.114683    38A      0.117125  
      39A      0.118441    40A      0.124789    41A      0.126617  
      42A      0.140953    43A      0.141758    44A      0.144510  
      45A      0.146064    46A      0.162844    47A      0.163558  
      48A      0.177437    49A      0.183118    50A      0.190655  
      51A      0.225785    52A      0.239076    53A      0.245169  
      54A      0.248093    55A      0.252807    56A      0.255897  
      57A      0.259369    58A      0.265127    59A      0.267821  
      60A      0.270097    61A      0.273447    62A      0.276269  
      63A      0.280725    64A      0.285723    65A      0.296524  
      66A      0.299541    67A      0.304192    68A      0.305627  
      69A      0.307597    70A      0.316186    71A      0.317780  
      72A      0.343799    73A      0.346023    74A      0.346682  
      75A      0.349350    76A      0.351087    77A      0.355387  
      78A      0.357498    79A      0.359498    80A      0.362862  
      81A      0.363655    82A      0.365306    83A      0.368386  
      84A      0.371607    85A      0.372481    86A      0.377357  
      87A      0.389782    88A      0.415445    89A      0.417836  
      90A      0.432560    91A      0.434681    92A      0.437175  
      93A      0.437731    94A      0.443613    95A      0.447570  
      96A      0.448790    97A      0.453416    98A      0.456726  
      99A      0.459605   100A      0.464941   101A      0.471969  
     102A      0.477631   103A      0.481079   104A      0.483178  
     105A      0.487488   106A      0.490571   107A      0.496871  
     108A      0.501411   109A      0.501797   110A      0.522290  
     111A      0.523364   112A      0.528829   113A      0.535457  
     114A      0.538352   115A      0.549683   116A      0.552465  
     117A      0.556142   118A      0.564738   119A      0.581231  
     120A      0.585289   121A      0.597776   122A      0.605252  
     123A      0.611847   124A      0.615733   125A      0.627108  
     126A      0.634686   127A      0.646210   128A      0.652021  
     129A      0.668989   130A      0.678745   131A      0.680511  
     132A      0.686669   133A      0.697026   134A      0.700875  
     135A      0.705346   136A      0.710682   137A      0.716808  
     138A      0.720864   139A      0.725988   140A      0.729149  
     141A      0.732953   142A      0.735999   143A      0.744039  
     144A      0.746549   145A      0.752115   146A      0.753499  
     147A      0.757037   148A      0.764384   149A      0.769966  
     150A      0.773046   151A      0.776613   152A      0.784451  
     153A      0.788205   154A      0.791558   155A      0.811132  
     156A      0.823618   157A      0.844008   158A      0.848791  
     159A      0.849429   160A      0.874317   161A      0.878772  
     162A      0.883213   163A      0.892503   164A      0.904770  
     165A      0.914306   166A      0.915151   167A      0.923653  
     168A      0.925522   169A      0.931825   170A      0.941970  
     171A      0.945036   172A      0.952237   173A      0.967246  
     174A      0.969264   175A      0.976288   176A      0.980699  
     177A      0.987975   178A      1.004359   179A      1.009125  
     180A      1.011923   181A      1.014793   182A      1.023332  
     183A      1.027509   184A      1.034591   185A      1.043716  
     186A      1.048487   187A      1.055731   188A      1.060619  
     189A      1.062738   190A      1.073104   191A      1.076372  
     192A      1.089250   193A      1.096294   194A      1.098807  
     195A      1.114537   196A      1.122463   197A      1.129710  
     198A      1.136581   199A      1.146299   200A      1.154192  
     201A      1.158980   202A      1.172142   203A      1.177821  
     204A      1.184035   205A      1.188161   206A      1.193515  
     207A      1.200255   208A      1.205861   209A      1.210754  
     210A      1.213534   211A      1.219673   212A      1.222148  
     213A      1.233714   214A      1.243373   215A      1.252314  
     216A      1.255858   217A      1.261334   218A      1.263209  
     219A      1.265156   220A      1.274774   221A      1.284351  
     222A      1.290535   223A      1.299580   224A      1.312937  
     225A      1.318829   226A      1.326964   227A      1.333480  
     228A      1.339057   229A      1.352602   230A      1.362037  
     231A      1.367371   232A      1.389441   233A      1.410125  
     234A      1.424039   235A      1.425954   236A      1.442468  
     237A      1.449436   238A      1.452433   239A      1.459456  
     240A      1.466484   241A      1.488625   242A      1.501217  
     243A      1.502615   244A      1.512015   245A      1.516640  
     246A      1.527601   247A      1.539182   248A      1.541836  
     249A      1.553441   250A      1.565583   251A      1.577369  
     252A      1.579890   253A      1.597443   254A      1.611252  
     255A      1.616703   256A      1.618969   257A      1.637164  
     258A      1.658573   259A      1.677059   260A      1.687914  
     261A      1.694960   262A      1.706543   263A      1.708840  
     264A      1.720234   265A      1.726216   266A      1.734853  
     267A      1.743043   268A      1.757801   269A      1.763001  
     270A      1.772144   271A      1.779907   272A      1.787794  
     273A      1.794457   274A      1.817492   275A      1.820088  
     276A      1.832618   277A      1.833970   278A      1.844445  
     279A      1.856951   280A      1.865068   281A      1.884776  
     282A      1.895701   283A      1.898287   284A      1.918320  
     285A      1.934576   286A      1.939392   287A      1.947551  
     288A      1.953216   289A      1.966590   290A      1.970993  
     291A      1.982362   292A      1.989126   293A      2.006202  
     294A      2.021754   295A      2.024546   296A      2.029157  
     297A      2.042162   298A      2.049282   299A      2.051054  
     300A      2.066054   301A      2.072540   302A      2.079822  
     303A      2.082295   304A      2.101001   305A      2.101723  
     306A      2.106490   307A      2.113660   308A      2.129868  
     309A      2.136834   310A      2.144599   311A      2.151814  
     312A      2.155890   313A      2.163038   314A      2.166711  
     315A      2.176656   316A      2.192865   317A      2.201803  
     318A      2.202977   319A      2.214804   320A      2.218224  
     321A      2.220451   322A      2.225706   323A      2.236139  
     324A      2.248933   325A      2.252676   326A      2.261704  
     327A      2.267169   328A      2.275468   329A      2.282439  
     330A      2.283549   331A      2.297218   332A      2.299012  
     333A      2.305967   334A      2.307558   335A      2.316144  
     336A      2.325264   337A      2.333573   338A      2.341023  
     339A      2.346931   340A      2.354873   341A      2.363717  
     342A      2.370050   343A      2.384682   344A      2.387878  
     345A      2.402620   346A      2.411503   347A      2.413726  
     348A      2.422969   349A      2.430868   350A      2.445586  
     351A      2.452627   352A      2.456043   353A      2.472401  
     354A      2.481610   355A      2.492747   356A      2.503337  
     357A      2.509153   358A      2.514812   359A      2.520801  
     360A      2.527883   361A      2.531466   362A      2.547819  
     363A      2.549653   364A      2.567657   365A      2.568055  
     366A      2.579253   367A      2.591609   368A      2.596259  
     369A      2.626769   370A      2.641979   371A      2.653254  
     372A      2.663879   373A      2.665584   374A      2.684481  
     375A      2.686257   376A      2.698846   377A      2.708311  
     378A      2.713738   379A      2.728743   380A      2.733441  
     381A      2.742216   382A      2.749212   383A      2.760323  
     384A      2.774639   385A      2.794451   386A      2.801985  
     387A      2.815800   388A      2.821496   389A      2.831765  
     390A      2.837604   391A      2.851816   392A      2.858147  
     393A      2.893579   394A      2.903239   395A      2.912233  
     396A      2.925323   397A      2.941155   398A      2.945029  
     399A      2.954557   400A      2.957452   401A      2.973318  
     402A      2.984905   403A      2.995794   404A      3.019100  
     405A      3.033860   406A      3.042150   407A      3.050467  
     408A      3.062686   409A      3.079151   410A      3.086987  
     411A      3.096902   412A      3.110271   413A      3.113728  
     414A      3.126478   415A      3.138771   416A      3.152631  
     417A      3.167588   418A      3.188925   419A      3.202213  
     420A      3.212291   421A      3.217733   422A      3.228490  
     423A      3.234377   424A      3.248151   425A      3.252659  
     426A      3.262895   427A      3.269898   428A      3.277606  
     429A      3.279145   430A      3.292036   431A      3.307312  
     432A      3.318253   433A      3.338446   434A      3.343340  
     435A      3.354795   436A      3.378270   437A      3.382857  
     438A      3.394072   439A      3.396131   440A      3.416431  
     441A      3.425452   442A      3.432262   443A      3.446151  
     444A      3.466408   445A      3.474744   446A      3.487398  
     447A      3.489617   448A      3.511937   449A      3.519699  
     450A      3.535522   451A      3.548662   452A      3.559302  
     453A      3.567466   454A      3.575310   455A      3.594768  
     456A      3.609344   457A      3.613628   458A      3.633932  
     459A      3.643784   460A      3.647522   461A      3.669466  
     462A      3.696297   463A      3.704885   464A      3.714279  
     465A      3.732111   466A      3.752299   467A      3.761887  
     468A      3.767700   469A      3.786447   470A      3.805172  
     471A      3.822432   472A      3.826544   473A      3.848004  
     474A      3.857086   475A      3.863290   476A      3.890179  
     477A      3.903066   478A      3.910195   479A      3.935333  
     480A      3.942450   481A      3.957212   482A      3.974815  
     483A      3.991175   484A      3.998187   485A      4.006927  
     486A      4.020958   487A      4.034180   488A      4.040215  
     489A      4.052163   490A      4.081276   491A      4.087784  
     492A      4.092653   493A      4.109289   494A      4.129726  
     495A      4.132176   496A      4.138330   497A      4.157400  
     498A      4.165403   499A      4.183701   500A      4.200290  
     501A      4.218078   502A      4.239685   503A      4.252751  
     504A      4.264797   505A      4.272364   506A      4.284028  
     507A      4.304968   508A      4.329890   509A      4.336545  
     510A      4.361580   511A      4.371398   512A      4.384169  
     513A      4.396504   514A      4.406860   515A      4.415822  
     516A      4.431568   517A      4.444966   518A      4.459100  
     519A      4.463585   520A      4.471907   521A      4.507992  
     522A      4.536762   523A      4.540647   524A      4.558334  
     525A      4.566468   526A      4.582216   527A      4.597755  
     528A      4.613379   529A      4.627202   530A      4.631524  
     531A      4.658977   532A      4.670727   533A      4.679350  
     534A      4.710187   535A      4.716811   536A      4.725406  
     537A      4.731996   538A      4.740607   539A      4.775205  
     540A      4.791181   541A      4.798212   542A      4.826869  
     543A      4.844576   544A      4.858273   545A      4.870581  
     546A      4.876030   547A      4.916414   548A      4.926853  
     549A      4.944202   550A      4.953464   551A      4.979341  
     552A      4.984925   553A      5.005848   554A      5.027944  
     555A      5.054338   556A      5.058056   557A      5.100939  
     558A      5.142678   559A      5.177201   560A      5.197580  
     561A      5.207097   562A      5.219518   563A      5.239268  
     564A      5.260695   565A      5.307042   566A      5.330406  
     567A      5.356379   568A      5.379550   569A      5.385922  
     570A      5.406049   571A      5.458294   572A      5.477224  
     573A      5.521054   574A      5.536072   575A      5.563580  
     576A      6.200720   577A      6.222460   578A      6.275559  
     579A      6.287288   580A      6.304555   581A      6.332666  
     582A      6.348340   583A      6.370962   584A      6.405722  
     585A      6.443565   586A      6.457990   587A      6.468873  
     588A      6.492420   589A      6.518466   590A      6.540290  
     591A      6.550705   592A      6.602424   593A      6.638835  
     594A      6.643380   595A      6.653900   596A      6.695806  
     597A      6.704517   598A      6.728506   599A      6.759971  
     600A      6.790403   601A      6.798685   602A      6.819395  
     603A      6.829241   604A      6.842211   605A      6.858782  
     606A      6.864362   607A      6.881754   608A      6.887430  
     609A      6.894570   610A      6.908635   611A      6.915001  
     612A      6.925430   613A      6.940930   614A      6.948822  
     615A      6.971438   616A      6.984929   617A      6.994329  
     618A      7.008202   619A      7.026887   620A      7.034147  
     621A      7.036263   622A      7.043864   623A      7.056680  
     624A      7.067932   625A      7.083027   626A      7.085070  
     627A      7.105937   628A      7.114824   629A      7.121189  
     630A      7.135538   631A      7.155527   632A      7.163280  
     633A      7.165980   634A      7.197320   635A      7.206310  
     636A      7.214020   637A      7.236473   638A      7.245214  
     639A      7.285127   640A      7.295138   641A      7.302899  
     642A      7.317696   643A      7.326368   644A      7.356570  
     645A      7.366487   646A      7.380264   647A      7.391062  
     648A      7.406841   649A      7.411460   650A      7.428660  
     651A      7.469178   652A      7.484063   653A      7.489014  
     654A      7.500196   655A      7.506360   656A      7.522790  
     657A      7.537431   658A      7.544967   659A      7.562459  
     660A      7.582871   661A      7.593751   662A      7.603069  
     663A      7.608594   664A      7.635962   665A      7.646756  
     666A      7.671644   667A      7.681178   668A      7.703265  
     669A      7.731761   670A      7.740012   671A      7.755744  
     672A      7.768527   673A      7.782346   674A      7.794467  
     675A      7.806398   676A      7.829566   677A      7.842307  
     678A      7.887355   679A      7.921571   680A      7.939155  
     681A      7.942912   682A      7.949643   683A      7.970669  
     684A      7.983040   685A      8.009590   686A      8.024045  
     687A      8.037517   688A      8.060449   689A      8.083236  
     690A      8.111005   691A      8.116438   692A      8.137474  
     693A      8.193621   694A      8.201449   695A      8.217750  
     696A      8.244342   697A      8.263885   698A      8.283758  
     699A      8.298134   700A      8.304423   701A      8.307942  
     702A      8.352525   703A      8.377521   704A      8.402498  
     705A      8.442653   706A      8.480422   707A      8.501178  
     708A      8.521486   709A      8.536916   710A      8.561001  
     711A      8.578559   712A      8.598287   713A      8.605249  
     714A      8.636259   715A      8.646826   716A      8.659000  
     717A      8.676939   718A      8.705192   719A      8.722728  
     720A      8.734520   721A      8.769355   722A      8.781088  
     723A      8.804654   724A      8.828548   725A      8.842282  
     726A      8.848600   727A      8.885193   728A      8.897062  
     729A      8.914458   730A      8.935130   731A      8.945646  
     732A      8.959561   733A      8.989881   734A      9.020413  
     735A      9.059883   736A      9.077655   737A      9.097845  
     738A      9.122679   739A      9.147177   740A      9.181497  
     741A      9.200812   742A      9.209917   743A      9.232347  
     744A      9.253057   745A      9.275765   746A      9.319014  
     747A      9.331683   748A      9.335103   749A      9.367980  
     750A      9.385966   751A      9.397416   752A      9.414084  
     753A      9.425908   754A      9.428446   755A      9.445950  
     756A      9.466510   757A      9.478886   758A      9.483523  
     759A      9.518044   760A      9.531730   761A      9.553333  
     762A      9.586287   763A      9.620697   764A      9.624037  
     765A      9.628888   766A      9.683097   767A      9.705197  
     768A      9.725721   769A      9.731765   770A      9.743704  
     771A      9.746982   772A      9.752634   773A      9.761669  
     774A      9.780638   775A      9.795452   776A      9.815534  
     777A      9.843940   778A      9.853382   779A      9.873883  
     780A      9.882258   781A      9.919741   782A      9.953421  
     783A      9.955184   784A      9.965668   785A      9.975899  
     786A      9.980981   787A      9.991651   788A     10.005401  
     789A     10.014291   790A     10.034887   791A     10.049138  
     792A     10.061551   793A     10.098867   794A     10.144957  
     795A     10.154805   796A     10.168765   797A     10.183950  
     798A     10.231451   799A     10.244598   800A     10.268275  
     801A     10.309690   802A     10.324273   803A     10.326303  
     804A     10.347597   805A     10.380568   806A     10.397782  
     807A     10.436937   808A     10.450669   809A     10.484560  
     810A     10.516878   811A     10.522165   812A     10.539808  
     813A     10.549523   814A     10.572928   815A     10.598293  
     816A     10.633859   817A     10.659246   818A     10.722146  
     819A     10.762143   820A     10.773845   821A     10.841803  
     822A     10.874372   823A     10.927659   824A     10.936873  
     825A     10.956753   826A     10.979933   827A     11.003301  
     828A     11.026330   829A     11.056846   830A     11.080394  
     831A     11.120841   832A     11.139970   833A     11.170600  
     834A     11.194248   835A     11.197493   836A     11.231268  
     837A     11.249318   838A     11.294780   839A     11.358970  
     840A     11.374641   841A     11.479274   842A     11.601154  
     843A     11.635754   844A     11.689654   845A     11.909290  
     846A     13.402759   847A     13.470405   848A     13.521355  
     849A     13.555584   850A     13.597208   851A     13.661915  
     852A     13.680687   853A     13.747385   854A     13.845525  
     855A     13.945344   856A     28.309348   857A     28.484104  
     858A     28.544181   859A     28.599712   860A     28.704375  

    Final Occupation by Irrep:
              A 
    DOCC [    20 ]

  @DF-RHF Final Energy:  -195.24160304287537

   => Energetics <=

    Nuclear Repulsion Energy =            188.3372831060565602
    One-Electron Energy =                -635.4968742472848362
    Two-Electron Energy =                 251.9179880983528790
    Total Energy =                       -195.2416030428753686

Computation Completed


Properties will be evaluated at   0.000000,   0.000000,   0.000000 [a0]

Properties computed using the SCF density matrix

  Nuclear Dipole Moment: [e a0]
     X:     4.9113      Y:    -2.7563      Z:   161.3480

  Electronic Dipole Moment: [e a0]
     X:    -4.9069      Y:     2.7605      Z:  -161.3466

  Dipole Moment: [e a0]
     X:     0.0044      Y:     0.0042      Z:     0.0014     Total:     0.0062

  Dipole Moment: [D]
     X:     0.0111      Y:     0.0106      Z:     0.0036     Total:     0.0157


*** tstop() called on node73.bme.utexas.edu at Sat Apr 11 15:47:25 2020
Module time:
	user time   =     347.20 seconds =       5.79 minutes
	system time =       7.77 seconds =       0.13 minutes
	total time  =         48 seconds =       0.80 minutes
Total time:
	user time   =     451.00 seconds =       7.52 minutes
	system time =      11.39 seconds =       0.19 minutes
	total time  =         64 seconds =       1.07 minutes

*** tstart() called on node73.bme.utexas.edu
*** at Sat Apr 11 15:47:25 2020


  //>>>>>>>>>>>>>>>>>>>>>>>>>>>>>>>>>>>//
  //               DFMP2               //
  //<<<<<<<<<<<<<<<<<<<<<<<<<<<<<<<<<<<//

   => Loading Basis Set <=

    Name: (AUG-CC-PVQZ AUX)
    Role: RIFIT
    Keyword: DF_BASIS_MP2
    atoms 1, 4, 7, 10, 13             entry C          line   184 file /home/liuchw/anaconda3/envs/psi4env/share/psi4/basis/aug-cc-pvqz-ri.gbs 
    atoms 2-3, 5-6, 8-9, 11-12, 14-15 entry H          line    30 file /home/liuchw/anaconda3/envs/psi4env/share/psi4/basis/aug-cc-pvqz-ri.gbs 

	 --------------------------------------------------------
	                          DF-MP2                         
	      2nd-Order Density-Fitted Moller-Plesset Theory     
	              RMP2 Wavefunction,   8 Threads             
	                                                         
	        Rob Parrish, Justin Turney, Andy Simmonett,      
	           Ed Hohenstein, and C. David Sherrill          
	 --------------------------------------------------------

   => Auxiliary Basis Set <=

  Basis Set: (AUG-CC-PVQZ AUX)
    Blend: AUG-CC-PVQZ-RI
    Number of shells: 380
    Number of basis function: 1640
    Number of Cartesian functions: 2235
    Spherical Harmonics?: true
    Max angular momentum: 5

	 --------------------------------------------------------
	                 NBF =   860, NAUX =  1640
	 --------------------------------------------------------
	   CLASS    FOCC     OCC    AOCC    AVIR     VIR    FVIR
	   PAIRS       0      20      20     840     840       0
	 --------------------------------------------------------

	-----------------------------------------------------------
	 ==================> DF-MP2 Energies <==================== 
	-----------------------------------------------------------
	 Reference Energy          =    -195.2416030428753686 [Eh]
	 Singles Energy            =      -0.0000000000000000 [Eh]
	 Same-Spin Energy          =      -0.2222213577700385 [Eh]
	 Opposite-Spin Energy      =      -0.8494223643296097 [Eh]
	 Correlation Energy        =      -1.0716437220996482 [Eh]
	 Total Energy              =    -196.3132467649750197 [Eh]
	-----------------------------------------------------------
	 ================> DF-SCS-MP2 Energies <================== 
	-----------------------------------------------------------
	 SCS Same-Spin Scale       =       0.3333333333333333 [-]
	 SCS Opposite-Spin Scale   =       1.2000000000000000 [-]
	 SCS Same-Spin Energy      =      -0.0740737859233462 [Eh]
	 SCS Opposite-Spin Energy  =      -1.0193068371955316 [Eh]
	 SCS Correlation Energy    =      -1.0933806231188778 [Eh]
	 SCS Total Energy          =    -196.3349836659942582 [Eh]
	-----------------------------------------------------------


*** tstop() called on node73.bme.utexas.edu at Sat Apr 11 15:47:47 2020
Module time:
	user time   =     126.16 seconds =       2.10 minutes
	system time =       3.29 seconds =       0.05 minutes
	total time  =         22 seconds =       0.37 minutes
Total time:
	user time   =     577.17 seconds =       9.62 minutes
	system time =      14.68 seconds =       0.24 minutes
	total time  =         86 seconds =       1.43 minutes

  //>>>>>>>>>>>>>>>>>>>>>>>>>>>>>>>>>>>//
  //  CBS Results: mp2/aug-cc-pv[tq]z  //
  //<<<<<<<<<<<<<<<<<<<<<<<<<<<<<<<<<<<//


   ==> HF <==

   HI-zeta (4) Energy:               -195.241603042875


   ==> Helgaker 2-point correlated extrapolation for method: MP2 <==

   LO-zeta (3) Energy:               -196.207004816781
   HI-zeta (4) Energy:               -196.313246764975
   Alpha (exponent) Value:             3.000000000000
   Extrapolated Energy:              -196.390774673117

   @Extrapolated MP2/(T,Q):          -196.390774673117



   ==> Helgaker 2-point correlated extrapolation for method: HF <==

   LO-zeta (3) Energy:               -195.230115802566
   HI-zeta (4) Energy:               -195.241603042875
   Alpha (exponent) Value:             3.000000000000
   Extrapolated Energy:              -195.249985623642

   @Extrapolated HF/(T,Q):           -195.249985623642


   ==> Components <==

  ---------------------------------------------------------------------------------------------------------
                          Method / Basis                      Rqd      Energy [Eh]   Variable
  ---------------------------------------------------------------------------------------------------------
                              hf / aug-cc-pvtz                  *    -195.23011580   HF TOTAL ENERGY
                             mp2 / aug-cc-pvtz                  *    -196.20700482   MP2 TOTAL ENERGY
                              hf / aug-cc-pvqz                  *    -195.24160304   HF TOTAL ENERGY
                             mp2 / aug-cc-pvqz                  *    -196.31324676   MP2 TOTAL ENERGY
  ---------------------------------------------------------------------------------------------------------

   ==> Stages <==

  ---------------------------------------------------------------------------------------------------------
      Stage               Method / Basis                       Wt      Energy [Eh]   Scheme
  ---------------------------------------------------------------------------------------------------------
        scf                   hf / aug-cc-pvqz                  1    -195.24160304   xtpl_highest_1
       corl                  mp2 / aug-cc-pv[tq]z               1    -196.39077467   corl_xtpl_helgaker_2
       corl                   hf / aug-cc-pv[tq]z              -1    -195.24998562   corl_xtpl_helgaker_2
  ---------------------------------------------------------------------------------------------------------

   ==> CBS <==

  ---------------------------------------------------------------------------------------------------------
      Stage               Method / Basis                               Energy [Eh]   Scheme
  ---------------------------------------------------------------------------------------------------------
        scf                   hf / aug-cc-pvqz                       -195.24160304   xtpl_highest_1
       corl                  mp2 / aug-cc-pv[tq]z                      -1.14078905   corl_xtpl_helgaker_2
      total                  CBS                                     -196.38239209   
  ---------------------------------------------------------------------------------------------------------
   => Loading Basis Set <=

    Name: DEF2-SVP
    Role: ORBITAL
    Keyword: BASIS
    atoms 1, 4, 7, 10, 13             entry C          line    90 file /home/liuchw/anaconda3/envs/psi4env/share/psi4/basis/def2-svp.gbs 
    atoms 2-3, 5-6, 8-9, 11-12, 14-15 entry H          line    15 file /home/liuchw/anaconda3/envs/psi4env/share/psi4/basis/def2-svp.gbs 


       N-Body: Complex Energy (fragments = (2,), basis = (2,):  -196.38239209235070)

       N-Body: Computing complex (2/4) with fragments (2,) in the basis of fragments (1, 2).


Scratch directory: /scratch//

  //>>>>>>>>>>>>>>>>>>>>>>>>>>>>>>>>>>>//
  //   CBS Setup: mp2/aug-cc-pv[tq]z   //
  //<<<<<<<<<<<<<<<<<<<<<<<<<<<<<<<<<<<//

    Naive listing of computations required.
             hf / aug-cc-pvqz              for  HF TOTAL ENERGY
            mp2 / aug-cc-pvtz              for  MP2 TOTAL ENERGY
            mp2 / aug-cc-pvqz              for  MP2 TOTAL ENERGY
             hf / aug-cc-pvtz              for  HF TOTAL ENERGY
             hf / aug-cc-pvqz              for  HF TOTAL ENERGY

    Enlightened listing of computations required.
            mp2 / aug-cc-pvtz              for  MP2 TOTAL ENERGY
            mp2 / aug-cc-pvqz              for  MP2 TOTAL ENERGY

    Full listing of computations to be obtained (required and bonus).
             hf / aug-cc-pvtz              for  HF TOTAL ENERGY
            mp2 / aug-cc-pvtz              for  MP2 TOTAL ENERGY
             hf / aug-cc-pvqz              for  HF TOTAL ENERGY
            mp2 / aug-cc-pvqz              for  MP2 TOTAL ENERGY

  //>>>>>>>>>>>>>>>>>>>>>>>>>>>>>>>>>>>>//
  // CBS Computation: MP2 / AUG-CC-PVTZ //
  //<<<<<<<<<<<<<<<<<<<<<<<<<<<<<<<<<<<<//


Scratch directory: /scratch//

*** tstart() called on node73.bme.utexas.edu
*** at Sat Apr 11 15:47:50 2020

   => Loading Basis Set <=

    Name: AUG-CC-PVTZ
    Role: ORBITAL
    Keyword: BASIS
    atoms 1, 9                                           entry N          line   285 file /home/liuchw/anaconda3/envs/psi4env/share/psi4/basis/aug-cc-pvtz.gbs 
    atoms 2, 6, 8, 10, 14-15, 17-18, 20-21, 23-24, 26-27 entry H          line    40 file /home/liuchw/anaconda3/envs/psi4env/share/psi4/basis/aug-cc-pvtz.gbs 
    atoms 3, 5, 7, 11, 13, 16, 19, 22, 25                entry C          line   239 file /home/liuchw/anaconda3/envs/psi4env/share/psi4/basis/aug-cc-pvtz.gbs 
    atoms 4, 12                                          entry O          line   331 file /home/liuchw/anaconda3/envs/psi4env/share/psi4/basis/aug-cc-pvtz.gbs 


         ---------------------------------------------------------
                                   SCF
               by Justin Turney, Rob Parrish, Andy Simmonett
                          and Daniel G. A. Smith
                              RHF Reference
                        8 Threads,  38146 MiB Core
         ---------------------------------------------------------

  ==> Geometry <==

    Molecular point group: c1
    Full point group: C1

    Geometry (in Angstrom), charge = 0, multiplicity = 1:

       Center              X                  Y                   Z               Mass       
    ------------   -----------------  -----------------  -----------------  -----------------
      Gh(N)           0.173464126482    -0.872836441077    -1.133601875768    14.003074004430
      Gh(H)           0.428132126482    -1.824900441077    -0.907679875768     1.007825032230
      Gh(C)          -1.201314873518    -0.601831441077    -1.197964875768    12.000000000000
      Gh(O)          -2.015911873518    -1.484412441077    -0.990546875768    15.994914619570
      Gh(C)          -1.498980873518     0.783008558923    -1.519887875768    12.000000000000
      Gh(H)          -2.528621873518     1.087503558923    -1.593552875768     1.007825032230
      Gh(C)          -0.490378873518     1.654814558923    -1.722556875768    12.000000000000
      Gh(H)          -0.660700873518     2.693495558923    -1.963611875768     1.007825032230
      Gh(N)           0.823363126482     1.277843558923    -1.630616875768    14.003074004430
      Gh(H)           1.567427126482     1.940731558923    -1.771487875768     1.007825032230
      Gh(C)           1.231995126482    -0.008685441077    -1.321203875768    12.000000000000
      Gh(O)           2.400038126482    -0.329863441077    -1.225568875768    15.994914619570
         C            1.025828126482    -0.886956441077     2.161301124232    12.000000000000
         H            1.479681126482    -0.979012441077     1.173318124232     1.007825032230
         H            1.570331126482    -1.550936441077     2.830498124232     1.007825032230
         C            1.080142126482     0.578995558923     2.594237124232    12.000000000000
         H            2.038432126482     1.051894558923     2.383512124232     1.007825032230
         H            0.892027126482     0.660633558923     3.667460124232     1.007825032230
         C           -0.087209873518     1.191810558923     1.823465124232    12.000000000000
         H            0.187095126482     1.280591558923     0.769994124232     1.007825032230
         H           -0.371623873518     2.182951558923     2.175099124232     1.007825032230
         C           -1.204153873518     0.154238558923     1.994494124232    12.000000000000
         H           -1.929693873518     0.177852558923     1.183122124232     1.007825032230
         H           -1.748239873518     0.358935558923     2.916742124232     1.007825032230
         C           -0.481117873518    -1.212309441077     2.098151124232    12.000000000000
         H           -0.723781873518    -1.856465441077     1.254791124232     1.007825032230
         H           -0.796223873518    -1.739711441077     2.997237124232     1.007825032230

  Running in c1 symmetry.

  Rotational constants: A =      0.03386  B =      0.02313  C =      0.01962 [cm^-1]
  Rotational constants: A =   1015.04581  B =    693.52938  C =    588.22538 [MHz]
  Nuclear repulsion =  188.337283106056560

  Charge       = 0
  Multiplicity = 1
  Electrons    = 40
  Nalpha       = 20
  Nbeta        = 20

  ==> Algorithm <==

  SCF Algorithm Type is DF.
  DIIS enabled.
  MOM disabled.
  Fractional occupation disabled.
  Guess Type is SAD.
  Energy threshold   = 1.00e-07
  Density threshold  = 1.00e-08
  Integral threshold = 0.00e+00

  ==> Primary Basis <==

  Basis Set: AUG-CC-PVTZ
    Blend: AUG-CC-PVTZ
    Number of shells: 308
    Number of basis function: 920
    Number of Cartesian functions: 1065
    Spherical Harmonics?: true
    Max angular momentum: 3

   => Loading Basis Set <=

    Name: (AUG-CC-PVTZ AUX)
    Role: JKFIT
    Keyword: DF_BASIS_SCF
    atoms 1, 9                                           entry N          line   224 file /home/liuchw/anaconda3/envs/psi4env/share/psi4/basis/aug-cc-pvtz-jkfit.gbs 
    atoms 2, 6, 8, 10, 14-15, 17-18, 20-21, 23-24, 26-27 entry H          line    70 file /home/liuchw/anaconda3/envs/psi4env/share/psi4/basis/aug-cc-pvtz-jkfit.gbs 
    atoms 3, 5, 7, 11, 13, 16, 19, 22, 25                entry C          line   162 file /home/liuchw/anaconda3/envs/psi4env/share/psi4/basis/aug-cc-pvtz-jkfit.gbs 
    atoms 4, 12                                          entry O          line   286 file /home/liuchw/anaconda3/envs/psi4env/share/psi4/basis/aug-cc-pvtz-jkfit.gbs 

  ==> Pre-Iterations <==

   -------------------------------------------------------
    Irrep   Nso     Nmo     Nalpha   Nbeta   Ndocc  Nsocc
   -------------------------------------------------------
     A        920     920       0       0       0       0
   -------------------------------------------------------
    Total     920     920      20      20      20       0
   -------------------------------------------------------

  ==> Integral Setup <==

  DFHelper Memory: AOs need 12.121 GiB; user supplied 27.940 GiB. Using in-core AOs.

  ==> MemDFJK: Density-Fitted J/K Matrices <==

    J tasked:                   Yes
    K tasked:                   Yes
    wK tasked:                   No
    OpenMP threads:               8
    Memory [MiB]:             28610
    Algorithm:                 Core
    Schwarz Cutoff:           1E-12
    Mask sparsity (%):       5.6964
    Fitting Condition:        1E-10

   => Auxiliary Basis Set <=

  Basis Set: (AUG-CC-PVTZ AUX)
    Blend: AUG-CC-PVTZ-JKFIT
    Number of shells: 586
    Number of basis function: 1996
    Number of Cartesian functions: 2473
    Spherical Harmonics?: true
    Max angular momentum: 4

  Minimum eigenvalue in the overlap matrix is 7.4418874827E-07.
  Using Symmetric Orthogonalization.

  SCF Guess: Superposition of Atomic Densities via on-the-fly atomic UHF.

  ==> Iterations <==

                           Total Energy        Delta E     RMS |[F,P]|

   @DF-RHF iter SAD:  -195.14564312245267   -1.95146e+02   0.00000e+00 
   @DF-RHF iter   1:  -194.97509836073607    1.70545e-01   7.03995e-04 DIIS
   @DF-RHF iter   2:  -195.15713875166244   -1.82040e-01   4.06660e-04 DIIS
   @DF-RHF iter   3:  -195.22692243111655   -6.97837e-02   6.11465e-05 DIIS
   @DF-RHF iter   4:  -195.23008882444671   -3.16639e-03   9.65079e-06 DIIS
   @DF-RHF iter   5:  -195.23019221441362   -1.03390e-04   2.10679e-06 DIIS
   @DF-RHF iter   6:  -195.23019714989542   -4.93548e-06   2.65217e-07 DIIS
   @DF-RHF iter   7:  -195.23019722460819   -7.47128e-08   4.67194e-08 DIIS
   @DF-RHF iter   8:  -195.23019722602183   -1.41364e-09   1.64469e-08 DIIS
   @DF-RHF iter   9:  -195.23019722617838   -1.56547e-10   2.39239e-09 DIIS
  Energy and wave function converged.


  ==> Post-Iterations <==

    Orbital Energies [Eh]
    ---------------------

    Doubly Occupied:                                                      

       1A    -11.210520     2A    -11.210121     3A    -11.210115  
       4A    -11.209501     5A    -11.209368     6A     -1.116062  
       7A     -0.956545     8A     -0.955965     9A     -0.776686  
      10A     -0.767345    11A     -0.649865    12A     -0.644582  
      13A     -0.569561    14A     -0.567613    15A     -0.475237  
      16A     -0.474457    17A     -0.463582    18A     -0.459996  
      19A     -0.459453    20A     -0.448561  

    Virtual:                                                              

      21A      0.020304    22A      0.031581    23A      0.032063  
      24A      0.033628    25A      0.045281    26A      0.045863  
      27A      0.049970    28A      0.050763    29A      0.052960  
      30A      0.066110    31A      0.069112    32A      0.072554  
      33A      0.076204    34A      0.078507    35A      0.082443  
      36A      0.084984    37A      0.096359    38A      0.100558  
      39A      0.104509    40A      0.107120    41A      0.113630  
      42A      0.120619    43A      0.122804    44A      0.124220  
      45A      0.126860    46A      0.129167    47A      0.131139  
      48A      0.133596    49A      0.135625    50A      0.141521  
      51A      0.143923    52A      0.146152    53A      0.148462  
      54A      0.153056    55A      0.159966    56A      0.163480  
      57A      0.164955    58A      0.174868    59A      0.176121  
      60A      0.176947    61A      0.182453    62A      0.184218  
      63A      0.185368    64A      0.189095    65A      0.193526  
      66A      0.195275    67A      0.200261    68A      0.206624  
      69A      0.211678    70A      0.217508    71A      0.222145  
      72A      0.229516    73A      0.238090    74A      0.239783  
      75A      0.247282    76A      0.253060    77A      0.255419  
      78A      0.259025    79A      0.260848    80A      0.267943  
      81A      0.270372    82A      0.275417    83A      0.281047  
      84A      0.283107    85A      0.288513    86A      0.294645  
      87A      0.298963    88A      0.302808    89A      0.312185  
      90A      0.314887    91A      0.318756    92A      0.323021  
      93A      0.330280    94A      0.332769    95A      0.333290  
      96A      0.338182    97A      0.341358    98A      0.343189  
      99A      0.347966   100A      0.350999   101A      0.354182  
     102A      0.360582   103A      0.364412   104A      0.366078  
     105A      0.374968   106A      0.378334   107A      0.380976  
     108A      0.383628   109A      0.386008   110A      0.393033  
     111A      0.399492   112A      0.402838   113A      0.404912  
     114A      0.406167   115A      0.409938   116A      0.415090  
     117A      0.418689   118A      0.421939   119A      0.428945  
     120A      0.431601   121A      0.434688   122A      0.437981  
     123A      0.441624   124A      0.451495   125A      0.456363  
     126A      0.459408   127A      0.460474   128A      0.463528  
     129A      0.469565   130A      0.475307   131A      0.477114  
     132A      0.481328   133A      0.486534   134A      0.492301  
     135A      0.494430   136A      0.498910   137A      0.499834  
     138A      0.506047   139A      0.508363   140A      0.514790  
     141A      0.517496   142A      0.521364   143A      0.523802  
     144A      0.528578   145A      0.532239   146A      0.537302  
     147A      0.539024   148A      0.547488   149A      0.550110  
     150A      0.552590   151A      0.559427   152A      0.562541  
     153A      0.564304   154A      0.567010   155A      0.569897  
     156A      0.579900   157A      0.580674   158A      0.587877  
     159A      0.593060   160A      0.597164   161A      0.599474  
     162A      0.604622   163A      0.607980   164A      0.619268  
     165A      0.624888   166A      0.627403   167A      0.628396  
     168A      0.628439   169A      0.636841   170A      0.642515  
     171A      0.642734   172A      0.648228   173A      0.650427  
     174A      0.658185   175A      0.659490   176A      0.667385  
     177A      0.673607   178A      0.675542   179A      0.680966  
     180A      0.682346   181A      0.687491   182A      0.689571  
     183A      0.696736   184A      0.701079   185A      0.704039  
     186A      0.709911   187A      0.714444   188A      0.718108  
     189A      0.720174   190A      0.720883   191A      0.731232  
     192A      0.732212   193A      0.738608   194A      0.741922  
     195A      0.751498   196A      0.755523   197A      0.759754  
     198A      0.766834   199A      0.774810   200A      0.781226  
     201A      0.791962   202A      0.795771   203A      0.799809  
     204A      0.814136   205A      0.816971   206A      0.830745  
     207A      0.835992   208A      0.840923   209A      0.844601  
     210A      0.851382   211A      0.860036   212A      0.866057  
     213A      0.872454   214A      0.877613   215A      0.881945  
     216A      0.893812   217A      0.896807   218A      0.905131  
     219A      0.905661   220A      0.908365   221A      0.918142  
     222A      0.923860   223A      0.926014   224A      0.931820  
     225A      0.937468   226A      0.942522   227A      0.948845  
     228A      0.952287   229A      0.955966   230A      0.960236  
     231A      0.965745   232A      0.970817   233A      0.973621  
     234A      0.980242   235A      0.986705   236A      0.988446  
     237A      0.991144   238A      0.997255   239A      1.003625  
     240A      1.005011   241A      1.008797   242A      1.014379  
     243A      1.021088   244A      1.025238   245A      1.028134  
     246A      1.033544   247A      1.038553   248A      1.045812  
     249A      1.049314   250A      1.053655   251A      1.057509  
     252A      1.065483   253A      1.068263   254A      1.075313  
     255A      1.081404   256A      1.086372   257A      1.090480  
     258A      1.099955   259A      1.102021   260A      1.107332  
     261A      1.107694   262A      1.114740   263A      1.116371  
     264A      1.121283   265A      1.128052   266A      1.134695  
     267A      1.137614   268A      1.145016   269A      1.151060  
     270A      1.153548   271A      1.159056   272A      1.163459  
     273A      1.172356   274A      1.174913   275A      1.180493  
     276A      1.184346   277A      1.189192   278A      1.194856  
     279A      1.198015   280A      1.206262   281A      1.211347  
     282A      1.215021   283A      1.219491   284A      1.225693  
     285A      1.229708   286A      1.233717   287A      1.239626  
     288A      1.242453   289A      1.247937   290A      1.250910  
     291A      1.254584   292A      1.267400   293A      1.269693  
     294A      1.273611   295A      1.278794   296A      1.290150  
     297A      1.292949   298A      1.294485   299A      1.298070  
     300A      1.307790   301A      1.308451   302A      1.316675  
     303A      1.319324   304A      1.325136   305A      1.327113  
     306A      1.330481   307A      1.342865   308A      1.346995  
     309A      1.352857   310A      1.359925   311A      1.367634  
     312A      1.370624   313A      1.373045   314A      1.379891  
     315A      1.386214   316A      1.396033   317A      1.409206  
     318A      1.412687   319A      1.414054   320A      1.426352  
     321A      1.430650   322A      1.436734   323A      1.441157  
     324A      1.447987   325A      1.452726   326A      1.460780  
     327A      1.464669   328A      1.469644   329A      1.478834  
     330A      1.485911   331A      1.487867   332A      1.492976  
     333A      1.500044   334A      1.509732   335A      1.516180  
     336A      1.521325   337A      1.527432   338A      1.531450  
     339A      1.539134   340A      1.545859   341A      1.551469  
     342A      1.555164   343A      1.565472   344A      1.570629  
     345A      1.573614   346A      1.579892   347A      1.589019  
     348A      1.591153   349A      1.595322   350A      1.603266  
     351A      1.615653   352A      1.619691   353A      1.626263  
     354A      1.635527   355A      1.640492   356A      1.645492  
     357A      1.656428   358A      1.658977   359A      1.665609  
     360A      1.668262   361A      1.684803   362A      1.685246  
     363A      1.690284   364A      1.703597   365A      1.707484  
     366A      1.712670   367A      1.715798   368A      1.724933  
     369A      1.735818   370A      1.738570   371A      1.743323  
     372A      1.752383   373A      1.758710   374A      1.760927  
     375A      1.767965   376A      1.776088   377A      1.780597  
     378A      1.789246   379A      1.795835   380A      1.806614  
     381A      1.807406   382A      1.816137   383A      1.819467  
     384A      1.822604   385A      1.826009   386A      1.828926  
     387A      1.835797   388A      1.844230   389A      1.845620  
     390A      1.854048   391A      1.859678   392A      1.864046  
     393A      1.876603   394A      1.881994   395A      1.890341  
     396A      1.895149   397A      1.902139   398A      1.905056  
     399A      1.908909   400A      1.924970   401A      1.926755  
     402A      1.932682   403A      1.937046   404A      1.945284  
     405A      1.950887   406A      1.953279   407A      1.960409  
     408A      1.968324   409A      1.976836   410A      1.981487  
     411A      1.983955   412A      1.992819   413A      2.006476  
     414A      2.011767   415A      2.019730   416A      2.022547  
     417A      2.031344   418A      2.033810   419A      2.043226  
     420A      2.048030   421A      2.053052   422A      2.059934  
     423A      2.068875   424A      2.078720   425A      2.082378  
     426A      2.095728   427A      2.098764   428A      2.106063  
     429A      2.110139   430A      2.114384   431A      2.119550  
     432A      2.124938   433A      2.144929   434A      2.152645  
     435A      2.162485   436A      2.176213   437A      2.185990  
     438A      2.190546   439A      2.194488   440A      2.204229  
     441A      2.208362   442A      2.214435   443A      2.218922  
     444A      2.228473   445A      2.234500   446A      2.242582  
     447A      2.252777   448A      2.262198   449A      2.265275  
     450A      2.272572   451A      2.280937   452A      2.284153  
     453A      2.293013   454A      2.301411   455A      2.306780  
     456A      2.311923   457A      2.317022   458A      2.327932  
     459A      2.333372   460A      2.342136   461A      2.349660  
     462A      2.365892   463A      2.370811   464A      2.380459  
     465A      2.388892   466A      2.399375   467A      2.403542  
     468A      2.412308   469A      2.417775   470A      2.425819  
[...]
    1250A      7.415358  1251A      7.416426  1252A      7.428134  
    1253A      7.437333  1254A      7.446853  1255A      7.455577  
    1256A      7.469274  1257A      7.473242  1258A      7.479238  
    1259A      7.492384  1260A      7.499846  1261A      7.502905  
    1262A      7.520482  1263A      7.527186  1264A      7.533007  
    1265A      7.549402  1266A      7.554341  1267A      7.565802  
    1268A      7.574773  1269A      7.577194  1270A      7.586060  
    1271A      7.590600  1272A      7.592013  1273A      7.602515  
    1274A      7.616123  1275A      7.629140  1276A      7.638921  
    1277A      7.644633  1278A      7.651491  1279A      7.664888  
    1280A      7.676311  1281A      7.684656  1282A      7.691769  
    1283A      7.704385  1284A      7.711044  1285A      7.720344  
    1286A      7.741228  1287A      7.750770  1288A      7.771973  
    1289A      7.788528  1290A      7.789975  1291A      7.796914  
    1292A      7.812961  1293A      7.819860  1294A      7.822798  
    1295A      7.832396  1296A      7.844706  1297A      7.850301  
    1298A      7.857871  1299A      7.872401  1300A      7.880038  
    1301A      7.886348  1302A      7.890812  1303A      7.901053  
    1304A      7.916773  1305A      7.924253  1306A      7.933883  
    1307A      7.942543  1308A      7.954669  1309A      7.963102  
    1310A      7.964180  1311A      7.984780  1312A      7.993054  
    1313A      8.016013  1314A      8.023035  1315A      8.030708  
    1316A      8.050348  1317A      8.061603  1318A      8.065940  
    1319A      8.074512  1320A      8.082537  1321A      8.091177  
    1322A      8.106142  1323A      8.115135  1324A      8.139342  
    1325A      8.139441  1326A      8.148197  1327A      8.159061  
    1328A      8.166755  1329A      8.169286  1330A      8.183079  
    1331A      8.189318  1332A      8.215776  1333A      8.220005  
    1334A      8.236758  1335A      8.251171  1336A      8.265656  
    1337A      8.268970  1338A      8.277429  1339A      8.289144  
    1340A      8.291306  1341A      8.304730  1342A      8.335288  
    1343A      8.344944  1344A      8.361454  1345A      8.377167  
    1346A      8.396234  1347A      8.413016  1348A      8.419724  
    1349A      8.441152  1350A      8.447141  1351A      8.455132  
    1352A      8.476012  1353A      8.495101  1354A      8.501828  
    1355A      8.520768  1356A      8.533926  1357A      8.546937  
    1358A      8.567577  1359A      8.580291  1360A      8.590545  
    1361A      8.596293  1362A      8.615763  1363A      8.631125  
    1364A      8.644058  1365A      8.655181  1366A      8.660869  
    1367A      8.678305  1368A      8.680062  1369A      8.688798  
    1370A      8.698954  1371A      8.701374  1372A      8.717933  
    1373A      8.730097  1374A      8.741646  1375A      8.748297  
    1376A      8.751795  1377A      8.760876  1378A      8.770944  
    1379A      8.774749  1380A      8.796598  1381A      8.800152  
    1382A      8.813471  1383A      8.818552  1384A      8.841101  
    1385A      8.852205  1386A      8.860625  1387A      8.873053  
    1388A      8.888919  1389A      8.892671  1390A      8.899989  
    1391A      8.905695  1392A      8.913811  1393A      8.918966  
    1394A      8.925367  1395A      8.939777  1396A      8.946770  
    1397A      8.974956  1398A      8.980957  1399A      8.984495  
    1400A      8.997605  1401A      9.003075  1402A      9.010723  
    1403A      9.022815  1404A      9.035329  1405A      9.040450  
    1406A      9.043723  1407A      9.073792  1408A      9.081499  
    1409A      9.085967  1410A      9.100425  1411A      9.121280  
    1412A      9.137428  1413A      9.137740  1414A      9.159565  
    1415A      9.170230  1416A      9.179328  1417A      9.199749  
    1418A      9.214526  1419A      9.225670  1420A      9.234697  
    1421A      9.255302  1422A      9.268531  1423A      9.270755  
    1424A      9.274900  1425A      9.289943  1426A      9.308076  
    1427A      9.312360  1428A      9.346259  1429A      9.361439  
    1430A      9.365709  1431A      9.382648  1432A      9.394724  
    1433A      9.405640  1434A      9.411928  1435A      9.417869  
    1436A      9.445182  1437A      9.449898  1438A      9.455770  
    1439A      9.464927  1440A      9.481867  1441A      9.487110  
    1442A      9.497800  1443A      9.501750  1444A      9.511672  
    1445A      9.522711  1446A      9.534231  1447A      9.540156  
    1448A      9.552665  1449A      9.564673  1450A      9.569305  
    1451A      9.575852  1452A      9.584773  1453A      9.603176  
    1454A      9.619356  1455A      9.624878  1456A      9.628099  
    1457A      9.630471  1458A      9.652518  1459A      9.675549  
    1460A      9.684374  1461A      9.694397  1462A      9.704327  
    1463A      9.721504  1464A      9.733228  1465A      9.748031  
    1466A      9.756790  1467A      9.767154  1468A      9.778723  
    1469A      9.790969  1470A      9.809385  1471A      9.817991  
    1472A      9.829527  1473A      9.837267  1474A      9.851854  
    1475A      9.855690  1476A      9.878947  1477A      9.882067  
    1478A      9.896693  1479A      9.900123  1480A      9.916530  
    1481A      9.924683  1482A      9.932768  1483A      9.960624  
    1484A      9.968243  1485A      9.974608  1486A      9.982389  
    1487A      9.999851  1488A     10.008855  1489A     10.014092  
    1490A     10.022779  1491A     10.031791  1492A     10.035395  
    1493A     10.049037  1494A     10.055848  1495A     10.063500  
    1496A     10.071885  1497A     10.076338  1498A     10.091727  
    1499A     10.100670  1500A     10.106564  1501A     10.117548  
    1502A     10.130077  1503A     10.132023  1504A     10.150623  
    1505A     10.163573  1506A     10.178460  1507A     10.192059  
    1508A     10.198205  1509A     10.219240  1510A     10.225133  
    1511A     10.231837  1512A     10.236827  1513A     10.258592  
    1514A     10.266016  1515A     10.290245  1516A     10.294012  
    1517A     10.306219  1518A     10.314359  1519A     10.324196  
    1520A     10.336940  1521A     10.346642  1522A     10.356901  
    1523A     10.368151  1524A     10.378486  1525A     10.401276  
    1526A     10.412245  1527A     10.423711  1528A     10.426992  
    1529A     10.451995  1530A     10.481517  1531A     10.498659  
    1532A     10.504409  1533A     10.513336  1534A     10.568686  
    1535A     10.590081  1536A     10.593579  1537A     10.600542  
    1538A     10.606510  1539A     10.622383  1540A     10.638714  
    1541A     10.667527  1542A     10.677439  1543A     10.699489  
    1544A     10.705164  1545A     10.720695  1546A     10.738593  
    1547A     10.744645  1548A     10.758077  1549A     10.770857  
    1550A     10.789878  1551A     10.793759  1552A     10.824361  
    1553A     10.836119  1554A     10.849700  1555A     10.859659  
    1556A     10.878035  1557A     10.893380  1558A     10.906483  
    1559A     10.931456  1560A     10.952524  1561A     10.959920  
    1562A     10.960801  1563A     10.984164  1564A     11.001532  
    1565A     11.008817  1566A     11.016001  1567A     11.053412  
    1568A     11.067111  1569A     11.078607  1570A     11.096778  
    1571A     11.099251  1572A     11.112439  1573A     11.121368  
    1574A     11.171020  1575A     11.178475  1576A     11.215813  
    1577A     11.224591  1578A     11.235854  1579A     11.249273  
    1580A     11.259940  1581A     11.265660  1582A     11.285395  
    1583A     11.292355  1584A     11.311428  1585A     11.320572  
    1586A     11.328580  1587A     11.352489  1588A     11.364664  
    1589A     11.407652  1590A     11.433979  1591A     11.440698  
    1592A     11.459158  1593A     11.466359  1594A     11.500862  
    1595A     11.512564  1596A     11.521950  1597A     11.550195  
    1598A     11.564358  1599A     11.570627  1600A     11.591219  
    1601A     11.620114  1602A     11.685276  1603A     11.711594  
    1604A     11.727197  1605A     11.734489  1606A     11.767289  
    1607A     11.774105  1608A     11.798598  1609A     11.808491  
    1610A     11.855271  1611A     11.885046  1612A     11.943130  
    1613A     11.968725  1614A     11.985082  1615A     11.996149  
    1616A     12.110836  1617A     12.139579  1618A     12.163406  
    1619A     12.217256  1620A     12.228059  1621A     12.256274  
    1622A     12.272241  1623A     12.332370  1624A     12.343632  
    1625A     12.354854  1626A     12.379123  1627A     12.450035  
    1628A     12.506130  1629A     12.584337  1630A     12.635308  
    1631A     12.667087  1632A     12.691460  1633A     12.764395  
    1634A     12.879442  1635A     12.894351  1636A     12.926478  
    1637A     12.937645  1638A     13.114412  1639A     13.136163  
    1640A     13.315053  1641A     13.349027  1642A     13.449512  
    1643A     13.454183  1644A     13.481230  1645A     13.543323  
    1646A     13.560774  1647A     13.576742  1648A     13.596419  
    1649A     13.624479  1650A     13.656486  1651A     13.687202  
    1652A     13.708433  1653A     13.719093  1654A     13.734641  
    1655A     13.763978  1656A     13.844382  1657A     13.879185  
    1658A     13.920359  1659A     14.003262  1660A     14.020191  
    1661A     14.141007  1662A     14.163262  1663A     14.178774  
    1664A     14.361638  1665A     14.465602  1666A     14.859262  
    1667A     14.996333  1668A     15.256611  1669A     15.315859  
    1670A     15.465201  1671A     15.586530  1672A     26.712308  
    1673A     26.946147  1674A     27.099815  1675A     27.389642  
    1676A     28.578490  1677A     28.656411  1678A     28.699862  
    1679A     28.805007  1680A     28.994050  1681A     35.727274  
    1682A     35.797487  1683A     44.920838  1684A     45.156436  

    Final Occupation by Irrep:
              A 
    DOCC [    49 ]

  @DF-RHF Final Energy:  -607.87912770700541

   => Energetics <=

    Nuclear Repulsion Energy =            847.9797778335287148
    One-Electron Energy =               -2511.2256861739724627
    Two-Electron Energy =                1055.3667806334383386
    Total Energy =                       -607.8791277070054093

Computation Completed


Properties will be evaluated at   0.000000,   0.000000,   0.000000 [a0]

Properties computed using the SCF density matrix

  Nuclear Dipole Moment: [e a0]
     X:    -0.5596      Y:     3.2558      Z:    14.1676

  Electronic Dipole Moment: [e a0]
     X:     0.5511      Y:    -1.4108      Z:   -14.6197

  Dipole Moment: [e a0]
     X:    -0.0085      Y:     1.8450      Z:    -0.4521     Total:     1.8996

  Dipole Moment: [D]
     X:    -0.0215      Y:     4.6896      Z:    -1.1491     Total:     4.8284


*** tstop() called on node73.bme.utexas.edu at Sat Apr 11 16:52:23 2020
Module time:
	user time   =    6380.04 seconds =     106.33 minutes
	system time =     273.99 seconds =       4.57 minutes
	total time  =       1125 seconds =      18.75 minutes
Total time:
	user time   =   23885.66 seconds =     398.09 minutes
	system time =     862.88 seconds =      14.38 minutes
	total time  =       3962 seconds =      66.03 minutes

*** tstart() called on node73.bme.utexas.edu
*** at Sat Apr 11 16:52:23 2020


  //>>>>>>>>>>>>>>>>>>>>>>>>>>>>>>>>>>>//
  //               DFMP2               //
  //<<<<<<<<<<<<<<<<<<<<<<<<<<<<<<<<<<<//

   => Loading Basis Set <=

    Name: (AUG-CC-PVQZ AUX)
    Role: RIFIT
    Keyword: DF_BASIS_MP2
    atoms 1, 9                                           entry N          line   258 file /home/liuchw/anaconda3/envs/psi4env/share/psi4/basis/aug-cc-pvqz-ri.gbs 
    atoms 2, 6, 8, 10, 14-15, 17-18, 20-21, 23-24, 26-27 entry H          line    30 file /home/liuchw/anaconda3/envs/psi4env/share/psi4/basis/aug-cc-pvqz-ri.gbs 
    atoms 3, 5, 7, 11, 13, 16, 19, 22, 25                entry C          line   184 file /home/liuchw/anaconda3/envs/psi4env/share/psi4/basis/aug-cc-pvqz-ri.gbs 
    atoms 4, 12                                          entry O          line   332 file /home/liuchw/anaconda3/envs/psi4env/share/psi4/basis/aug-cc-pvqz-ri.gbs 

	 --------------------------------------------------------
	                          DF-MP2                         
	      2nd-Order Density-Fitted Moller-Plesset Theory     
	              RMP2 Wavefunction,   8 Threads             
	                                                         
	        Rob Parrish, Justin Turney, Andy Simmonett,      
	           Ed Hohenstein, and C. David Sherrill          
	 --------------------------------------------------------

   => Auxiliary Basis Set <=

  Basis Set: (AUG-CC-PVQZ AUX)
    Blend: AUG-CC-PVQZ-RI
    Number of shells: 748
    Number of basis function: 3304
    Number of Cartesian functions: 4551
    Spherical Harmonics?: true
    Max angular momentum: 5

	 --------------------------------------------------------
	                 NBF =  1684, NAUX =  3304
	 --------------------------------------------------------
	   CLASS    FOCC     OCC    AOCC    AVIR     VIR    FVIR
	   PAIRS       0      49      49    1635    1635       0
	 --------------------------------------------------------

	-----------------------------------------------------------
	 ==================> DF-MP2 Energies <==================== 
	-----------------------------------------------------------
	 Reference Energy          =    -607.8791277070054093 [Eh]
	 Singles Energy            =      -0.0000000000000000 [Eh]
	 Same-Spin Energy          =      -0.6709727599174067 [Eh]
	 Opposite-Spin Energy      =      -2.2501667298479706 [Eh]
	 Correlation Energy        =      -2.9211394897653773 [Eh]
	 Total Energy              =    -610.8002671967707329 [Eh]
	-----------------------------------------------------------
	 ================> DF-SCS-MP2 Energies <================== 
	-----------------------------------------------------------
	 SCS Same-Spin Scale       =       0.3333333333333333 [-]
	 SCS Opposite-Spin Scale   =       1.2000000000000000 [-]
	 SCS Same-Spin Energy      =      -0.2236575866391355 [Eh]
	 SCS Opposite-Spin Energy  =      -2.7002000758175648 [Eh]
	 SCS Correlation Energy    =      -2.9238576624567005 [Eh]
	 SCS Total Energy          =    -610.8029853694621352 [Eh]
	-----------------------------------------------------------


*** tstop() called on node73.bme.utexas.edu at Sat Apr 11 16:57:59 2020
Module time:
	user time   =    2402.62 seconds =      40.04 minutes
	system time =      17.42 seconds =       0.29 minutes
	total time  =        336 seconds =       5.60 minutes
Total time:
	user time   =   26288.28 seconds =     438.14 minutes
	system time =     880.30 seconds =      14.67 minutes
	total time  =       4298 seconds =      71.63 minutes

  //>>>>>>>>>>>>>>>>>>>>>>>>>>>>>>>>>>>//
  //  CBS Results: mp2/aug-cc-pv[tq]z  //
  //<<<<<<<<<<<<<<<<<<<<<<<<<<<<<<<<<<<//


   ==> HF <==

   HI-zeta (4) Energy:               -607.879127707005


   ==> Helgaker 2-point correlated extrapolation for method: MP2 <==

   LO-zeta (3) Energy:               -610.486740780918
   HI-zeta (4) Energy:               -610.800267196771
   Alpha (exponent) Value:             3.000000000000
   Extrapolated Energy:              -611.029056743474

   @Extrapolated MP2/(T,Q):          -611.029056743474



   ==> Helgaker 2-point correlated extrapolation for method: HF <==

   LO-zeta (3) Energy:               -607.842517121367
   HI-zeta (4) Energy:               -607.879127707005
   Alpha (exponent) Value:             3.000000000000
   Extrapolated Energy:              -607.905843539769

   @Extrapolated HF/(T,Q):           -607.905843539769


   ==> Components <==

  ---------------------------------------------------------------------------------------------------------
                          Method / Basis                      Rqd      Energy [Eh]   Variable
  ---------------------------------------------------------------------------------------------------------
                              hf / aug-cc-pvtz                  *    -607.84251712   HF TOTAL ENERGY
                             mp2 / aug-cc-pvtz                  *    -610.48674078   MP2 TOTAL ENERGY
                              hf / aug-cc-pvqz                  *    -607.87912771   HF TOTAL ENERGY
                             mp2 / aug-cc-pvqz                  *    -610.80026720   MP2 TOTAL ENERGY
  ---------------------------------------------------------------------------------------------------------

   ==> Stages <==

  ---------------------------------------------------------------------------------------------------------
      Stage               Method / Basis                       Wt      Energy [Eh]   Scheme
  ---------------------------------------------------------------------------------------------------------
        scf                   hf / aug-cc-pvqz                  1    -607.87912771   xtpl_highest_1
       corl                  mp2 / aug-cc-pv[tq]z               1    -611.02905674   corl_xtpl_helgaker_2
       corl                   hf / aug-cc-pv[tq]z              -1    -607.90584354   corl_xtpl_helgaker_2
  ---------------------------------------------------------------------------------------------------------

   ==> CBS <==

  ---------------------------------------------------------------------------------------------------------
      Stage               Method / Basis                               Energy [Eh]   Scheme
  ---------------------------------------------------------------------------------------------------------
        scf                   hf / aug-cc-pvqz                       -607.87912771   xtpl_highest_1
       corl                  mp2 / aug-cc-pv[tq]z                      -3.12321320   corl_xtpl_helgaker_2
      total                  CBS                                     -611.00234091   
  ---------------------------------------------------------------------------------------------------------
   => Loading Basis Set <=

    Name: DEF2-SVP
    Role: ORBITAL
    Keyword: BASIS
    atoms 1, 9                                           entry N          line   110 file /home/liuchw/anaconda3/envs/psi4env/share/psi4/basis/def2-svp.gbs 
    atoms 2, 6, 8, 10, 14-15, 17-18, 20-21, 23-24, 26-27 entry H          line    15 file /home/liuchw/anaconda3/envs/psi4env/share/psi4/basis/def2-svp.gbs 
    atoms 3, 5, 7, 11, 13, 16, 19, 22, 25                entry C          line    90 file /home/liuchw/anaconda3/envs/psi4env/share/psi4/basis/def2-svp.gbs 
    atoms 4, 12                                          entry O          line   130 file /home/liuchw/anaconda3/envs/psi4env/share/psi4/basis/def2-svp.gbs 


       N-Body: Complex Energy (fragments = (1, 2), basis = (1, 2):  -611.00234091071036)

   ==> N-Body: Counterpoise Corrected (CP) energies <==

   n-Body     Total Energy [Eh]       I.E. [kcal/mol]      Delta [kcal/mol]
        1     -610.996514146104        0.000000000000        0.000000000000
        2     -611.003015028750       -4.079365448162       -4.079365448162

   => Loading Basis Set <=

    Name: DEF2-SVP
    Role: ORBITAL
    Keyword: BASIS
    atoms 1, 9                                           entry N          line   110 file /home/liuchw/anaconda3/envs/psi4env/share/psi4/basis/def2-svp.gbs 
    atoms 2, 6, 8, 10, 14-15, 17-18, 20-21, 23-24, 26-27 entry H          line    15 file /home/liuchw/anaconda3/envs/psi4env/share/psi4/basis/def2-svp.gbs 
    atoms 3, 5, 7, 11, 13, 16, 19, 22, 25                entry C          line    90 file /home/liuchw/anaconda3/envs/psi4env/share/psi4/basis/def2-svp.gbs 
    atoms 4, 12                                          entry O          line   130 file /home/liuchw/anaconda3/envs/psi4env/share/psi4/basis/def2-svp.gbs 


    Psi4 stopped on: Saturday, 11 April 2020 04:58PM
    Psi4 wall time for execution: 1:11:44.17

*** Psi4 exiting successfully. Buy a developer a beer!
