
    -----------------------------------------------------------------------
          Psi4: An Open-Source Ab Initio Electronic Structure Package
                               Psi4 1.4a2.dev224 

                         Git: Rev {master} e453b16 


    R. M. Parrish, L. A. Burns, D. G. A. Smith, A. C. Simmonett,
    A. E. DePrince III, E. G. Hohenstein, U. Bozkaya, A. Yu. Sokolov,
    R. Di Remigio, R. M. Richard, J. F. Gonthier, A. M. James,
    H. R. McAlexander, A. Kumar, M. Saitow, X. Wang, B. P. Pritchard,
    P. Verma, H. F. Schaefer III, K. Patkowski, R. A. King, E. F. Valeev,
    F. A. Evangelista, J. M. Turney, T. D. Crawford, and C. D. Sherrill,
    J. Chem. Theory Comput. 13(7) pp 3185--3197 (2017).
    (doi: 10.1021/acs.jctc.7b00174)


                         Additional Contributions by
    P. Kraus, H. Kruse, M. H. Lechner, M. C. Schieber, R. A. Shaw,
    A. Alenaizan, R. Galvelis, Z. L. Glick, S. Lehtola, and J. P. Misiewicz

    -----------------------------------------------------------------------


    Psi4 started on: Saturday, 11 April 2020 12:41PM

    Process ID: 64648
    Host:       node73.bme.utexas.edu
    PSIDATADIR: /home/liuchw/anaconda3/envs/psi4env/share/psi4
    Memory:     500.0 MiB
    Threads:    6
    
  ==> Input File <==

--------------------------------------------------------------------------
#Generated by lconvert.py for cbs job

memory 40 GB

molecule  {
0 1
  C        0.9640800     0.8750930     0.3780140
  H        1.6598300     1.6999310     0.4460420
  C        1.4310570    -0.4131330     0.1189920
  H        2.4895250    -0.5872090    -0.0170130
  C        0.5341280    -1.4776390     0.0424180
  H        0.8969610    -2.4773880    -0.1520120
  C       -0.8303270    -1.2536040     0.2208560
  H       -1.5257600    -2.0796240     0.1641170
  C       -1.2975870     0.0344130     0.4802430
  H       -2.3543960     0.2080160     0.6285610
  C       -0.4004450     1.0997790     0.5616010
  H       -0.7604550     2.0937690     0.7847570
--
0 1
  C       -0.1086430     0.5117970     4.5118630
  O       -0.5768330     1.5612440     4.1326030
  O        0.2945690    -0.4657660     3.6725780
  H        0.1258650    -0.1398520     2.7711730
  C        0.1013110     0.1148100     5.9432690
  H       -0.2086550     0.9241470     6.5932580
  H       -0.4747700    -0.7818140     6.1602200
  H        1.1498090    -0.1213220     6.1082880
units angstrom
no_reorient
symmetry c1
}

set {
scf_type DF
mp2_type DF
e_convergence 7
reference rhf
}

energy('mp2/aug-cc-pv[tq]z', bsse_type='cp')
--------------------------------------------------------------------------

  Memory set to  37.253 GiB by Python driver.

Scratch directory: /scratch//


   ===> N-Body Interaction Abacus <===
        BSSE Treatment:                     cp
        Number of 1-body computations:     4
        Number of 2-body computations:     1

   ==> N-Body: Now computing 1-body complexes <==


       N-Body: Computing complex (1/4) with fragments (2,) in the basis of fragments (2,).


Scratch directory: /scratch//

  //>>>>>>>>>>>>>>>>>>>>>>>>>>>>>>>>>>>//
  //   CBS Setup: mp2/aug-cc-pv[tq]z   //
  //<<<<<<<<<<<<<<<<<<<<<<<<<<<<<<<<<<<//

    Naive listing of computations required.
             hf / aug-cc-pvqz              for  HF TOTAL ENERGY
            mp2 / aug-cc-pvtz              for  MP2 TOTAL ENERGY
            mp2 / aug-cc-pvqz              for  MP2 TOTAL ENERGY
             hf / aug-cc-pvtz              for  HF TOTAL ENERGY
             hf / aug-cc-pvqz              for  HF TOTAL ENERGY

    Enlightened listing of computations required.
            mp2 / aug-cc-pvtz              for  MP2 TOTAL ENERGY
            mp2 / aug-cc-pvqz              for  MP2 TOTAL ENERGY

    Full listing of computations to be obtained (required and bonus).
             hf / aug-cc-pvtz              for  HF TOTAL ENERGY
            mp2 / aug-cc-pvtz              for  MP2 TOTAL ENERGY
             hf / aug-cc-pvqz              for  HF TOTAL ENERGY
            mp2 / aug-cc-pvqz              for  MP2 TOTAL ENERGY

  //>>>>>>>>>>>>>>>>>>>>>>>>>>>>>>>>>>>>//
  // CBS Computation: MP2 / AUG-CC-PVTZ //
  //<<<<<<<<<<<<<<<<<<<<<<<<<<<<<<<<<<<<//


Scratch directory: /scratch//

*** tstart() called on node73.bme.utexas.edu
*** at Sat Apr 11 12:41:53 2020

   => Loading Basis Set <=

    Name: AUG-CC-PVTZ
    Role: ORBITAL
    Keyword: BASIS
    atoms 1, 5   entry C          line   239 file /home/liuchw/anaconda3/envs/psi4env/share/psi4/basis/aug-cc-pvtz.gbs 
    atoms 2-3    entry O          line   331 file /home/liuchw/anaconda3/envs/psi4env/share/psi4/basis/aug-cc-pvtz.gbs 
    atoms 4, 6-8 entry H          line    40 file /home/liuchw/anaconda3/envs/psi4env/share/psi4/basis/aug-cc-pvtz.gbs 


         ---------------------------------------------------------
                                   SCF
               by Justin Turney, Rob Parrish, Andy Simmonett
                          and Daniel G. A. Smith
                              RHF Reference
                        6 Threads,  38146 MiB Core
         ---------------------------------------------------------

  ==> Geometry <==

    Molecular point group: c1
    Full point group: C1

    Geometry (in Angstrom), charge = 0, multiplicity = 1:

       Center              X                  Y                   Z               Mass       
    ------------   -----------------  -----------------  -----------------  -----------------
         C           -0.117434767408     0.438289401164     2.370879673399    12.000000000000
         O           -0.585624767408     1.487736401164     1.991619673399    15.994914619570
         O            0.285777232592    -0.539273598836     1.531594673399    15.994914619570
         H            0.117073232592    -0.213359598836     0.630189673399     1.007825032230
         C            0.092519232592     0.041302401164     3.802285673399    12.000000000000
         H           -0.217446767408     0.850639401164     4.452274673399     1.007825032230
         H           -0.483561767408    -0.855321598836     4.019236673399     1.007825032230
         H            1.141017232592    -0.194829598836     3.967304673399     1.007825032230

  Running in c1 symmetry.

  Rotational constants: A =      0.36784  B =      0.04186  C =      0.03784 [cm^-1]
  Rotational constants: A =  11027.57010  B =   1254.81812  C =   1134.46992 [MHz]
  Nuclear repulsion =  121.226805538503839

  Charge       = 0
  Multiplicity = 1
  Electrons    = 32
  Nalpha       = 16
  Nbeta        = 16

  ==> Algorithm <==

  SCF Algorithm Type is DF.
  DIIS enabled.
  MOM disabled.
  Fractional occupation disabled.
  Guess Type is SAD.
  Energy threshold   = 1.00e-07
  Density threshold  = 1.00e-08
  Integral threshold = 0.00e+00

  ==> Primary Basis <==

  Basis Set: AUG-CC-PVTZ
    Blend: AUG-CC-PVTZ
    Number of shells: 92
    Number of basis function: 276
    Number of Cartesian functions: 320
    Spherical Harmonics?: true
    Max angular momentum: 3

   => Loading Basis Set <=

    Name: (AUG-CC-PVTZ AUX)
    Role: JKFIT
    Keyword: DF_BASIS_SCF
    atoms 1, 5   entry C          line   162 file /home/liuchw/anaconda3/envs/psi4env/share/psi4/basis/aug-cc-pvtz-jkfit.gbs 
    atoms 2-3    entry O          line   286 file /home/liuchw/anaconda3/envs/psi4env/share/psi4/basis/aug-cc-pvtz-jkfit.gbs 
    atoms 4, 6-8 entry H          line    70 file /home/liuchw/anaconda3/envs/psi4env/share/psi4/basis/aug-cc-pvtz-jkfit.gbs 

  ==> Pre-Iterations <==

   -------------------------------------------------------
    Irrep   Nso     Nmo     Nalpha   Nbeta   Ndocc  Nsocc
   -------------------------------------------------------
     A        276     276       0       0       0       0
   -------------------------------------------------------
    Total     276     276      16      16      16       0
   -------------------------------------------------------

  ==> Integral Setup <==

  DFHelper Memory: AOs need 0.361 GiB; user supplied 27.940 GiB. Using in-core AOs.

  ==> MemDFJK: Density-Fitted J/K Matrices <==

    J tasked:                   Yes
    K tasked:                   Yes
    wK tasked:                   No
    OpenMP threads:               6
    Memory [MiB]:             28610
    Algorithm:                 Core
    Schwarz Cutoff:           1E-12
    Mask sparsity (%):       0.2704
    Fitting Condition:        1E-10

   => Auxiliary Basis Set <=

  Basis Set: (AUG-CC-PVTZ AUX)
    Blend: AUG-CC-PVTZ-JKFIT
    Number of shells: 176
    Number of basis function: 600
    Number of Cartesian functions: 744
    Spherical Harmonics?: true
    Max angular momentum: 4

  Minimum eigenvalue in the overlap matrix is 2.0778960845E-05.
  Using Symmetric Orthogonalization.

  SCF Guess: Superposition of Atomic Densities via on-the-fly atomic UHF.

  ==> Iterations <==

                           Total Energy        Delta E     RMS |[F,P]|

   @DF-RHF iter SAD:  -226.99634887324740   -2.26996e+02   0.00000e+00 
   @DF-RHF iter   1:  -227.74400758084079   -7.47659e-01   2.18329e-03 DIIS
   @DF-RHF iter   2:  -227.86127599782523   -1.17268e-01   1.31120e-03 DIIS
   @DF-RHF iter   3:  -227.90244489243361   -4.11689e-02   2.14697e-04 DIIS
   @DF-RHF iter   4:  -227.90463350358510   -2.18861e-03   9.85123e-05 DIIS
   @DF-RHF iter   5:  -227.90511247961521   -4.78976e-04   2.39420e-05 DIIS
   @DF-RHF iter   6:  -227.90515295568989   -4.04761e-05   1.17410e-05 DIIS
   @DF-RHF iter   7:  -227.90516327450632   -1.03188e-05   3.82989e-06 DIIS
   @DF-RHF iter   8:  -227.90516503075239   -1.75625e-06   9.92150e-07 DIIS
   @DF-RHF iter   9:  -227.90516516333088   -1.32578e-07   2.08199e-07 DIIS
   @DF-RHF iter  10:  -227.90516516802302   -4.69214e-09   5.95632e-08 DIIS
   @DF-RHF iter  11:  -227.90516516825528   -2.32262e-10   1.69313e-08 DIIS
   @DF-RHF iter  12:  -227.90516516827651   -2.12310e-11   4.36756e-09 DIIS
  Energy and wave function converged.


  ==> Post-Iterations <==

    Orbital Energies [Eh]
    ---------------------

    Doubly Occupied:                                                      

       1A    -20.617853     2A    -20.552019     3A    -11.390920  
       4A    -11.245423     5A     -1.467731     6A     -1.363069  
       7A     -1.029776     8A     -0.825903     9A     -0.707976  
      10A     -0.682280    11A     -0.653245    12A     -0.585899  
      13A     -0.574934    14A     -0.563680    15A     -0.485189  
      16A     -0.456678  

    Virtual:                                                              

      17A      0.027280    18A      0.038619    19A      0.044880  
      20A      0.051147    21A      0.082020    22A      0.098492  
      23A      0.099251    24A      0.119282    25A      0.125667  
      26A      0.127374    27A      0.135611    28A      0.159958  
      29A      0.169951    30A      0.173176    31A      0.180776  
      32A      0.187649    33A      0.214515    34A      0.229359  
      35A      0.239809    36A      0.249483    37A      0.260366  
      38A      0.274084    39A      0.288600    40A      0.301078  
      41A      0.311328    42A      0.327708    43A      0.332302  
      44A      0.344285    45A      0.347555    46A      0.362775  
      47A      0.371733    48A      0.378346    49A      0.403106  
      50A      0.404100    51A      0.411895    52A      0.413312  
      53A      0.425337    54A      0.437771    55A      0.454167  
      56A      0.456711    57A      0.478121    58A      0.486376  
      59A      0.509573    60A      0.517290    61A      0.520949  
      62A      0.546493    63A      0.554540    64A      0.598672  
      65A      0.619734    66A      0.640244    67A      0.661287  
      68A      0.700466    69A      0.711825    70A      0.721377  
      71A      0.761378    72A      0.773877    73A      0.786732  
      74A      0.804636    75A      0.805895    76A      0.814441  
      77A      0.834098    78A      0.841012    79A      0.873680  
      80A      0.879043    81A      0.888480    82A      0.898774  
      83A      0.905144    84A      0.912066    85A      0.920740  
      86A      0.943067    87A      0.965669    88A      0.973693  
      89A      0.975949    90A      1.002376    91A      1.010901  
      92A      1.022198    93A      1.023545    94A      1.043216  
      95A      1.044094    96A      1.068615    97A      1.102888  
      98A      1.108168    99A      1.114869   100A      1.134919  
     101A      1.160590   102A      1.191062   103A      1.191659  
     104A      1.197178   105A      1.202358   106A      1.214442  
     107A      1.220704   108A      1.261351   109A      1.291017  
     110A      1.318127   111A      1.327329   112A      1.347920  
     113A      1.399796   114A      1.415202   115A      1.448612  
     116A      1.461381   117A      1.463410   118A      1.488584  
     119A      1.510853   120A      1.522942   121A      1.553350  
     122A      1.592004   123A      1.606245   124A      1.636392  
     125A      1.646221   126A      1.657745   127A      1.659677  
     128A      1.695077   129A      1.705124   130A      1.754573  
     131A      1.767914   132A      1.776011   133A      1.795877  
     134A      1.818006   135A      1.838842   136A      1.890277  
     137A      1.911266   138A      1.931552   139A      1.963688  
     140A      2.056965   141A      2.066638   142A      2.078336  
     143A      2.129058   144A      2.167925   145A      2.173277  
     146A      2.209769   147A      2.215838   148A      2.266690  
     149A      2.289677   150A      2.327276   151A      2.333419  
     152A      2.417952   153A      2.430650   154A      2.447854  
     155A      2.461455   156A      2.523445   157A      2.554927  
     158A      2.574422   159A      2.590989   160A      2.607993  
     161A      2.685355   162A      2.732246   163A      2.741181  
     164A      2.756774   165A      2.776415   166A      2.809537  
     167A      2.850158   168A      2.895233   169A      2.921379  
     170A      2.963471   171A      2.990159   172A      2.993157  
     173A      3.021449   174A      3.143321   175A      3.206616  
     176A      3.227682   177A      3.252841   178A      3.356781  
     179A      3.378947   180A      3.415009   181A      3.458840  
     182A      3.534738   183A      3.558358   184A      3.589679  
     185A      3.603869   186A      3.611178   187A      3.656898  
     188A      3.711780   189A      3.777990   190A      3.820453  
     191A      3.836910   192A      3.879480   193A      3.914904  
     194A      3.933475   195A      3.949811   196A      3.979842  
     197A      4.002913   198A      4.010701   199A      4.058658  
     200A      4.061028   201A      4.109592   202A      4.134008  
     203A      4.165732   204A      4.254058   205A      4.291142  
     206A      4.319896   207A      4.325394   208A      4.377954  
     209A      4.382179   210A      4.435910   211A      4.463007  
     212A      4.495211   213A      4.556376   214A      4.627238  
     215A      4.657884   216A      4.665819   217A      4.715092  
     218A      4.757703   219A      4.787488   220A      4.804867  
     221A      4.870175   222A      4.920065   223A      4.983194  
     224A      5.022948   225A      5.046660   226A      5.112973  
     227A      5.123329   228A      5.141538   229A      5.267485  
     230A      5.306113   231A      5.344818   232A      5.353274  
     233A      5.421644   234A      5.498190   235A      5.535008  
     236A      5.626327   237A      5.665843   238A      5.688936  
     239A      5.757199   240A      5.905594   241A      6.032770  
     242A      6.077479   243A      6.119555   244A      6.197816  
     245A      6.350474   246A      6.559843   247A      6.639903  
     248A      6.675499   249A      6.690633   250A      6.725898  
     251A      6.827214   252A      6.841908   253A      6.869026  
     254A      6.983342   255A      7.034888   256A      7.203795  
     257A      7.241192   258A      7.276581   259A      7.312924  
     260A      7.339023   261A      7.353197   262A      7.381822  
     263A      7.502349   264A      7.544043   265A      7.598638  
     266A      7.659331   267A      7.700514   268A      7.843641  
     269A      7.907252   270A      8.014505   271A      8.216494  
     272A      8.520493   273A     15.188510   274A     15.676040  
     275A     17.124646   276A     18.877445  

    Final Occupation by Irrep:
              A 
    DOCC [    16 ]

  @DF-RHF Final Energy:  -227.90516516827651

   => Energetics <=

    Nuclear Repulsion Energy =            121.2268055385038394
    One-Electron Energy =                -551.8587924411302765
    Two-Electron Energy =                 202.7268217343498975
    Total Energy =                       -227.9051651682765112

Computation Completed


Properties will be evaluated at   0.000000,   0.000000,   0.000000 [a0]

Properties computed using the SCF density matrix

  Nuclear Dipole Moment: [e a0]
     X:    -3.7628      Y:    18.9962      Z:   147.9537

  Electronic Dipole Moment: [e a0]
     X:     4.0696      Y:   -19.6904      Z:  -147.6959

  Dipole Moment: [e a0]
     X:     0.3068      Y:    -0.6942      Z:     0.2578     Total:     0.8015

  Dipole Moment: [D]
     X:     0.7799      Y:    -1.7644      Z:     0.6552     Total:     2.0373


*** tstop() called on node73.bme.utexas.edu at Sat Apr 11 12:41:57 2020
Module time:
	user time   =      19.61 seconds =       0.33 minutes
	system time =       0.99 seconds =       0.02 minutes
	total time  =          4 seconds =       0.07 minutes
Total time:
	user time   =      19.61 seconds =       0.33 minutes
	system time =       0.99 seconds =       0.02 minutes
	total time  =          4 seconds =       0.07 minutes

*** tstart() called on node73.bme.utexas.edu
*** at Sat Apr 11 12:41:57 2020


  //>>>>>>>>>>>>>>>>>>>>>>>>>>>>>>>>>>>//
  //               DFMP2               //
  //<<<<<<<<<<<<<<<<<<<<<<<<<<<<<<<<<<<//

   => Loading Basis Set <=

    Name: (AUG-CC-PVTZ AUX)
    Role: RIFIT
    Keyword: DF_BASIS_MP2
    atoms 1, 5   entry C          line   148 file /home/liuchw/anaconda3/envs/psi4env/share/psi4/basis/aug-cc-pvtz-ri.gbs 
    atoms 2-3    entry O          line   264 file /home/liuchw/anaconda3/envs/psi4env/share/psi4/basis/aug-cc-pvtz-ri.gbs 
    atoms 4, 6-8 entry H          line    30 file /home/liuchw/anaconda3/envs/psi4env/share/psi4/basis/aug-cc-pvtz-ri.gbs 

	 --------------------------------------------------------
	                          DF-MP2                         
	      2nd-Order Density-Fitted Moller-Plesset Theory     
	              RMP2 Wavefunction,   6 Threads             
	                                                         
	        Rob Parrish, Justin Turney, Andy Simmonett,      
	           Ed Hohenstein, and C. David Sherrill          
	 --------------------------------------------------------

   => Auxiliary Basis Set <=

  Basis Set: (AUG-CC-PVTZ AUX)
    Blend: AUG-CC-PVTZ-RI
    Number of shells: 168
    Number of basis function: 608
    Number of Cartesian functions: 764
    Spherical Harmonics?: true
    Max angular momentum: 4

	 --------------------------------------------------------
	                 NBF =   276, NAUX =   608
	 --------------------------------------------------------
	   CLASS    FOCC     OCC    AOCC    AVIR     VIR    FVIR
	   PAIRS       0      16      16     260     260       0
	 --------------------------------------------------------

	-----------------------------------------------------------
	 ==================> DF-MP2 Energies <==================== 
	-----------------------------------------------------------
	 Reference Energy          =    -227.9051651682765112 [Eh]
	 Singles Energy            =      -0.0000000000000000 [Eh]
	 Same-Spin Energy          =      -0.2149275941634077 [Eh]
	 Opposite-Spin Energy      =      -0.6692333288887460 [Eh]
	 Correlation Energy        =      -0.8841609230521537 [Eh]
	 Total Energy              =    -228.7893260913286611 [Eh]
	-----------------------------------------------------------
	 ================> DF-SCS-MP2 Energies <================== 
	-----------------------------------------------------------
	 SCS Same-Spin Scale       =       0.3333333333333333 [-]
	 SCS Opposite-Spin Scale   =       1.2000000000000000 [-]
	 SCS Same-Spin Energy      =      -0.0716425313878026 [Eh]
	 SCS Opposite-Spin Energy  =      -0.8030799946664952 [Eh]
	 SCS Correlation Energy    =      -0.8747225260542977 [Eh]
	 SCS Total Energy          =    -228.7798876943307960 [Eh]
	-----------------------------------------------------------


*** tstop() called on node73.bme.utexas.edu at Sat Apr 11 12:41:59 2020
Module time:
	user time   =       8.13 seconds =       0.14 minutes
	system time =       0.42 seconds =       0.01 minutes
	total time  =          2 seconds =       0.03 minutes
Total time:
	user time   =      27.75 seconds =       0.46 minutes
	system time =       1.41 seconds =       0.02 minutes
	total time  =          6 seconds =       0.10 minutes

  //>>>>>>>>>>>>>>>>>>>>>>>>>>>>>>>>>>>>//
  // CBS Computation: MP2 / AUG-CC-PVQZ //
  //<<<<<<<<<<<<<<<<<<<<<<<<<<<<<<<<<<<<//


Scratch directory: /scratch//

*** tstart() called on node73.bme.utexas.edu
*** at Sat Apr 11 12:41:59 2020

   => Loading Basis Set <=

    Name: AUG-CC-PVQZ
    Role: ORBITAL
    Keyword: BASIS
    atoms 1, 5   entry C          line   303 file /home/liuchw/anaconda3/envs/psi4env/share/psi4/basis/aug-cc-pvqz.gbs 
    atoms 2-3    entry O          line   423 file /home/liuchw/anaconda3/envs/psi4env/share/psi4/basis/aug-cc-pvqz.gbs 
    atoms 4, 6-8 entry H          line    40 file /home/liuchw/anaconda3/envs/psi4env/share/psi4/basis/aug-cc-pvqz.gbs 


         ---------------------------------------------------------
                                   SCF
               by Justin Turney, Rob Parrish, Andy Simmonett
                          and Daniel G. A. Smith
                              RHF Reference
                        6 Threads,  38146 MiB Core
         ---------------------------------------------------------

  ==> Geometry <==

    Molecular point group: c1
    Full point group: C1

    Geometry (in Angstrom), charge = 0, multiplicity = 1:

       Center              X                  Y                   Z               Mass       
    ------------   -----------------  -----------------  -----------------  -----------------
         C           -0.117434767408     0.438289401164     2.370879673399    12.000000000000
         O           -0.585624767408     1.487736401164     1.991619673399    15.994914619570
         O            0.285777232592    -0.539273598836     1.531594673399    15.994914619570
         H            0.117073232592    -0.213359598836     0.630189673399     1.007825032230
         C            0.092519232592     0.041302401164     3.802285673399    12.000000000000
         H           -0.217446767408     0.850639401164     4.452274673399     1.007825032230
         H           -0.483561767408    -0.855321598836     4.019236673399     1.007825032230
         H            1.141017232592    -0.194829598836     3.967304673399     1.007825032230

  Running in c1 symmetry.

  Rotational constants: A =      0.36784  B =      0.04186  C =      0.03784 [cm^-1]
  Rotational constants: A =  11027.57010  B =   1254.81812  C =   1134.46992 [MHz]
  Nuclear repulsion =  121.226805538503839

  Charge       = 0
  Multiplicity = 1
  Electrons    = 32
  Nalpha       = 16
  Nbeta        = 16

  ==> Algorithm <==

  SCF Algorithm Type is DF.
  DIIS enabled.
  MOM disabled.
  Fractional occupation disabled.
  Guess Type is SAD.
  Energy threshold   = 1.00e-07
  Density threshold  = 1.00e-08
  Integral threshold = 0.00e+00

  ==> Primary Basis <==

  Basis Set: AUG-CC-PVQZ
    Blend: AUG-CC-PVQZ
    Number of shells: 136
    Number of basis function: 504
    Number of Cartesian functions: 640
    Spherical Harmonics?: true
    Max angular momentum: 4

   => Loading Basis Set <=

    Name: (AUG-CC-PVQZ AUX)
    Role: JKFIT
    Keyword: DF_BASIS_SCF
    atoms 1, 5   entry C          line   178 file /home/liuchw/anaconda3/envs/psi4env/share/psi4/basis/aug-cc-pvqz-jkfit.gbs 
    atoms 2-3    entry O          line   318 file /home/liuchw/anaconda3/envs/psi4env/share/psi4/basis/aug-cc-pvqz-jkfit.gbs 
    atoms 4, 6-8 entry H          line    70 file /home/liuchw/anaconda3/envs/psi4env/share/psi4/basis/aug-cc-pvqz-jkfit.gbs 

  ==> Pre-Iterations <==

   -------------------------------------------------------
    Irrep   Nso     Nmo     Nalpha   Nbeta   Ndocc  Nsocc
   -------------------------------------------------------
     A        504     504       0       0       0       0
   -------------------------------------------------------
    Total     504     504      16      16      16       0
   -------------------------------------------------------

  ==> Integral Setup <==

  DFHelper Memory: AOs need 1.701 GiB; user supplied 27.940 GiB. Using in-core AOs.

  ==> MemDFJK: Density-Fitted J/K Matrices <==

    J tasked:                   Yes
    K tasked:                   Yes
    wK tasked:                   No
    OpenMP threads:               6
    Memory [MiB]:             28610
    Algorithm:                 Core
    Schwarz Cutoff:           1E-12
    Mask sparsity (%):       1.7424
    Fitting Condition:        1E-10

   => Auxiliary Basis Set <=

  Basis Set: (AUG-CC-PVQZ AUX)
    Blend: AUG-CC-PVQZ-JKFIT
    Number of shells: 208
    Number of basis function: 872
    Number of Cartesian functions: 1196
    Spherical Harmonics?: true
    Max angular momentum: 5

  Minimum eigenvalue in the overlap matrix is 5.5015690488E-06.
  Using Symmetric Orthogonalization.

  SCF Guess: Superposition of Atomic Densities via on-the-fly atomic UHF.

  ==> Iterations <==

                           Total Energy        Delta E     RMS |[F,P]|

   @DF-RHF iter SAD:  -227.01105648241992   -2.27011e+02   0.00000e+00 
   @DF-RHF iter   1:  -227.75837361147825   -7.47317e-01   1.19839e-03 DIIS
   @DF-RHF iter   2:  -227.87583818001946   -1.17465e-01   7.20790e-04 DIIS
   @DF-RHF iter   3:  -227.91715752585137   -4.13193e-02   1.18034e-04 DIIS
   @DF-RHF iter   4:  -227.91935559059891   -2.19806e-03   5.42960e-05 DIIS
   @DF-RHF iter   5:  -227.91983754045117   -4.81950e-04   1.32202e-05 DIIS
   @DF-RHF iter   6:  -227.91987867924004   -4.11388e-05   6.49700e-06 DIIS
   @DF-RHF iter   7:  -227.91988903963809   -1.03604e-05   2.13385e-06 DIIS
   @DF-RHF iter   8:  -227.91989084111361   -1.80148e-06   5.68236e-07 DIIS
   @DF-RHF iter   9:  -227.91989098509424   -1.43981e-07   1.17943e-07 DIIS
   @DF-RHF iter  10:  -227.91989099011883   -5.02459e-09   3.26418e-08 DIIS
   @DF-RHF iter  11:  -227.91989099035365   -2.34820e-10   9.32389e-09 DIIS
  Energy and wave function converged.


  ==> Post-Iterations <==

    Orbital Energies [Eh]
    ---------------------

    Doubly Occupied:                                                      

       1A    -20.615080     2A    -20.549263     3A    -11.389656  
       4A    -11.244370     5A     -1.466879     6A     -1.362152  
       7A     -1.029536     8A     -0.825750     9A     -0.707929  
      10A     -0.682318    11A     -0.653324    12A     -0.585973  
      13A     -0.575058    14A     -0.563843    15A     -0.485278  
      16A     -0.456773  

    Virtual:                                                              

      17A      0.024278    18A      0.034601    19A      0.040327  
      20A      0.046160    21A      0.070007    22A      0.084497  
      23A      0.085111    24A      0.101208    25A      0.106790  
      26A      0.109794    27A      0.118848    28A      0.145596  
      29A      0.146647    30A      0.152729    31A      0.158684  
      32A      0.162032    33A      0.182765    34A      0.197011  
      35A      0.202500    36A      0.205180    37A      0.218791  
      38A      0.230294    39A      0.238509    40A      0.254963  
      41A      0.261836    42A      0.267875    43A      0.278004  
      44A      0.280255    45A      0.288534    46A      0.302783  
      47A      0.307489    48A      0.309540    49A      0.319254  
      50A      0.333365    51A      0.335498    52A      0.341641  
      53A      0.345077    54A      0.362810    55A      0.372193  
      56A      0.376796    57A      0.391055    58A      0.396229  
      59A      0.401007    60A      0.408681    61A      0.439211  
      62A      0.441156    63A      0.461924    64A      0.484589  
      65A      0.493405    66A      0.510828    67A      0.547924  
      68A      0.548513    69A      0.568042    70A      0.578965  
      71A      0.583849    72A      0.606422    73A      0.612996  
      74A      0.613238    75A      0.618458    76A      0.624982  
      77A      0.637867    78A      0.648567    79A      0.665849  
      80A      0.670426    81A      0.676041    82A      0.682102  
      83A      0.685287    84A      0.691997    85A      0.704426  
      86A      0.719944    87A      0.721595    88A      0.728099  
      89A      0.753907    90A      0.759867    91A      0.767065  
      92A      0.771473    93A      0.778730    94A      0.797559  
      95A      0.806238    96A      0.822645    97A      0.836087  
      98A      0.847298    99A      0.859193   100A      0.864792  
     101A      0.869033   102A      0.899295   103A      0.902139  
     104A      0.916490   105A      0.921306   106A      0.934118  
     107A      0.959675   108A      0.963281   109A      0.983723  
     110A      0.985279   111A      1.010005   112A      1.018051  
     113A      1.038944   114A      1.042951   115A      1.078468  
     116A      1.081840   117A      1.092408   118A      1.097286  
     119A      1.107470   120A      1.120184   121A      1.156042  
     122A      1.165727   123A      1.189112   124A      1.203136  
     125A      1.203947   126A      1.213535   127A      1.219443  
     128A      1.240137   129A      1.268193   130A      1.275220  
     131A      1.307014   132A      1.314040   133A      1.333628  
     134A      1.352312   135A      1.367071   136A      1.408684  
     137A      1.444144   138A      1.458758   139A      1.475515  
     140A      1.479706   141A      1.510121   142A      1.522056  
     143A      1.538197   144A      1.543832   145A      1.555017  
     146A      1.559961   147A      1.584707   148A      1.587959  
     149A      1.610357   150A      1.636753   151A      1.660420  
     152A      1.665919   153A      1.686202   154A      1.697323  
     155A      1.698178   156A      1.726552   157A      1.735572  
     158A      1.757445   159A      1.760192   160A      1.798936  
     161A      1.810892   162A      1.814021   163A      1.826172  
     164A      1.844216   165A      1.855112   166A      1.879697  
     167A      1.886355   168A      1.892295   169A      1.924317  
     170A      1.928786   171A      1.937522   172A      1.942112  
     173A      1.950624   174A      1.964918   175A      1.982729  
     176A      1.988931   177A      2.006581   178A      2.018078  
     179A      2.025190   180A      2.033103   181A      2.041756  
     182A      2.062580   183A      2.067600   184A      2.076120  
     185A      2.084981   186A      2.100635   187A      2.132410  
     188A      2.154457   189A      2.160856   190A      2.161904  
     191A      2.185814   192A      2.192024   193A      2.202694  
     194A      2.206556   195A      2.236128   196A      2.242373  
     197A      2.251635   198A      2.273743   199A      2.276745  
     200A      2.305445   201A      2.309886   202A      2.328669  
     203A      2.338616   204A      2.358128   205A      2.361829  
     206A      2.365643   207A      2.405386   208A      2.438136  
     209A      2.471062   210A      2.475877   211A      2.508519  
     212A      2.532315   213A      2.562845   214A      2.565769  
     215A      2.622330   216A      2.653883   217A      2.683283  
     218A      2.692748   219A      2.699319   220A      2.744442  
     221A      2.768432   222A      2.771075   223A      2.794011  
     224A      2.807184   225A      2.833729   226A      2.856538  
     227A      2.880762   228A      2.886899   229A      2.902593  
     230A      2.907278   231A      2.915469   232A      2.952402  
     233A      2.975197   234A      3.022511   235A      3.035878  
     236A      3.048412   237A      3.053333   238A      3.080282  
     239A      3.111838   240A      3.133581   241A      3.169381  
     242A      3.188282   243A      3.209340   244A      3.261294  
     245A      3.263843   246A      3.275821   247A      3.315816  
     248A      3.325084   249A      3.353078   250A      3.383758  
     251A      3.428453   252A      3.480013   253A      3.491154  
     254A      3.554927   255A      3.574201   256A      3.618495  
     257A      3.624483   258A      3.644153   259A      3.694754  
     260A      3.717352   261A      3.735152   262A      3.778860  
     263A      3.786376   264A      3.793762   265A      3.874114  
     266A      3.895819   267A      3.934184   268A      3.955868  
     269A      3.971952   270A      3.992065   271A      4.009617  
     272A      4.012020   273A      4.014529   274A      4.055903  
     275A      4.088688   276A      4.106010   277A      4.137501  
     278A      4.149969   279A      4.164171   280A      4.183416  
     281A      4.216265   282A      4.222880   283A      4.247049  
     284A      4.269569   285A      4.287413   286A      4.292987  
     287A      4.298765   288A      4.331865   289A      4.347227  
     290A      4.374761   291A      4.376937   292A      4.381133  
     293A      4.389282   294A      4.467241   295A      4.477639  
     296A      4.482154   297A      4.488365   298A      4.545341  
     299A      4.573938   300A      4.610158   301A      4.612177  
     302A      4.647849   303A      4.649190   304A      4.661197  
     305A      4.716509   306A      4.746268   307A      4.777839  
     308A      4.796902   309A      4.805275   310A      4.844087  
     311A      4.888232   312A      4.917523   313A      4.918154  
     314A      5.010948   315A      5.014526   316A      5.055520  
     317A      5.077565   318A      5.092054   319A      5.119262  
     320A      5.166906   321A      5.214981   322A      5.293553  
     323A      5.318202   324A      5.322416   325A      5.409858  
     326A      5.467302   327A      5.522172   328A      5.571945  
     329A      5.625264   330A      5.629912   331A      5.782735  
     332A      5.794659   333A      5.851771   334A      5.864568  
     335A      5.886113   336A      6.087910   337A      6.091969  
     338A      6.107674   339A      6.147067   340A      6.197980  
     341A      6.229317   342A      6.287797   343A      6.312383  
     344A      6.377754   345A      6.390354   346A      6.470116  
     347A      6.499140   348A      6.522381   349A      6.558058  
     350A      6.619569   351A      6.690117   352A      6.699784  
     353A      6.730640   354A      6.778751   355A      6.820587  
     356A      6.840415   357A      6.859514   358A      6.896491  
     359A      6.929090   360A      6.939431   361A      6.948180  
     362A      6.982428   363A      7.031775   364A      7.057819  
     365A      7.084646   366A      7.100670   367A      7.106116  
     368A      7.141595   369A      7.162935   370A      7.258710  
     371A      7.293370   372A      7.315012   373A      7.329354  
     374A      7.355167   375A      7.400780   376A      7.427919  
     377A      7.526476   378A      7.541398   379A      7.635686  
     380A      7.713494   381A      7.731746   382A      7.761910  
     383A      7.788352   384A      7.889504   385A      7.904723  
     386A      7.909762   387A      7.922040   388A      7.977453  
     389A      7.998383   390A      8.030027   391A      8.051319  
     392A      8.082980   393A      8.127148   394A      8.173406  
     395A      8.191524   396A      8.340332   397A      8.373099  
     398A      8.405456   399A      8.446813   400A      8.503766  
     401A      8.520978   402A      8.600664   403A      8.604274  
     404A      8.688589   405A      8.694708   406A      8.748151  
     407A      8.821714   408A      8.829014   409A      8.872792  
     410A      8.940564   411A      8.979799   412A      9.050317  
     413A      9.056727   414A      9.140818   415A      9.162249  
     416A      9.204762   417A      9.250208   418A      9.300251  
     419A      9.308796   420A      9.358855   421A      9.403281  
     422A      9.438399   423A      9.573392   424A      9.615696  
     425A      9.652571   426A      9.731849   427A      9.751005  
     428A      9.791941   429A      9.846246   430A      9.881273  
     431A      9.966102   432A     10.032827   433A     10.064199  
     434A     10.115519   435A     10.164764   436A     10.252023  
     437A     10.254775   438A     10.294212   439A     10.414926  
     440A     10.467161   441A     10.489861   442A     10.591311  
     443A     10.797527   444A     10.840890   445A     10.852331  
     446A     10.984330   447A     11.013109   448A     11.022212  
     449A     11.071922   450A     11.080549   451A     11.163065  
     452A     11.200942   453A     11.221034   454A     11.245634  
     455A     11.329415   456A     11.372537   457A     11.383156  
     458A     11.405006   459A     11.416867   460A     11.454571  
     461A     11.474379   462A     11.581392   463A     11.629275  
     464A     11.721390   465A     11.779459   466A     11.861412  
     467A     11.884534   468A     11.888999   469A     12.094279  
     470A     12.096824   471A     12.172233   472A     12.318693  
     473A     12.371787   474A     12.399646   475A     12.427697  
     476A     12.743117   477A     12.786165   478A     12.883246  
     479A     12.888142   480A     12.945853   481A     13.030290  
     482A     13.142908   483A     13.228993   484A     13.250760  
     485A     13.319737   486A     13.337193   487A     13.371386  
     488A     13.446362   489A     13.539316   490A     13.609169  
     491A     13.862331   492A     14.143036   493A     14.153237  
     494A     14.303304   495A     14.539033   496A     14.729990  
     497A     14.870349   498A     15.023545   499A     15.109109  
     500A     17.227447   501A     26.434935   502A     29.114682  
     503A     43.940599   504A     45.560318  

    Final Occupation by Irrep:
              A 
    DOCC [    16 ]

  @DF-RHF Final Energy:  -227.91989099035365

   => Energetics <=

    Nuclear Repulsion Energy =            121.2268055385038394
    One-Electron Energy =                -551.9070166207492321
    Two-Electron Energy =                 202.7603200918917139
    Total Energy =                       -227.9198909903536503

Computation Completed


Properties will be evaluated at   0.000000,   0.000000,   0.000000 [a0]

Properties computed using the SCF density matrix

  Nuclear Dipole Moment: [e a0]
     X:    -3.7628      Y:    18.9962      Z:   147.9537

  Electronic Dipole Moment: [e a0]
     X:     4.0695      Y:   -19.6901      Z:  -147.6964

  Dipole Moment: [e a0]
     X:     0.3067      Y:    -0.6938      Z:     0.2573     Total:     0.8010

  Dipole Moment: [D]
     X:     0.7795      Y:    -1.7635      Z:     0.6540     Total:     2.0360


*** tstop() called on node73.bme.utexas.edu at Sat Apr 11 12:42:10 2020
Module time:
	user time   =      56.38 seconds =       0.94 minutes
	system time =       1.85 seconds =       0.03 minutes
	total time  =         11 seconds =       0.18 minutes
Total time:
	user time   =      84.19 seconds =       1.40 minutes
	system time =       3.27 seconds =       0.05 minutes
	total time  =         17 seconds =       0.28 minutes

*** tstart() called on node73.bme.utexas.edu
*** at Sat Apr 11 12:42:10 2020


  //>>>>>>>>>>>>>>>>>>>>>>>>>>>>>>>>>>>//
  //               DFMP2               //
  //<<<<<<<<<<<<<<<<<<<<<<<<<<<<<<<<<<<//

   => Loading Basis Set <=

    Name: (AUG-CC-PVQZ AUX)
    Role: RIFIT
    Keyword: DF_BASIS_MP2
    atoms 1, 5   entry C          line   184 file /home/liuchw/anaconda3/envs/psi4env/share/psi4/basis/aug-cc-pvqz-ri.gbs 
    atoms 2-3    entry O          line   332 file /home/liuchw/anaconda3/envs/psi4env/share/psi4/basis/aug-cc-pvqz-ri.gbs 
    atoms 4, 6-8 entry H          line    30 file /home/liuchw/anaconda3/envs/psi4env/share/psi4/basis/aug-cc-pvqz-ri.gbs 

	 --------------------------------------------------------
	                          DF-MP2                         
	      2nd-Order Density-Fitted Moller-Plesset Theory     
	              RMP2 Wavefunction,   6 Threads             
	                                                         
	        Rob Parrish, Justin Turney, Andy Simmonett,      
	           Ed Hohenstein, and C. David Sherrill          
	 --------------------------------------------------------

   => Auxiliary Basis Set <=

  Basis Set: (AUG-CC-PVQZ AUX)
    Blend: AUG-CC-PVQZ-RI
    Number of shells: 224
    Number of basis function: 992
    Number of Cartesian functions: 1368
    Spherical Harmonics?: true
    Max angular momentum: 5

	 --------------------------------------------------------
	                 NBF =   504, NAUX =   992
	 --------------------------------------------------------
	   CLASS    FOCC     OCC    AOCC    AVIR     VIR    FVIR
	   PAIRS       0      16      16     488     488       0
	 --------------------------------------------------------

	-----------------------------------------------------------
	 ==================> DF-MP2 Energies <==================== 
	-----------------------------------------------------------
	 Reference Energy          =    -227.9198909903536503 [Eh]
	 Singles Energy            =      -0.0000000000000000 [Eh]
	 Same-Spin Energy          =      -0.2283764665261407 [Eh]
	 Opposite-Spin Energy      =      -0.7580935719530584 [Eh]
	 Correlation Energy        =      -0.9864700384791991 [Eh]
	 Total Energy              =    -228.9063610288328618 [Eh]
	-----------------------------------------------------------
	 ================> DF-SCS-MP2 Energies <================== 
	-----------------------------------------------------------
	 SCS Same-Spin Scale       =       0.3333333333333333 [-]
	 SCS Opposite-Spin Scale   =       1.2000000000000000 [-]
	 SCS Same-Spin Energy      =      -0.0761254888420469 [Eh]
	 SCS Opposite-Spin Energy  =      -0.9097122863436700 [Eh]
	 SCS Correlation Energy    =      -0.9858377751857169 [Eh]
	 SCS Total Energy          =    -228.9057287655393793 [Eh]
	-----------------------------------------------------------


*** tstop() called on node73.bme.utexas.edu at Sat Apr 11 12:42:16 2020
Module time:
	user time   =      25.36 seconds =       0.42 minutes
	system time =       0.80 seconds =       0.01 minutes
	total time  =          6 seconds =       0.10 minutes
Total time:
	user time   =     109.56 seconds =       1.83 minutes
	system time =       4.07 seconds =       0.07 minutes
	total time  =         23 seconds =       0.38 minutes

  //>>>>>>>>>>>>>>>>>>>>>>>>>>>>>>>>>>>//
  //  CBS Results: mp2/aug-cc-pv[tq]z  //
  //<<<<<<<<<<<<<<<<<<<<<<<<<<<<<<<<<<<//


   ==> HF <==

   HI-zeta (4) Energy:               -227.919890990354


   ==> Helgaker 2-point correlated extrapolation for method: MP2 <==

   LO-zeta (3) Energy:               -228.789326091329
   HI-zeta (4) Energy:               -228.906361028833
   Alpha (exponent) Value:             3.000000000000
   Extrapolated Energy:              -228.991764902147

   @Extrapolated MP2/(T,Q):          -228.991764902147



   ==> Helgaker 2-point correlated extrapolation for method: HF <==

   LO-zeta (3) Energy:               -227.905165168277
   HI-zeta (4) Energy:               -227.919890990354
   Alpha (exponent) Value:             3.000000000000
   Extrapolated Energy:              -227.930636860518

   @Extrapolated HF/(T,Q):           -227.930636860518


   ==> Components <==

  ---------------------------------------------------------------------------------------------------------
                          Method / Basis                      Rqd      Energy [Eh]   Variable
  ---------------------------------------------------------------------------------------------------------
                              hf / aug-cc-pvtz                  *    -227.90516517   HF TOTAL ENERGY
                             mp2 / aug-cc-pvtz                  *    -228.78932609   MP2 TOTAL ENERGY
                              hf / aug-cc-pvqz                  *    -227.91989099   HF TOTAL ENERGY
                             mp2 / aug-cc-pvqz                  *    -228.90636103   MP2 TOTAL ENERGY
  ---------------------------------------------------------------------------------------------------------

   ==> Stages <==

  ---------------------------------------------------------------------------------------------------------
      Stage               Method / Basis                       Wt      Energy [Eh]   Scheme
  ---------------------------------------------------------------------------------------------------------
        scf                   hf / aug-cc-pvqz                  1    -227.91989099   xtpl_highest_1
       corl                  mp2 / aug-cc-pv[tq]z               1    -228.99176490   corl_xtpl_helgaker_2
       corl                   hf / aug-cc-pv[tq]z              -1    -227.93063686   corl_xtpl_helgaker_2
  ---------------------------------------------------------------------------------------------------------

   ==> CBS <==

  ---------------------------------------------------------------------------------------------------------
      Stage               Method / Basis                               Energy [Eh]   Scheme
  ---------------------------------------------------------------------------------------------------------
        scf                   hf / aug-cc-pvqz                       -227.91989099   xtpl_highest_1
       corl                  mp2 / aug-cc-pv[tq]z                      -1.06112804   corl_xtpl_helgaker_2
      total                  CBS                                     -228.98101903   
  ---------------------------------------------------------------------------------------------------------
   => Loading Basis Set <=

    Name: DEF2-SVP
    Role: ORBITAL
    Keyword: BASIS
    atoms 1, 5   entry C          line    90 file /home/liuchw/anaconda3/envs/psi4env/share/psi4/basis/def2-svp.gbs 
    atoms 2-3    entry O          line   130 file /home/liuchw/anaconda3/envs/psi4env/share/psi4/basis/def2-svp.gbs 
    atoms 4, 6-8 entry H          line    15 file /home/liuchw/anaconda3/envs/psi4env/share/psi4/basis/def2-svp.gbs 


       N-Body: Complex Energy (fragments = (2,), basis = (2,):  -228.98101903198241)

       N-Body: Computing complex (2/4) with fragments (2,) in the basis of fragments (1, 2).


Scratch directory: /scratch//

  //>>>>>>>>>>>>>>>>>>>>>>>>>>>>>>>>>>>//
  //   CBS Setup: mp2/aug-cc-pv[tq]z   //
  //<<<<<<<<<<<<<<<<<<<<<<<<<<<<<<<<<<<//

    Naive listing of computations required.
             hf / aug-cc-pvqz              for  HF TOTAL ENERGY
            mp2 / aug-cc-pvtz              for  MP2 TOTAL ENERGY
            mp2 / aug-cc-pvqz              for  MP2 TOTAL ENERGY
             hf / aug-cc-pvtz              for  HF TOTAL ENERGY
             hf / aug-cc-pvqz              for  HF TOTAL ENERGY

    Enlightened listing of computations required.
            mp2 / aug-cc-pvtz              for  MP2 TOTAL ENERGY
            mp2 / aug-cc-pvqz              for  MP2 TOTAL ENERGY

    Full listing of computations to be obtained (required and bonus).
             hf / aug-cc-pvtz              for  HF TOTAL ENERGY
            mp2 / aug-cc-pvtz              for  MP2 TOTAL ENERGY
             hf / aug-cc-pvqz              for  HF TOTAL ENERGY
            mp2 / aug-cc-pvqz              for  MP2 TOTAL ENERGY

  //>>>>>>>>>>>>>>>>>>>>>>>>>>>>>>>>>>>>//
  // CBS Computation: MP2 / AUG-CC-PVTZ //
  //<<<<<<<<<<<<<<<<<<<<<<<<<<<<<<<<<<<<//


Scratch directory: /scratch//

*** tstart() called on node73.bme.utexas.edu
*** at Sat Apr 11 12:42:17 2020

   => Loading Basis Set <=

    Name: AUG-CC-PVTZ
    Role: ORBITAL
    Keyword: BASIS
    atoms 1, 3, 5, 7, 9, 11, 13, 17     entry C          line   239 file /home/liuchw/anaconda3/envs/psi4env/share/psi4/basis/aug-cc-pvtz.gbs 
    atoms 2, 4, 6, 8, 10, 12, 16, 18-20 entry H          line    40 file /home/liuchw/anaconda3/envs/psi4env/share/psi4/basis/aug-cc-pvtz.gbs 
    atoms 14-15                         entry O          line   331 file /home/liuchw/anaconda3/envs/psi4env/share/psi4/basis/aug-cc-pvtz.gbs 


         ---------------------------------------------------------
                                   SCF
               by Justin Turney, Rob Parrish, Andy Simmonett
                          and Daniel G. A. Smith
                              RHF Reference
                        6 Threads,  38146 MiB Core
         ---------------------------------------------------------

  ==> Geometry <==

    Molecular point group: c1
    Full point group: C1

    Geometry (in Angstrom), charge = 0, multiplicity = 1:

       Center              X                  Y                   Z               Mass       
    ------------   -----------------  -----------------  -----------------  -----------------
      Gh(C)           0.955288232592     0.801585401164    -1.762969326601    12.000000000000
      Gh(H)           1.651038232592     1.626423401164    -1.694941326601     1.007825032230
      Gh(C)           1.422265232592    -0.486640598836    -2.021991326601    12.000000000000
      Gh(H)           2.480733232592    -0.660716598836    -2.157996326601     1.007825032230
      Gh(C)           0.525336232592    -1.551146598836    -2.098565326601    12.000000000000
      Gh(H)           0.888169232592    -2.550895598836    -2.292995326601     1.007825032230
      Gh(C)          -0.839118767408    -1.327111598836    -1.920127326601    12.000000000000
      Gh(H)          -1.534551767408    -2.153131598836    -1.976866326601     1.007825032230
      Gh(C)          -1.306378767408    -0.039094598836    -1.660740326601    12.000000000000
      Gh(H)          -2.363187767408     0.134508401164    -1.512422326601     1.007825032230
      Gh(C)          -0.409236767408     1.026271401164    -1.579382326601    12.000000000000
      Gh(H)          -0.769246767408     2.020261401164    -1.356226326601     1.007825032230
         C           -0.117434767408     0.438289401164     2.370879673399    12.000000000000
         O           -0.585624767408     1.487736401164     1.991619673399    15.994914619570
         O            0.285777232592    -0.539273598836     1.531594673399    15.994914619570
         H            0.117073232592    -0.213359598836     0.630189673399     1.007825032230
         C            0.092519232592     0.041302401164     3.802285673399    12.000000000000
         H           -0.217446767408     0.850639401164     4.452274673399     1.007825032230
         H           -0.483561767408    -0.855321598836     4.019236673399     1.007825032230
         H            1.141017232592    -0.194829598836     3.967304673399     1.007825032230

  Running in c1 symmetry.

  Rotational constants: A =      0.07936  B =      0.02185  C =      0.02097 [cm^-1]
  Rotational constants: A =   2379.18439  B =    654.95330  C =    628.62380 [MHz]
  Nuclear repulsion =  121.226805538503839

  Charge       = 0
  Multiplicity = 1
  Electrons    = 32
  Nalpha       = 16
  Nbeta        = 16

  ==> Algorithm <==

  SCF Algorithm Type is DF.
  DIIS enabled.
  MOM disabled.
  Fractional occupation disabled.
  Guess Type is SAD.
  Energy threshold   = 1.00e-07
  Density threshold  = 1.00e-08
  Integral threshold = 0.00e+00

  ==> Primary Basis <==

  Basis Set: AUG-CC-PVTZ
    Blend: AUG-CC-PVTZ
    Number of shells: 230
    Number of basis function: 690
    Number of Cartesian functions: 800
    Spherical Harmonics?: true
    Max angular momentum: 3

   => Loading Basis Set <=

    Name: (AUG-CC-PVTZ AUX)
    Role: JKFIT
    Keyword: DF_BASIS_SCF
    atoms 1, 3, 5, 7, 9, 11, 13, 17     entry C          line   162 file /home/liuchw/anaconda3/envs/psi4env/share/psi4/basis/aug-cc-pvtz-jkfit.gbs 
    atoms 2, 4, 6, 8, 10, 12, 16, 18-20 entry H          line    70 file /home/liuchw/anaconda3/envs/psi4env/share/psi4/basis/aug-cc-pvtz-jkfit.gbs 
    atoms 14-15                         entry O          line   286 file /home/liuchw/anaconda3/envs/psi4env/share/psi4/basis/aug-cc-pvtz-jkfit.gbs 

  ==> Pre-Iterations <==

   -------------------------------------------------------
    Irrep   Nso     Nmo     Nalpha   Nbeta   Ndocc  Nsocc
   -------------------------------------------------------
     A        690     690       0       0       0       0
   -------------------------------------------------------
    Total     690     690      16      16      16       0
   -------------------------------------------------------

  ==> Integral Setup <==

  DFHelper Memory: AOs need 4.988 GiB; user supplied 27.940 GiB. Using in-core AOs.

  ==> MemDFJK: Density-Fitted J/K Matrices <==

    J tasked:                   Yes
    K tasked:                   Yes
    wK tasked:                   No
    OpenMP threads:               6
    Memory [MiB]:             28610
    Algorithm:                 Core
    Schwarz Cutoff:           1E-12
    Mask sparsity (%):       8.7771
    Fitting Condition:        1E-10

   => Auxiliary Basis Set <=

  Basis Set: (AUG-CC-PVTZ AUX)
    Blend: AUG-CC-PVTZ-JKFIT
    Number of shells: 440
    Number of basis function: 1500
    Number of Cartesian functions: 1860
    Spherical Harmonics?: true
    Max angular momentum: 4

  Minimum eigenvalue in the overlap matrix is 2.8291605025E-07.
  Using Symmetric Orthogonalization.

  SCF Guess: Superposition of Atomic Densities via on-the-fly atomic UHF.

  ==> Iterations <==

                           Total Energy        Delta E     RMS |[F,P]|

   @DF-RHF iter SAD:  -226.99634946656704   -2.26996e+02   0.00000e+00 
   @DF-RHF iter   1:  -227.74416607436245   -7.47817e-01   8.73338e-04 DIIS
   @DF-RHF iter   2:  -227.86144353734807   -1.17277e-01   5.24485e-04 DIIS
   @DF-RHF iter   3:  -227.90260991991707   -4.11664e-02   8.58798e-05 DIIS
   @DF-RHF iter   4:  -227.90479858771826   -2.18867e-03   3.94127e-05 DIIS
   @DF-RHF iter   5:  -227.90527765974736   -4.79072e-04   9.57737e-06 DIIS
   @DF-RHF iter   6:  -227.90531816455052   -4.05048e-05   4.69738e-06 DIIS
   @DF-RHF iter   7:  -227.90532848719974   -1.03226e-05   1.53249e-06 DIIS
   @DF-RHF iter   8:  -227.90533024541466   -1.75821e-06   3.97115e-07 DIIS
   @DF-RHF iter   9:  -227.90533037816823   -1.32754e-07   8.32949e-08 DIIS
   @DF-RHF iter  10:  -227.90533038286259   -4.69436e-09   2.38144e-08 DIIS
   @DF-RHF iter  11:  -227.90533038309400   -2.31410e-10   6.77207e-09 DIIS
  Energy and wave function converged.


  ==> Post-Iterations <==

    Orbital Energies [Eh]
    ---------------------

    Doubly Occupied:                                                      

       1A    -20.617785     2A    -20.551974     3A    -11.390875  
       4A    -11.245416     5A     -1.467685     6A     -1.363025  
       7A     -1.029761     8A     -0.825869     9A     -0.707939  
      10A     -0.682259    11A     -0.653227    12A     -0.585871  
      13A     -0.574919    14A     -0.563668    15A     -0.485161  
      16A     -0.456663  

    Virtual:                                                              

      17A      0.017334    18A      0.030686    19A      0.030858  
      20A      0.034664    21A      0.048731    22A      0.049359  
      23A      0.050234    24A      0.053170    25A      0.061470  
      26A      0.067235    27A      0.068736    28A      0.088101  
      29A      0.093493    30A      0.094372    31A      0.098889  
      32A      0.099722    33A      0.112255    34A      0.118825  
      35A      0.120817    36A      0.124072    37A      0.125543  
      38A      0.129540    39A      0.135506    40A      0.138383  
      41A      0.140822    42A      0.142194    43A      0.144294  
      44A      0.147898    45A      0.154537    46A      0.159490  
      47A      0.160167    48A      0.161915    49A      0.164662  
      50A      0.168382    51A      0.182695    52A      0.189688  
      53A      0.191265    54A      0.193003    55A      0.198163  
      56A      0.201619    57A      0.211723    58A      0.224213  
      59A      0.233301    60A      0.235385    61A      0.236731  
      62A      0.241897    63A      0.250498    64A      0.261655  
      65A      0.263346    66A      0.264835    67A      0.268069  
      68A      0.283632    69A      0.287192    70A      0.288326  
      71A      0.300147    72A      0.305954    73A      0.314076  
      74A      0.316598    75A      0.317676    76A      0.322741  
      77A      0.326695    78A      0.328265    79A      0.335122  
      80A      0.337877    81A      0.341649    82A      0.347173  
      83A      0.349106    84A      0.350638    85A      0.359115  
      86A      0.361828    87A      0.366918    88A      0.367680  
      89A      0.371872    90A      0.386108    91A      0.388970  
      92A      0.393299    93A      0.394123    94A      0.397557  
      95A      0.404867    96A      0.408232    97A      0.416639  
      98A      0.418764    99A      0.425266   100A      0.428919  
     101A      0.430218   102A      0.431605   103A      0.437611  
     104A      0.440604   105A      0.452608   106A      0.458792  
     107A      0.460793   108A      0.463009   109A      0.472805  
     110A      0.473848   111A      0.475857   112A      0.475968  
     113A      0.491463   114A      0.494532   115A      0.505191  
     116A      0.507249   117A      0.508924   118A      0.515257  
     119A      0.521503   120A      0.527601   121A      0.536839  
     122A      0.543613   123A      0.546956   124A      0.554993  
     125A      0.559622   126A      0.571577   127A      0.572571  
     128A      0.573636   129A      0.579980   130A      0.589018  
     131A      0.593044   132A      0.598609   133A      0.601790  
     134A      0.614123   135A      0.617434   136A      0.618654  
     137A      0.633627   138A      0.639383   139A      0.642315  
     140A      0.643476   141A      0.661765   142A      0.663227  
     143A      0.666343   144A      0.674807   145A      0.678828  
     146A      0.680123   147A      0.688054   148A      0.699438  
     149A      0.704126   150A      0.706125   151A      0.707613  
     152A      0.711953   153A      0.726477   154A      0.738927  
     155A      0.739411   156A      0.744553   157A      0.746636  
     158A      0.750430   159A      0.753989   160A      0.754593  
     161A      0.761223   162A      0.765310   163A      0.769906  
     164A      0.777796   165A      0.793336   166A      0.800728  
     167A      0.805908   168A      0.809916   169A      0.816210  
     170A      0.820197   171A      0.825244   172A      0.833728  
     173A      0.840726   174A      0.851854   175A      0.862021  
     176A      0.872332   177A      0.881256   178A      0.883236  
     179A      0.886698   180A      0.887129   181A      0.901073  
     182A      0.903840   183A      0.916522   184A      0.917897  
     185A      0.922373   186A      0.931574   187A      0.938345  
     188A      0.947549   189A      0.955773   190A      0.964799  
     191A      0.981610   192A      0.985704   193A      0.993642  
     194A      1.011869   195A      1.016877   196A      1.021553  
     197A      1.028174   198A      1.033622   199A      1.035205  
     200A      1.038897   201A      1.045001   202A      1.055747  
     203A      1.069765   204A      1.070339   205A      1.071772  
     206A      1.079794   207A      1.082286   208A      1.091141  
     209A      1.101831   210A      1.103044   211A      1.115645  
     212A      1.118183   213A      1.128173   214A      1.134582  
     215A      1.136239   216A      1.141212   217A      1.145267  
     218A      1.156309   219A      1.161429   220A      1.173639  
     221A      1.176355   222A      1.179783   223A      1.181596  
     224A      1.186794   225A      1.200755   226A      1.204161  
     227A      1.207520   228A      1.208838   229A      1.222502  
     230A      1.227776   231A      1.236462   232A      1.242522  
     233A      1.247129   234A      1.252741   235A      1.254958  
     236A      1.260153   237A      1.263927   238A      1.273018  
     239A      1.278891   240A      1.282799   241A      1.285786  
     242A      1.291039   243A      1.300511   244A      1.306768  
     245A      1.307935   246A      1.309101   247A      1.315076  
     248A      1.319958   249A      1.323454   250A      1.324812  
     251A      1.331709   252A      1.335827   253A      1.343725  
     254A      1.350622   255A      1.354898   256A      1.369130  
     257A      1.381858   258A      1.393083   259A      1.394695  
     260A      1.414639   261A      1.417977   262A      1.429129  
     263A      1.435806   264A      1.437721   265A      1.447219  
     266A      1.462831   267A      1.466957   268A      1.483711  
     269A      1.489027   270A      1.493816   271A      1.497026  
     272A      1.529033   273A      1.533495   274A      1.539305  
     275A      1.544035   276A      1.550186   277A      1.553265  
     278A      1.561533   279A      1.569801   280A      1.575645  
     281A      1.580487   282A      1.586987   283A      1.589597  
     284A      1.603644   285A      1.613931   286A      1.618840  
     287A      1.623317   288A      1.631082   289A      1.634916  
     290A      1.639585   291A      1.645230   292A      1.649316  
     293A      1.653188   294A      1.663912   295A      1.669263  
     296A      1.673146   297A      1.674571   298A      1.683933  
     299A      1.693652   300A      1.702386   301A      1.717502  
     302A      1.726427   303A      1.733457   304A      1.736267  
     305A      1.759238   306A      1.768891   307A      1.784433  
     308A      1.786567   309A      1.807312   310A      1.818492  
     311A      1.828428   312A      1.838323   313A      1.844968  
     314A      1.851312   315A      1.863024   316A      1.881896  
     317A      1.890559   318A      1.893910   319A      1.903458  
     320A      1.905000   321A      1.916827   322A      1.924143  
     323A      1.934283   324A      1.959178   325A      1.972281  
     326A      1.979695   327A      2.007595   328A      2.009811  
     329A      2.020448   330A      2.025008   331A      2.036608  
     332A      2.055844   333A      2.086755   334A      2.098984  
     335A      2.109501   336A      2.134210   337A      2.138080  
     338A      2.153063   339A      2.156916   340A      2.161139  
     341A      2.174191   342A      2.176307   343A      2.187851  
     344A      2.193019   345A      2.203264   346A      2.203354  
     347A      2.213048   348A      2.221351   349A      2.231004  
     350A      2.250841   351A      2.257862   352A      2.271468  
     353A      2.273398   354A      2.277890   355A      2.316024  
     356A      2.321933   357A      2.327190   358A      2.337356  
     359A      2.346344   360A      2.347905   361A      2.352802  
     362A      2.360982   363A      2.373057   364A      2.379454  
     365A      2.383576   366A      2.391937   367A      2.405224  
     368A      2.420007   369A      2.440436   370A      2.460594  
     371A      2.477859   372A      2.482818   373A      2.488727  
     374A      2.505209   375A      2.507234   376A      2.510319  
     377A      2.520141   378A      2.525437   379A      2.535835  
     380A      2.538781   381A      2.541551   382A      2.548134  
     383A      2.556541   384A      2.574108   385A      2.585305  
     386A      2.596127   387A      2.618244   388A      2.622992  
     389A      2.628233   390A      2.638954   391A      2.660614  
     392A      2.665428   393A      2.683067   394A      2.694687  
     395A      2.709435   396A      2.753364   397A      2.755844  
     398A      2.768408   399A      2.780656   400A      2.791417  
     401A      2.796512   402A      2.829013   403A      2.833843  
     404A      2.853409   405A      2.881239   406A      2.883007  
     407A      2.887684   408A      2.894832   409A      2.921943  
     410A      2.924521   411A      2.934826   412A      2.965888  
     413A      2.977950   414A      3.000694   415A      3.035866  
     416A      3.038164   417A      3.096176   418A      3.109609  
     419A      3.129384   420A      3.135156   421A      3.145309  
     422A      3.180428   423A      3.207673   424A      3.283195  
     425A      3.283953   426A      3.296663   427A      3.300755  
     428A      3.337046   429A      3.374683   430A      3.426096  
     431A      3.481524   432A      3.492087   433A      3.498444  
     434A      3.511319   435A      3.581319   436A      3.585807  
     437A      3.599895   438A      3.618476   439A      3.621109  
     440A      3.662336   441A      3.680852   442A      3.758839  
     443A      3.781255   444A      3.836203   445A      3.837735  
     446A      3.846582   447A      3.864701   448A      3.886115  
     449A      3.908726   450A      3.911808   451A      3.931329  
     452A      3.942204   453A      3.943611   454A      3.966687  
     455A      3.991991   456A      3.996441   457A      4.014007  
     458A      4.030526   459A      4.034516   460A      4.049570  
     461A      4.052542   462A      4.066362   463A      4.076542  
     464A      4.086682   465A      4.104167   466A      4.109289  
     467A      4.126752   468A      4.132964   469A      4.141811  
     470A      4.143717   471A      4.154318   472A      4.163714  
     473A      4.180614   474A      4.183136   475A      4.186630  
     476A      4.201596   477A      4.203241   478A      4.218725  
     479A      4.222919   480A      4.234694   481A      4.263020  
     482A      4.290210   483A      4.294744   484A      4.299031  
     485A      4.305322   486A      4.320866   487A      4.324595  
     488A      4.354643   489A      4.365265   490A      4.388948  
     491A      4.392118   492A      4.409859   493A      4.415481  
     494A      4.444136   495A      4.477098   496A      4.488302  
     497A      4.495051   498A      4.509114   499A      4.510628  
     500A      4.523674   501A      4.548290   502A      4.558750  
     503A      4.560871   504A      4.568717   505A      4.571154  
     506A      4.572661   507A      4.593284   508A      4.605657  
     509A      4.613114   510A      4.621350   511A      4.623933  
     512A      4.641536   513A      4.670625   514A      4.674087  
     515A      4.707331   516A      4.711174   517A      4.722061  
     518A      4.722872   519A      4.733716   520A      4.783828  
     521A      4.791049   522A      4.804821   523A      4.820236  
     524A      4.833783   525A      4.838485   526A      4.874092  
     527A      4.888769   528A      4.896791   529A      4.927190  
     530A      4.931060   531A      4.974054   532A      4.991765  
     533A      4.994944   534A      5.001306   535A      5.003803  
     536A      5.004408   537A      5.059454   538A      5.064279  
     539A      5.065449   540A      5.070379   541A      5.086053  
     542A      5.106013   543A      5.107284   544A      5.116345  
     545A      5.135049   546A      5.144900   547A      5.153800  
     548A      5.170943   549A      5.176937   550A      5.181691  
     551A      5.209953   552A      5.213090   553A      5.218454  
     554A      5.226889   555A      5.269479   556A      5.275668  
     557A      5.280137   558A      5.326949   559A      5.354579  
     560A      5.369191   561A      5.399939   562A      5.414904  
     563A      5.437701   564A      5.440998   565A      5.446649  
     566A      5.456230   567A      5.491259   568A      5.496853  
     569A      5.499990   570A      5.521788   571A      5.524318  
     572A      5.539129   573A      5.601409   574A      5.626167  
     575A      5.632164   576A      5.645315   577A      5.667763  
     578A      5.691292   579A      5.693432   580A      5.704325  
     581A      5.715602   582A      5.726140   583A      5.732203  
     584A      5.738794   585A      5.748924   586A      5.782837  
     587A      5.793205   588A      5.795597   589A      5.801620  
     590A      5.810122   591A      5.844779   592A      5.959702  
     593A      5.963433   594A      5.974944   595A      5.988018  
     596A      6.004915   597A      6.008046   598A      6.014244  
     599A      6.067011   600A      6.113201   601A      6.123734  
     602A      6.129881   603A      6.136724   604A      6.162304  
     605A      6.188215   606A      6.192372   607A      6.193281  
     608A      6.210682   609A      6.223928   610A      6.408675  
     611A      6.432339   612A      6.439244   613A      6.460599  
     614A      6.513582   615A      6.521411   616A      6.610809  
     617A      6.668640   618A      6.690414   619A      6.705063  
     620A      6.721678   621A      6.761089   622A      6.798701  
     623A      6.820600   624A      6.858488   625A      6.885970  
     626A      6.903935   627A      6.908038   628A      6.922516  
     629A      7.033909   630A      7.064295   631A      7.073591  
     632A      7.082391   633A      7.147322   634A      7.154901  
     635A      7.175162   636A      7.192198   637A      7.217552  
     638A      7.241459   639A      7.326368   640A      7.346959  
     641A      7.363192   642A      7.389953   643A      7.394323  
     644A      7.431341   645A      7.474850   646A      7.490405  
     647A      7.496467   648A      7.558003   649A      7.575654  
     650A      7.600183   651A      7.657624   652A      7.665606  
     653A      7.676442   654A      7.759810   655A      7.776646  
     656A      7.786120   657A      7.882210   658A      7.893260  
     659A      7.985543   660A      8.060149   661A      8.087317  
     662A      8.191261   663A      8.195328   664A      8.204741  
     665A      8.289881   666A      8.323965   667A      8.334246  
     668A      8.562057   669A      8.964250   670A      8.977992  
     671A      9.358257   672A      9.421518   673A      9.452009  
     674A     10.041448   675A     10.048648   676A     10.975646  
     677A     11.030559   678A     11.357763   679A     11.372955  
     680A     11.542392   681A     15.571787   682A     16.095331  
     683A     17.709641   684A     19.667058   685A     49.713778  
     686A     49.761917   687A     55.336596   688A     55.653391  
     689A     56.243955   690A     56.600851  

    Final Occupation by Irrep:
              A 
    DOCC [    16 ]

  @DF-RHF Final Energy:  -227.90533038309400

   => Energetics <=

    Nuclear Repulsion Energy =            121.2268055385038394
    One-Electron Energy =                -551.8600682856864523
    Two-Electron Energy =                 202.7279323640885877
    Total Energy =                       -227.9053303830939967

Computation Completed


Properties will be evaluated at   0.000000,   0.000000,   0.000000 [a0]

Properties computed using the SCF density matrix

  Nuclear Dipole Moment: [e a0]
     X:    -3.7628      Y:    18.9962      Z:   147.9537

  Electronic Dipole Moment: [e a0]
     X:     4.0697      Y:   -19.6904      Z:  -147.6960

  Dipole Moment: [e a0]
     X:     0.3069      Y:    -0.6942      Z:     0.2576     Total:     0.8015

  Dipole Moment: [D]
     X:     0.7800      Y:    -1.7644      Z:     0.6549     Total:     2.0373


*** tstop() called on node73.bme.utexas.edu at Sat Apr 11 12:42:48 2020
Module time:
	user time   =     165.46 seconds =       2.76 minutes
	system time =       3.66 seconds =       0.06 minutes
	total time  =         31 seconds =       0.52 minutes
Total time:
	user time   =     277.47 seconds =       4.62 minutes
	system time =       7.81 seconds =       0.13 minutes
	total time  =         55 seconds =       0.92 minutes

*** tstart() called on node73.bme.utexas.edu
*** at Sat Apr 11 12:42:48 2020


  //>>>>>>>>>>>>>>>>>>>>>>>>>>>>>>>>>>>//
  //               DFMP2               //
  //<<<<<<<<<<<<<<<<<<<<<<<<<<<<<<<<<<<//

   => Loading Basis Set <=

    Name: (AUG-CC-PVTZ AUX)
    Role: RIFIT
    Keyword: DF_BASIS_MP2
    atoms 1, 3, 5, 7, 9, 11, 13, 17     entry C          line   148 file /home/liuchw/anaconda3/envs/psi4env/share/psi4/basis/aug-cc-pvtz-ri.gbs 
    atoms 2, 4, 6, 8, 10, 12, 16, 18-20 entry H          line    30 file /home/liuchw/anaconda3/envs/psi4env/share/psi4/basis/aug-cc-pvtz-ri.gbs 
    atoms 14-15                         entry O          line   264 file /home/liuchw/anaconda3/envs/psi4env/share/psi4/basis/aug-cc-pvtz-ri.gbs 

	 --------------------------------------------------------
	                          DF-MP2                         
	      2nd-Order Density-Fitted Moller-Plesset Theory     
	              RMP2 Wavefunction,   6 Threads             
	                                                         
	        Rob Parrish, Justin Turney, Andy Simmonett,      
	           Ed Hohenstein, and C. David Sherrill          
	 --------------------------------------------------------

   => Auxiliary Basis Set <=

  Basis Set: (AUG-CC-PVTZ AUX)
    Blend: AUG-CC-PVTZ-RI
    Number of shells: 420
    Number of basis function: 1520
    Number of Cartesian functions: 1910
    Spherical Harmonics?: true
    Max angular momentum: 4

	 --------------------------------------------------------
	                 NBF =   690, NAUX =  1520
	 --------------------------------------------------------
	   CLASS    FOCC     OCC    AOCC    AVIR     VIR    FVIR
	   PAIRS       0      16      16     674     674       0
	 --------------------------------------------------------

	-----------------------------------------------------------
	 ==================> DF-MP2 Energies <==================== 
	-----------------------------------------------------------
	 Reference Energy          =    -227.9053303830939967 [Eh]
	 Singles Energy            =      -0.0000000000000000 [Eh]
	 Same-Spin Energy          =      -0.2150368987575796 [Eh]
	 Opposite-Spin Energy      =      -0.6706054685777657 [Eh]
	 Correlation Energy        =      -0.8856423673353453 [Eh]
	 Total Energy              =    -228.7909727504293471 [Eh]
	-----------------------------------------------------------
	 ================> DF-SCS-MP2 Energies <================== 
	-----------------------------------------------------------
	 SCS Same-Spin Scale       =       0.3333333333333333 [-]
	 SCS Opposite-Spin Scale   =       1.2000000000000000 [-]
	 SCS Same-Spin Energy      =      -0.0716789662525265 [Eh]
	 SCS Opposite-Spin Energy  =      -0.8047265622933188 [Eh]
	 SCS Correlation Energy    =      -0.8764055285458454 [Eh]
	 SCS Total Energy          =    -228.7817359116398279 [Eh]
	-----------------------------------------------------------


*** tstop() called on node73.bme.utexas.edu at Sat Apr 11 12:43:03 2020
Module time:
	user time   =      66.39 seconds =       1.11 minutes
	system time =       2.71 seconds =       0.05 minutes
	total time  =         15 seconds =       0.25 minutes
Total time:
	user time   =     343.87 seconds =       5.73 minutes
	system time =      10.52 seconds =       0.18 minutes
	total time  =         70 seconds =       1.17 minutes

  //>>>>>>>>>>>>>>>>>>>>>>>>>>>>>>>>>>>>//
  // CBS Computation: MP2 / AUG-CC-PVQZ //
  //<<<<<<<<<<<<<<<<<<<<<<<<<<<<<<<<<<<<//


Scratch directory: /scratch//

*** tstart() called on node73.bme.utexas.edu
*** at Sat Apr 11 12:43:03 2020

   => Loading Basis Set <=

    Name: AUG-CC-PVQZ
    Role: ORBITAL
    Keyword: BASIS
    atoms 1, 3, 5, 7, 9, 11, 13, 17     entry C          line   303 file /home/liuchw/anaconda3/envs/psi4env/share/psi4/basis/aug-cc-pvqz.gbs 
    atoms 2, 4, 6, 8, 10, 12, 16, 18-20 entry H          line    40 file /home/liuchw/anaconda3/envs/psi4env/share/psi4/basis/aug-cc-pvqz.gbs 
    atoms 14-15                         entry O          line   423 file /home/liuchw/anaconda3/envs/psi4env/share/psi4/basis/aug-cc-pvqz.gbs 


         ---------------------------------------------------------
                                   SCF
               by Justin Turney, Rob Parrish, Andy Simmonett
                          and Daniel G. A. Smith
                              RHF Reference
                        6 Threads,  38146 MiB Core
         ---------------------------------------------------------

  ==> Geometry <==

    Molecular point group: c1
    Full point group: C1

    Geometry (in Angstrom), charge = 0, multiplicity = 1:

       Center              X                  Y                   Z               Mass       
    ------------   -----------------  -----------------  -----------------  -----------------
      Gh(C)           0.955288232592     0.801585401164    -1.762969326601    12.000000000000
      Gh(H)           1.651038232592     1.626423401164    -1.694941326601     1.007825032230
      Gh(C)           1.422265232592    -0.486640598836    -2.021991326601    12.000000000000
      Gh(H)           2.480733232592    -0.660716598836    -2.157996326601     1.007825032230
      Gh(C)           0.525336232592    -1.551146598836    -2.098565326601    12.000000000000
      Gh(H)           0.888169232592    -2.550895598836    -2.292995326601     1.007825032230
      Gh(C)          -0.839118767408    -1.327111598836    -1.920127326601    12.000000000000
      Gh(H)          -1.534551767408    -2.153131598836    -1.976866326601     1.007825032230
      Gh(C)          -1.306378767408    -0.039094598836    -1.660740326601    12.000000000000
      Gh(H)          -2.363187767408     0.134508401164    -1.512422326601     1.007825032230
      Gh(C)          -0.409236767408     1.026271401164    -1.579382326601    12.000000000000
      Gh(H)          -0.769246767408     2.020261401164    -1.356226326601     1.007825032230
         C           -0.117434767408     0.438289401164     2.370879673399    12.000000000000
         O           -0.585624767408     1.487736401164     1.991619673399    15.994914619570
         O            0.285777232592    -0.539273598836     1.531594673399    15.994914619570
         H            0.117073232592    -0.213359598836     0.630189673399     1.007825032230
         C            0.092519232592     0.041302401164     3.802285673399    12.000000000000
         H           -0.217446767408     0.850639401164     4.452274673399     1.007825032230
         H           -0.483561767408    -0.855321598836     4.019236673399     1.007825032230
         H            1.141017232592    -0.194829598836     3.967304673399     1.007825032230

  Running in c1 symmetry.

  Rotational constants: A =      0.07936  B =      0.02185  C =      0.02097 [cm^-1]
  Rotational constants: A =   2379.18439  B =    654.95330  C =    628.62380 [MHz]
  Nuclear repulsion =  121.226805538503839

  Charge       = 0
  Multiplicity = 1
  Electrons    = 32
  Nalpha       = 16
  Nbeta        = 16

  ==> Algorithm <==

  SCF Algorithm Type is DF.
  DIIS enabled.
  MOM disabled.
  Fractional occupation disabled.
  Guess Type is SAD.
  Energy threshold   = 1.00e-07
  Density threshold  = 1.00e-08
  Integral threshold = 0.00e+00

  ==> Primary Basis <==

  Basis Set: AUG-CC-PVQZ
    Blend: AUG-CC-PVQZ
    Number of shells: 340
    Number of basis function: 1260
    Number of Cartesian functions: 1600
    Spherical Harmonics?: true
    Max angular momentum: 4

   => Loading Basis Set <=

[...]
     800A      5.018180   801A      5.027142   802A      5.030918  
     803A      5.049965   804A      5.057469   805A      5.071478  
     806A      5.098099   807A      5.109145   808A      5.123985  
     809A      5.124089   810A      5.145080   811A      5.161484  
     812A      5.163191   813A      5.171722   814A      5.198052  
     815A      5.229875   816A      5.250856   817A      5.273057  
     818A      5.317523   819A      5.365581   820A      5.406070  
     821A      5.418029   822A      5.419722   823A      5.422669  
     824A      5.433141   825A      5.441997   826A      5.478430  
     827A      5.513444   828A      5.532323   829A      5.599098  
     830A      5.614398   831A      5.616223   832A      5.638752  
     833A      5.654216   834A      5.668550   835A      5.679406  
     836A      5.687094   837A      5.725566   838A      5.739707  
     839A      5.761212   840A      5.837508   841A      5.872261  
     842A      5.892536   843A      5.898152   844A      5.907863  
     845A      5.951312   846A      5.961478   847A      5.970322  
     848A      5.992355   849A      5.999864   850A      6.004693  
     851A      6.034375   852A      6.064999   853A      6.067422  
     854A      6.089923   855A      6.111500   856A      6.144262  
     857A      6.150450   858A      6.180093   859A      6.194028  
     860A      6.229001   861A      6.243178   862A      6.254955  
     863A      6.268424   864A      6.270035   865A      6.281640  
     866A      6.291586   867A      6.313200   868A      6.332350  
     869A      6.344062   870A      6.353179   871A      6.371940  
     872A      6.378492   873A      6.381791   874A      6.407343  
     875A      6.408010   876A      6.425804   877A      6.436804  
     878A      6.446653   879A      6.458462   880A      6.466121  
     881A      6.475775   882A      6.479890   883A      6.489444  
     884A      6.518408   885A      6.519190   886A      6.533525  
     887A      6.538516   888A      6.550007   889A      6.560879  
     890A      6.583383   891A      6.626660   892A      6.634480  
     893A      6.654026   894A      6.665380   895A      6.672911  
     896A      6.684288   897A      6.692631   898A      6.703832  
     899A      6.715408   900A      6.722831   901A      6.738420  
     902A      6.754576   903A      6.756054   904A      6.779362  
     905A      6.784669   906A      6.794559   907A      6.799456  
     908A      6.814349   909A      6.829148   910A      6.837450  
     911A      6.846158   912A      6.862550   913A      6.873511  
     914A      6.882982   915A      6.893224   916A      6.896436  
     917A      6.903240   918A      6.907782   919A      6.924894  
     920A      6.942991   921A      6.950917   922A      6.952862  
     923A      6.956525   924A      6.962501   925A      6.964426  
     926A      6.973687   927A      6.986114   928A      6.990908  
     929A      6.999164   930A      7.007332   931A      7.031116  
     932A      7.039524   933A      7.060196   934A      7.071236  
     935A      7.088698   936A      7.092903   937A      7.097640  
     938A      7.107037   939A      7.117989   940A      7.121990  
     941A      7.131021   942A      7.143771   943A      7.150049  
     944A      7.153026   945A      7.154982   946A      7.163853  
     947A      7.175188   948A      7.187885   949A      7.188505  
     950A      7.208116   951A      7.216993   952A      7.223690  
     953A      7.233510   954A      7.245836   955A      7.250183  
     956A      7.262968   957A      7.268536   958A      7.283373  
     959A      7.290728   960A      7.293208   961A      7.309140  
     962A      7.311107   963A      7.321014   964A      7.332299  
     965A      7.379303   966A      7.387885   967A      7.400895  
     968A      7.408910   969A      7.414255   970A      7.418378  
     971A      7.432347   972A      7.435454   973A      7.450785  
     974A      7.467419   975A      7.471833   976A      7.474504  
     977A      7.475299   978A      7.527084   979A      7.534276  
     980A      7.554056   981A      7.589646   982A      7.591434  
     983A      7.609877   984A      7.624849   985A      7.645427  
     986A      7.650394   987A      7.669280   988A      7.693402  
     989A      7.703089   990A      7.718549   991A      7.721416  
     992A      7.729187   993A      7.757550   994A      7.768349  
     995A      7.769281   996A      7.782572   997A      7.786279  
     998A      7.799837   999A      7.832268  1000A      7.853516  
    1001A      7.860264  1002A      7.861753  1003A      7.872589  
    1004A      7.935508  1005A      7.941468  1006A      7.959579  
    1007A      7.968617  1008A      7.969138  1009A      7.977034  
    1010A      7.987008  1011A      7.990974  1012A      8.024458  
    1013A      8.032375  1014A      8.038794  1015A      8.056083  
    1016A      8.058081  1017A      8.060747  1018A      8.065379  
    1019A      8.082786  1020A      8.088893  1021A      8.098795  
    1022A      8.102729  1023A      8.151695  1024A      8.190015  
    1025A      8.208899  1026A      8.216706  1027A      8.239641  
    1028A      8.267601  1029A      8.268711  1030A      8.270559  
    1031A      8.306807  1032A      8.307317  1033A      8.324296  
    1034A      8.353694  1035A      8.376322  1036A      8.378425  
    1037A      8.380459  1038A      8.397944  1039A      8.407496  
    1040A      8.412293  1041A      8.441264  1042A      8.455890  
    1043A      8.457242  1044A      8.462997  1045A      8.466970  
    1046A      8.503012  1047A      8.593985  1048A      8.615775  
    1049A      8.618137  1050A      8.661136  1051A      8.691968  
    1052A      8.696105  1053A      8.710243  1054A      8.717931  
    1055A      8.729027  1056A      8.729672  1057A      8.737002  
    1058A      8.743154  1059A      8.758042  1060A      8.759237  
    1061A      8.769289  1062A      8.779874  1063A      8.782324  
    1064A      8.800662  1065A      8.832274  1066A      8.863461  
    1067A      8.879316  1068A      8.887404  1069A      8.908857  
    1070A      8.919055  1071A      8.940982  1072A      8.943899  
    1073A      8.985207  1074A      8.986614  1075A      9.005373  
    1076A      9.055425  1077A      9.057301  1078A      9.062545  
    1079A      9.075931  1080A      9.083790  1081A      9.095075  
    1082A      9.115239  1083A      9.126168  1084A      9.138312  
    1085A      9.142978  1086A      9.149203  1087A      9.152867  
    1088A      9.196326  1089A      9.246088  1090A      9.271722  
    1091A      9.291662  1092A      9.299399  1093A      9.331062  
    1094A      9.338978  1095A      9.347594  1096A      9.358903  
    1097A      9.407651  1098A      9.412259  1099A      9.419231  
    1100A      9.423951  1101A      9.433758  1102A      9.476838  
    1103A      9.489458  1104A      9.501504  1105A      9.524760  
    1106A      9.532249  1107A      9.557698  1108A      9.561046  
    1109A      9.581692  1110A      9.607018  1111A      9.617573  
    1112A      9.625588  1113A      9.627458  1114A      9.638943  
    1115A      9.640212  1116A      9.648288  1117A      9.696407  
    1118A      9.737830  1119A      9.742521  1120A      9.758801  
    1121A      9.759736  1122A      9.801005  1123A      9.845735  
    1124A      9.859696  1125A      9.870544  1126A      9.887356  
    1127A      9.903727  1128A      9.915256  1129A      9.918237  
    1130A      9.973193  1131A     10.043321  1132A     10.058612  
    1133A     10.086834  1134A     10.093526  1135A     10.105471  
    1136A     10.115779  1137A     10.120350  1138A     10.134142  
    1139A     10.141570  1140A     10.155855  1141A     10.213218  
    1142A     10.229528  1143A     10.266638  1144A     10.282056  
    1145A     10.284425  1146A     10.307759  1147A     10.326912  
    1148A     10.327636  1149A     10.342012  1150A     10.343680  
    1151A     10.364548  1152A     10.411489  1153A     10.420165  
    1154A     10.424927  1155A     10.426939  1156A     10.489298  
    1157A     10.491876  1158A     10.520140  1159A     10.573225  
    1160A     10.574734  1161A     10.595215  1162A     10.603022  
    1163A     10.613592  1164A     10.725630  1165A     10.731519  
    1166A     10.826871  1167A     10.828936  1168A     10.839163  
    1169A     10.842473  1170A     10.860880  1171A     10.867160  
    1172A     10.883326  1173A     10.886981  1174A     10.888742  
    1175A     10.913529  1176A     11.021731  1177A     11.060378  
    1178A     11.062165  1179A     11.074106  1180A     11.084448  
    1181A     11.119560  1182A     11.126311  1183A     11.133718  
    1184A     11.147774  1185A     11.201730  1186A     11.250648  
    1187A     11.285694  1188A     11.323662  1189A     11.403928  
    1190A     11.421170  1191A     11.428288  1192A     11.437922  
    1193A     11.486666  1194A     11.496403  1195A     11.501263  
    1196A     11.501618  1197A     11.518314  1198A     11.553319  
    1199A     11.603013  1200A     11.665411  1201A     11.727772  
    1202A     11.740016  1203A     11.755842  1204A     11.790490  
    1205A     11.797736  1206A     11.810918  1207A     11.854043  
    1208A     11.898349  1209A     11.978125  1210A     12.024844  
    1211A     12.030221  1212A     12.212621  1213A     12.218665  
    1214A     12.238651  1215A     12.382639  1216A     12.420606  
    1217A     12.493802  1218A     12.504323  1219A     12.588953  
    1220A     12.817170  1221A     12.843165  1222A     12.915546  
    1223A     12.985902  1224A     13.031122  1225A     13.141138  
    1226A     13.190548  1227A     13.245970  1228A     13.284195  
    1229A     13.326617  1230A     13.345087  1231A     13.354773  
    1232A     13.363273  1233A     13.396370  1234A     13.460252  
    1235A     13.490470  1236A     13.493303  1237A     13.517314  
    1238A     13.597350  1239A     13.688390  1240A     13.738666  
    1241A     13.990473  1242A     14.168900  1243A     14.243804  
    1244A     14.348144  1245A     14.636882  1246A     14.789185  
    1247A     14.970497  1248A     15.076999  1249A     15.214797  
    1250A     17.371592  1251A     26.232206  1252A     26.268017  
    1253A     26.576090  1254A     26.807117  1255A     26.842572  
    1256A     27.256779  1257A     27.276930  1258A     29.174557  
    1259A     44.046701  1260A     45.801437  

    Final Occupation by Irrep:
              A 
    DOCC [    37 ]

  @DF-RHF Final Energy:  -458.71651287358111

   => Energetics <=

    Nuclear Repulsion Energy =            483.5103598070711541
    One-Electron Energy =               -1583.0513187293825013
    Two-Electron Energy =                 640.8244460487302376
    Total Energy =                       -458.7165128735811095

Computation Completed


Properties will be evaluated at   0.000000,   0.000000,   0.000000 [a0]

Properties computed using the SCF density matrix

  Nuclear Dipole Moment: [e a0]
     X:     0.8517      Y:    -1.8670      Z:     1.9646

  Electronic Dipole Moment: [e a0]
     X:    -0.5690      Y:     1.2140      Z:    -1.9100

  Dipole Moment: [e a0]
     X:     0.2827      Y:    -0.6531      Z:     0.0546     Total:     0.7137

  Dipole Moment: [D]
     X:     0.7185      Y:    -1.6599      Z:     0.1388     Total:     1.8141


*** tstop() called on node73.bme.utexas.edu at Sat Apr 11 12:56:18 2020
Module time:
	user time   =    1045.62 seconds =      17.43 minutes
	system time =      17.46 seconds =       0.29 minutes
	total time  =        186 seconds =       3.10 minutes
Total time:
	user time   =    4570.80 seconds =      76.18 minutes
	system time =      93.94 seconds =       1.57 minutes
	total time  =        865 seconds =      14.42 minutes

*** tstart() called on node73.bme.utexas.edu
*** at Sat Apr 11 12:56:18 2020


  //>>>>>>>>>>>>>>>>>>>>>>>>>>>>>>>>>>>//
  //               DFMP2               //
  //<<<<<<<<<<<<<<<<<<<<<<<<<<<<<<<<<<<//

   => Loading Basis Set <=

    Name: (AUG-CC-PVQZ AUX)
    Role: RIFIT
    Keyword: DF_BASIS_MP2
    atoms 1, 3, 5, 7, 9, 11, 13, 17     entry C          line   184 file /home/liuchw/anaconda3/envs/psi4env/share/psi4/basis/aug-cc-pvqz-ri.gbs 
    atoms 2, 4, 6, 8, 10, 12, 16, 18-20 entry H          line    30 file /home/liuchw/anaconda3/envs/psi4env/share/psi4/basis/aug-cc-pvqz-ri.gbs 
    atoms 14-15                         entry O          line   332 file /home/liuchw/anaconda3/envs/psi4env/share/psi4/basis/aug-cc-pvqz-ri.gbs 

	 --------------------------------------------------------
	                          DF-MP2                         
	      2nd-Order Density-Fitted Moller-Plesset Theory     
	              RMP2 Wavefunction,   6 Threads             
	                                                         
	        Rob Parrish, Justin Turney, Andy Simmonett,      
	           Ed Hohenstein, and C. David Sherrill          
	 --------------------------------------------------------

   => Auxiliary Basis Set <=

  Basis Set: (AUG-CC-PVQZ AUX)
    Blend: AUG-CC-PVQZ-RI
    Number of shells: 560
    Number of basis function: 2480
    Number of Cartesian functions: 3420
    Spherical Harmonics?: true
    Max angular momentum: 5

	 --------------------------------------------------------
	                 NBF =  1260, NAUX =  2480
	 --------------------------------------------------------
	   CLASS    FOCC     OCC    AOCC    AVIR     VIR    FVIR
	   PAIRS       0      37      37    1223    1223       0
	 --------------------------------------------------------

	-----------------------------------------------------------
	 ==================> DF-MP2 Energies <==================== 
	-----------------------------------------------------------
	 Reference Energy          =    -458.7165128735811095 [Eh]
	 Singles Energy            =      -0.0000000000000000 [Eh]
	 Same-Spin Energy          =      -0.5013663863496780 [Eh]
	 Opposite-Spin Energy      =      -1.6799661332464131 [Eh]
	 Correlation Energy        =      -2.1813325195960909 [Eh]
	 Total Energy              =    -460.8978453931771924 [Eh]
	-----------------------------------------------------------
	 ================> DF-SCS-MP2 Energies <================== 
	-----------------------------------------------------------
	 SCS Same-Spin Scale       =       0.3333333333333333 [-]
	 SCS Opposite-Spin Scale   =       1.2000000000000000 [-]
	 SCS Same-Spin Energy      =      -0.1671221287832260 [Eh]
	 SCS Opposite-Spin Energy  =      -2.0159593598956955 [Eh]
	 SCS Correlation Energy    =      -2.1830814886789214 [Eh]
	 SCS Total Energy          =    -460.8995943622600180 [Eh]
	-----------------------------------------------------------


*** tstop() called on node73.bme.utexas.edu at Sat Apr 11 12:58:05 2020
Module time:
	user time   =     533.37 seconds =       8.89 minutes
	system time =       8.37 seconds =       0.14 minutes
	total time  =        107 seconds =       1.78 minutes
Total time:
	user time   =    5104.17 seconds =      85.07 minutes
	system time =     102.31 seconds =       1.71 minutes
	total time  =        972 seconds =      16.20 minutes

  //>>>>>>>>>>>>>>>>>>>>>>>>>>>>>>>>>>>//
  //  CBS Results: mp2/aug-cc-pv[tq]z  //
  //<<<<<<<<<<<<<<<<<<<<<<<<<<<<<<<<<<<//


   ==> HF <==

   HI-zeta (4) Energy:               -458.716512873581


   ==> Helgaker 2-point correlated extrapolation for method: MP2 <==

   LO-zeta (3) Energy:               -460.656372793694
   HI-zeta (4) Energy:               -460.897845393177
   Alpha (exponent) Value:             3.000000000000
   Extrapolated Energy:              -461.074055127935

   @Extrapolated MP2/(T,Q):          -461.074055127935



   ==> Helgaker 2-point correlated extrapolation for method: HF <==

   LO-zeta (3) Energy:               -458.688887373275
   HI-zeta (4) Energy:               -458.716512873581
   Alpha (exponent) Value:             3.000000000000
   Extrapolated Energy:              -458.736672022453

   @Extrapolated HF/(T,Q):           -458.736672022453


   ==> Components <==

  ---------------------------------------------------------------------------------------------------------
                          Method / Basis                      Rqd      Energy [Eh]   Variable
  ---------------------------------------------------------------------------------------------------------
                              hf / aug-cc-pvtz                  *    -458.68888737   HF TOTAL ENERGY
                             mp2 / aug-cc-pvtz                  *    -460.65637279   MP2 TOTAL ENERGY
                              hf / aug-cc-pvqz                  *    -458.71651287   HF TOTAL ENERGY
                             mp2 / aug-cc-pvqz                  *    -460.89784539   MP2 TOTAL ENERGY
  ---------------------------------------------------------------------------------------------------------

   ==> Stages <==

  ---------------------------------------------------------------------------------------------------------
      Stage               Method / Basis                       Wt      Energy [Eh]   Scheme
  ---------------------------------------------------------------------------------------------------------
        scf                   hf / aug-cc-pvqz                  1    -458.71651287   xtpl_highest_1
       corl                  mp2 / aug-cc-pv[tq]z               1    -461.07405513   corl_xtpl_helgaker_2
       corl                   hf / aug-cc-pv[tq]z              -1    -458.73667202   corl_xtpl_helgaker_2
  ---------------------------------------------------------------------------------------------------------

   ==> CBS <==

  ---------------------------------------------------------------------------------------------------------
      Stage               Method / Basis                               Energy [Eh]   Scheme
  ---------------------------------------------------------------------------------------------------------
        scf                   hf / aug-cc-pvqz                       -458.71651287   xtpl_highest_1
       corl                  mp2 / aug-cc-pv[tq]z                      -2.33738311   corl_xtpl_helgaker_2
      total                  CBS                                     -461.05389598   
  ---------------------------------------------------------------------------------------------------------
   => Loading Basis Set <=

    Name: DEF2-SVP
    Role: ORBITAL
    Keyword: BASIS
    atoms 1, 3, 5, 7, 9, 11, 13, 17     entry C          line    90 file /home/liuchw/anaconda3/envs/psi4env/share/psi4/basis/def2-svp.gbs 
    atoms 2, 4, 6, 8, 10, 12, 16, 18-20 entry H          line    15 file /home/liuchw/anaconda3/envs/psi4env/share/psi4/basis/def2-svp.gbs 
    atoms 14-15                         entry O          line   130 file /home/liuchw/anaconda3/envs/psi4env/share/psi4/basis/def2-svp.gbs 


       N-Body: Complex Energy (fragments = (1, 2), basis = (1, 2):  -461.05389597906304)

   ==> N-Body: Counterpoise Corrected (CP) energies <==

   n-Body     Total Energy [Eh]       I.E. [kcal/mol]      Delta [kcal/mol]
        1     -461.046945996686        0.000000000000        0.000000000000
        2     -461.054924797045       -5.006772814446       -5.006772814446

   => Loading Basis Set <=

    Name: DEF2-SVP
    Role: ORBITAL
    Keyword: BASIS
    atoms 1, 3, 5, 7, 9, 11, 13, 17     entry C          line    90 file /home/liuchw/anaconda3/envs/psi4env/share/psi4/basis/def2-svp.gbs 
    atoms 2, 4, 6, 8, 10, 12, 16, 18-20 entry H          line    15 file /home/liuchw/anaconda3/envs/psi4env/share/psi4/basis/def2-svp.gbs 
    atoms 14-15                         entry O          line   130 file /home/liuchw/anaconda3/envs/psi4env/share/psi4/basis/def2-svp.gbs 


    Psi4 stopped on: Saturday, 11 April 2020 12:58PM
    Psi4 wall time for execution: 0:16:13.05

*** Psi4 exiting successfully. Buy a developer a beer!
