
    -----------------------------------------------------------------------
          Psi4: An Open-Source Ab Initio Electronic Structure Package
                               Psi4 1.4a2.dev224 

                         Git: Rev {master} e453b16 


    R. M. Parrish, L. A. Burns, D. G. A. Smith, A. C. Simmonett,
    A. E. DePrince III, E. G. Hohenstein, U. Bozkaya, A. Yu. Sokolov,
    R. Di Remigio, R. M. Richard, J. F. Gonthier, A. M. James,
    H. R. McAlexander, A. Kumar, M. Saitow, X. Wang, B. P. Pritchard,
    P. Verma, H. F. Schaefer III, K. Patkowski, R. A. King, E. F. Valeev,
    F. A. Evangelista, J. M. Turney, T. D. Crawford, and C. D. Sherrill,
    J. Chem. Theory Comput. 13(7) pp 3185--3197 (2017).
    (doi: 10.1021/acs.jctc.7b00174)


                         Additional Contributions by
    P. Kraus, H. Kruse, M. H. Lechner, M. C. Schieber, R. A. Shaw,
    A. Alenaizan, R. Galvelis, Z. L. Glick, S. Lehtola, and J. P. Misiewicz

    -----------------------------------------------------------------------


    Psi4 started on: Saturday, 11 April 2020 06:23PM

    Process ID: 41570
    Host:       node37.bme.utexas.edu
    PSIDATADIR: /home/liuchw/anaconda3/envs/psi4env/share/psi4
    Memory:     500.0 MiB
    Threads:    6
    
  ==> Input File <==

--------------------------------------------------------------------------
#Generated by lconvert.py for cbs job

memory 40 GB

molecule  {
0 1
  C        0.8555610     0.3585320     1.0497540
  H        1.5138260     0.9026800     1.7127660
  C        1.3428970    -0.6753790     0.2511570
  H        2.3928840    -0.9333450     0.2819630
  C        0.4778070    -1.3767010    -0.5878160
  H        0.8560840    -2.1789080    -1.2068240
  C       -0.8748300    -1.0425560    -0.6304520
  H       -1.5454060    -1.5857000    -1.2824160
  C       -1.3623970    -0.0070140     0.1658460
  H       -2.4115710     0.2534670     0.1307790
  C       -0.4984440     0.6931570     1.0069920
  H       -0.8661110     1.4903400     1.6380370
--
0 1
  C        0.2030010     0.8813510     4.1216070
  O        0.4494900     1.9247780     3.5343680
  N       -0.1010470    -0.2736550     3.4704400
  H       -0.0758460    -0.2806710     2.4638030
  H       -0.2568230    -1.1291470     3.9661420
  C        0.2258450     0.7864600     5.6300250
  H        1.2575590     0.8706720     5.9650990
  H       -0.1960590    -0.1401830     6.0110500
  H       -0.3236190     1.6303060     6.0367950
units angstrom
no_reorient
symmetry c1
}

set {
scf_type DF
mp2_type DF
e_convergence 7
reference rhf
}

energy('mp2/aug-cc-pv[tq]z', bsse_type='cp')
--------------------------------------------------------------------------

  Memory set to  37.253 GiB by Python driver.

Scratch directory: /scratch//


   ===> N-Body Interaction Abacus <===
        BSSE Treatment:                     cp
        Number of 1-body computations:     4
        Number of 2-body computations:     1

   ==> N-Body: Now computing 1-body complexes <==


       N-Body: Computing complex (1/4) with fragments (2,) in the basis of fragments (2,).


Scratch directory: /scratch//

  //>>>>>>>>>>>>>>>>>>>>>>>>>>>>>>>>>>>//
  //   CBS Setup: mp2/aug-cc-pv[tq]z   //
  //<<<<<<<<<<<<<<<<<<<<<<<<<<<<<<<<<<<//

    Naive listing of computations required.
             hf / aug-cc-pvqz              for  HF TOTAL ENERGY
            mp2 / aug-cc-pvtz              for  MP2 TOTAL ENERGY
            mp2 / aug-cc-pvqz              for  MP2 TOTAL ENERGY
             hf / aug-cc-pvtz              for  HF TOTAL ENERGY
             hf / aug-cc-pvqz              for  HF TOTAL ENERGY

    Enlightened listing of computations required.
            mp2 / aug-cc-pvtz              for  MP2 TOTAL ENERGY
            mp2 / aug-cc-pvqz              for  MP2 TOTAL ENERGY

    Full listing of computations to be obtained (required and bonus).
             hf / aug-cc-pvtz              for  HF TOTAL ENERGY
            mp2 / aug-cc-pvtz              for  MP2 TOTAL ENERGY
             hf / aug-cc-pvqz              for  HF TOTAL ENERGY
            mp2 / aug-cc-pvqz              for  MP2 TOTAL ENERGY

  //>>>>>>>>>>>>>>>>>>>>>>>>>>>>>>>>>>>>//
  // CBS Computation: MP2 / AUG-CC-PVTZ //
  //<<<<<<<<<<<<<<<<<<<<<<<<<<<<<<<<<<<<//


Scratch directory: /scratch//

*** tstart() called on node37.bme.utexas.edu
*** at Sat Apr 11 18:23:36 2020

   => Loading Basis Set <=

    Name: AUG-CC-PVTZ
    Role: ORBITAL
    Keyword: BASIS
    atoms 1, 6     entry C          line   239 file /home/liuchw/anaconda3/envs/psi4env/share/psi4/basis/aug-cc-pvtz.gbs 
    atoms 2        entry O          line   331 file /home/liuchw/anaconda3/envs/psi4env/share/psi4/basis/aug-cc-pvtz.gbs 
    atoms 3        entry N          line   285 file /home/liuchw/anaconda3/envs/psi4env/share/psi4/basis/aug-cc-pvtz.gbs 
    atoms 4-5, 7-9 entry H          line    40 file /home/liuchw/anaconda3/envs/psi4env/share/psi4/basis/aug-cc-pvtz.gbs 


         ---------------------------------------------------------
                                   SCF
               by Justin Turney, Rob Parrish, Andy Simmonett
                          and Daniel G. A. Smith
                              RHF Reference
                        6 Threads,  38146 MiB Core
         ---------------------------------------------------------

  ==> Geometry <==

    Molecular point group: c1
    Full point group: C1

    Geometry (in Angstrom), charge = 0, multiplicity = 1:

       Center              X                  Y                   Z               Mass       
    ------------   -----------------  -----------------  -----------------  -----------------
         C            0.126000929813     0.726265517588     2.202109410147    12.000000000000
         O            0.372489929813     1.769692517588     1.614870410147    15.994914619570
         N           -0.178047070187    -0.428740482412     1.550942410147    14.003074004430
         H           -0.152846070187    -0.435756482412     0.544305410147     1.007825032230
         H           -0.333823070187    -1.284232482412     2.046644410147     1.007825032230
         C            0.148844929813     0.631374517588     3.710527410147    12.000000000000
         H            1.180558929813     0.715586517588     4.045601410147     1.007825032230
         H           -0.273059070187    -0.295268482412     4.091552410147     1.007825032230
         H           -0.400619070187     1.475220517588     4.117297410147     1.007825032230

  Running in c1 symmetry.

  Rotational constants: A =      0.35919  B =      0.04415  C =      0.03962 [cm^-1]
  Rotational constants: A =  10768.16070  B =   1323.62281  C =   1187.85095 [MHz]
  Nuclear repulsion =  121.837431465648820

  Charge       = 0
  Multiplicity = 1
  Electrons    = 32
  Nalpha       = 16
  Nbeta        = 16

  ==> Algorithm <==

  SCF Algorithm Type is DF.
  DIIS enabled.
  MOM disabled.
  Fractional occupation disabled.
  Guess Type is SAD.
  Energy threshold   = 1.00e-07
  Density threshold  = 1.00e-08
  Integral threshold = 0.00e+00

  ==> Primary Basis <==

  Basis Set: AUG-CC-PVTZ
    Blend: AUG-CC-PVTZ
    Number of shells: 101
    Number of basis function: 299
    Number of Cartesian functions: 345
    Spherical Harmonics?: true
    Max angular momentum: 3

   => Loading Basis Set <=

    Name: (AUG-CC-PVTZ AUX)
    Role: JKFIT
    Keyword: DF_BASIS_SCF
    atoms 1, 6     entry C          line   162 file /home/liuchw/anaconda3/envs/psi4env/share/psi4/basis/aug-cc-pvtz-jkfit.gbs 
    atoms 2        entry O          line   286 file /home/liuchw/anaconda3/envs/psi4env/share/psi4/basis/aug-cc-pvtz-jkfit.gbs 
    atoms 3        entry N          line   224 file /home/liuchw/anaconda3/envs/psi4env/share/psi4/basis/aug-cc-pvtz-jkfit.gbs 
    atoms 4-5, 7-9 entry H          line    70 file /home/liuchw/anaconda3/envs/psi4env/share/psi4/basis/aug-cc-pvtz-jkfit.gbs 

  ==> Pre-Iterations <==

   -------------------------------------------------------
    Irrep   Nso     Nmo     Nalpha   Nbeta   Ndocc  Nsocc
   -------------------------------------------------------
     A        299     299       0       0       0       0
   -------------------------------------------------------
    Total     299     299      16      16      16       0
   -------------------------------------------------------

  ==> Integral Setup <==

  DFHelper Memory: AOs need 0.454 GiB; user supplied 27.940 GiB. Using in-core AOs.

  ==> MemDFJK: Density-Fitted J/K Matrices <==

    J tasked:                   Yes
    K tasked:                   Yes
    wK tasked:                   No
    OpenMP threads:               6
    Memory [MiB]:             28610
    Algorithm:                 Core
    Schwarz Cutoff:           1E-12
    Mask sparsity (%):       0.3579
    Fitting Condition:        1E-10

   => Auxiliary Basis Set <=

  Basis Set: (AUG-CC-PVTZ AUX)
    Blend: AUG-CC-PVTZ-JKFIT
    Number of shells: 190
    Number of basis function: 646
    Number of Cartesian functions: 799
    Spherical Harmonics?: true
    Max angular momentum: 4

  Minimum eigenvalue in the overlap matrix is 1.9666669984E-05.
  Using Symmetric Orthogonalization.

  SCF Guess: Superposition of Atomic Densities via on-the-fly atomic UHF.

  ==> Iterations <==

                           Total Energy        Delta E     RMS |[F,P]|

   @DF-RHF iter SAD:  -207.23339857896372   -2.07233e+02   0.00000e+00 
   @DF-RHF iter   1:  -207.88557909436668   -6.52181e-01   2.04122e-03 DIIS
   @DF-RHF iter   2:  -208.01881310358399   -1.33234e-01   1.18288e-03 DIIS
   @DF-RHF iter   3:  -208.06003323900330   -4.12201e-02   2.19999e-04 DIIS
   @DF-RHF iter   4:  -208.06241040030602   -2.37716e-03   9.26308e-05 DIIS
   @DF-RHF iter   5:  -208.06291099424070   -5.00594e-04   1.69436e-05 DIIS
   @DF-RHF iter   6:  -208.06294127971265   -3.02855e-05   8.12494e-06 DIIS
   @DF-RHF iter   7:  -208.06294690581197   -5.62610e-06   3.00416e-06 DIIS
   @DF-RHF iter   8:  -208.06294811014868   -1.20434e-06   9.54433e-07 DIIS
   @DF-RHF iter   9:  -208.06294825229580   -1.42147e-07   2.47493e-07 DIIS
   @DF-RHF iter  10:  -208.06294825954461   -7.24881e-09   7.95793e-08 DIIS
   @DF-RHF iter  11:  -208.06294826017213   -6.27523e-10   2.09383e-08 DIIS
   @DF-RHF iter  12:  -208.06294826021590   -4.37694e-11   4.48845e-09 DIIS
  Energy and wave function converged.


  ==> Post-Iterations <==

    Orbital Energies [Eh]
    ---------------------

    Doubly Occupied:                                                      

       1A    -20.515711     2A    -15.588743     3A    -11.353933  
       4A    -11.237836     5A     -1.376457     6A     -1.215322  
       7A     -1.006461     8A     -0.802091     9A     -0.729780  
      10A     -0.664889    11A     -0.616075    12A     -0.585547  
      13A     -0.563479    14A     -0.525008    15A     -0.424302  
      16A     -0.415698  

    Virtual:                                                              

      17A      0.021733    18A      0.036127    19A      0.044662  
      20A      0.048396    21A      0.061792    22A      0.085027  
      23A      0.104375    24A      0.106188    25A      0.117533  
      26A      0.123321    27A      0.133180    28A      0.140921  
      29A      0.149396    30A      0.152586    31A      0.165364  
      32A      0.170422    33A      0.178964    34A      0.213224  
      35A      0.229390    36A      0.233076    37A      0.244356  
      38A      0.258638    39A      0.261636    40A      0.271138  
      41A      0.293302    42A      0.294435    43A      0.310290  
      44A      0.319350    45A      0.337275    46A      0.343364  
      47A      0.345472    48A      0.355860    49A      0.359726  
      50A      0.365772    51A      0.377133    52A      0.387222  
      53A      0.397940    54A      0.409298    55A      0.413389  
      56A      0.423325    57A      0.436479    58A      0.442977  
      59A      0.460564    60A      0.468706    61A      0.470995  
      62A      0.498717    63A      0.500170    64A      0.519126  
      65A      0.523377    66A      0.534825    67A      0.543079  
      68A      0.559898    69A      0.589446    70A      0.600552  
      71A      0.622848    72A      0.636121    73A      0.639389  
      74A      0.652903    75A      0.705665    76A      0.727926  
      77A      0.736614    78A      0.765491    79A      0.770247  
      80A      0.789388    81A      0.805938    82A      0.820569  
      83A      0.834918    84A      0.841132    85A      0.857107  
      86A      0.865112    87A      0.877650    88A      0.881389  
      89A      0.894971    90A      0.906918    91A      0.921453  
      92A      0.935431    93A      0.954669    94A      0.958831  
      95A      0.979426    96A      1.004883    97A      1.014892  
      98A      1.017865    99A      1.023626   100A      1.034349  
     101A      1.046466   102A      1.058498   103A      1.066695  
     104A      1.079994   105A      1.084647   106A      1.099896  
     107A      1.107565   108A      1.122360   109A      1.134574  
     110A      1.145746   111A      1.182134   112A      1.188903  
     113A      1.207335   114A      1.222058   115A      1.227948  
     116A      1.247038   117A      1.253385   118A      1.271497  
     119A      1.278449   120A      1.308325   121A      1.316993  
     122A      1.329456   123A      1.355734   124A      1.357818  
     125A      1.402999   126A      1.413224   127A      1.430681  
     128A      1.457411   129A      1.468205   130A      1.491935  
     131A      1.512215   132A      1.526670   133A      1.553867  
     134A      1.561007   135A      1.575246   136A      1.614194  
     137A      1.628312   138A      1.628941   139A      1.654544  
     140A      1.690524   141A      1.699574   142A      1.721046  
     143A      1.729333   144A      1.784509   145A      1.792916  
     146A      1.817845   147A      1.842642   148A      1.848052  
     149A      1.866369   150A      1.896970   151A      1.911863  
     152A      1.932408   153A      2.002597   154A      2.039218  
     155A      2.055722   156A      2.072659   157A      2.088011  
     158A      2.123736   159A      2.139901   160A      2.174080  
     161A      2.201336   162A      2.214833   163A      2.229077  
     164A      2.248097   165A      2.268464   166A      2.313105  
     167A      2.337310   168A      2.375481   169A      2.391575  
     170A      2.425300   171A      2.453012   172A      2.499845  
     173A      2.517723   174A      2.523123   175A      2.576467  
     176A      2.592511   177A      2.628086   178A      2.665948  
     179A      2.695131   180A      2.707037   181A      2.768760  
     182A      2.777793   183A      2.795435   184A      2.925866  
     185A      2.938059   186A      2.966879   187A      2.998087  
     188A      3.049781   189A      3.132016   190A      3.197958  
     191A      3.209471   192A      3.314764   193A      3.376087  
     194A      3.397206   195A      3.468949   196A      3.512675  
     197A      3.543615   198A      3.553142   199A      3.597732  
     200A      3.627770   201A      3.656729   202A      3.710726  
     203A      3.734781   204A      3.775388   205A      3.792172  
     206A      3.835383   207A      3.847587   208A      3.871460  
     209A      3.901778   210A      3.930394   211A      3.940252  
     212A      3.960096   213A      3.984010   214A      4.014976  
     215A      4.074144   216A      4.090537   217A      4.118934  
     218A      4.157025   219A      4.207846   220A      4.228478  
     221A      4.240508   222A      4.250099   223A      4.300846  
     224A      4.312952   225A      4.331674   226A      4.376450  
     227A      4.412047   228A      4.420789   229A      4.447255  
     230A      4.475384   231A      4.488048   232A      4.506787  
     233A      4.573733   234A      4.656299   235A      4.675536  
     236A      4.712753   237A      4.726856   238A      4.785193  
     239A      4.812332   240A      4.829728   241A      4.861373  
     242A      4.866182   243A      4.879583   244A      4.942150  
     245A      4.987695   246A      5.004478   247A      5.060171  
     248A      5.091144   249A      5.133654   250A      5.144911  
     251A      5.199551   252A      5.240267   253A      5.281060  
     254A      5.338550   255A      5.345383   256A      5.366967  
     257A      5.442101   258A      5.482434   259A      5.544080  
     260A      5.550607   261A      5.589620   262A      5.626552  
     263A      5.638284   264A      5.731058   265A      5.765140  
     266A      5.803571   267A      5.872528   268A      5.953859  
     269A      6.090679   270A      6.103020   271A      6.126027  
     272A      6.138659   273A      6.227637   274A      6.258108  
     275A      6.315373   276A      6.340246   277A      6.575683  
     278A      6.656112   279A      6.709477   280A      6.745983  
     281A      6.779645   282A      6.805310   283A      6.997554  
     284A      7.021662   285A      7.093902   286A      7.201527  
     287A      7.358183   288A      7.414808   289A      7.433278  
     290A      7.590887   291A      7.676450   292A      7.756400  
     293A      7.814810   294A      7.909023   295A      7.973156  
     296A     15.548819   297A     16.531669   298A     17.979647  
     299A     19.403919  

    Final Occupation by Irrep:
              A 
    DOCC [    16 ]

  @DF-RHF Final Energy:  -208.06294826021590

   => Energetics <=

    Nuclear Repulsion Energy =            121.8374314656488195
    One-Electron Energy =                -524.5580947627238402
    Two-Electron Energy =                 194.6577150368591163
    Total Energy =                       -208.0629482602159044

Computation Completed


Properties will be evaluated at   0.000000,   0.000000,   0.000000 [a0]

Properties computed using the SCF density matrix

  Nuclear Dipole Moment: [e a0]
     X:     6.4305      Y:    36.8076      Z:   140.0226

  Electronic Dipole Moment: [e a0]
     X:    -6.7334      Y:   -38.3555      Z:  -139.4319

  Dipole Moment: [e a0]
     X:    -0.3029      Y:    -1.5479      Z:     0.5907     Total:     1.6842

  Dipole Moment: [D]
     X:    -0.7700      Y:    -3.9343      Z:     1.5014     Total:     4.2808


*** tstop() called on node37.bme.utexas.edu at Sat Apr 11 18:23:41 2020
Module time:
	user time   =      22.91 seconds =       0.38 minutes
	system time =       1.46 seconds =       0.02 minutes
	total time  =          5 seconds =       0.08 minutes
Total time:
	user time   =      22.91 seconds =       0.38 minutes
	system time =       1.46 seconds =       0.02 minutes
	total time  =          5 seconds =       0.08 minutes

*** tstart() called on node37.bme.utexas.edu
*** at Sat Apr 11 18:23:41 2020


  //>>>>>>>>>>>>>>>>>>>>>>>>>>>>>>>>>>>//
  //               DFMP2               //
  //<<<<<<<<<<<<<<<<<<<<<<<<<<<<<<<<<<<//

   => Loading Basis Set <=

    Name: (AUG-CC-PVTZ AUX)
    Role: RIFIT
    Keyword: DF_BASIS_MP2
    atoms 1, 6     entry C          line   148 file /home/liuchw/anaconda3/envs/psi4env/share/psi4/basis/aug-cc-pvtz-ri.gbs 
    atoms 2        entry O          line   264 file /home/liuchw/anaconda3/envs/psi4env/share/psi4/basis/aug-cc-pvtz-ri.gbs 
    atoms 3        entry N          line   206 file /home/liuchw/anaconda3/envs/psi4env/share/psi4/basis/aug-cc-pvtz-ri.gbs 
    atoms 4-5, 7-9 entry H          line    30 file /home/liuchw/anaconda3/envs/psi4env/share/psi4/basis/aug-cc-pvtz-ri.gbs 

	 --------------------------------------------------------
	                          DF-MP2                         
	      2nd-Order Density-Fitted Moller-Plesset Theory     
	              RMP2 Wavefunction,   6 Threads             
	                                                         
	        Rob Parrish, Justin Turney, Andy Simmonett,      
	           Ed Hohenstein, and C. David Sherrill          
	 --------------------------------------------------------

   => Auxiliary Basis Set <=

  Basis Set: (AUG-CC-PVTZ AUX)
    Blend: AUG-CC-PVTZ-RI
    Number of shells: 182
    Number of basis function: 654
    Number of Cartesian functions: 819
    Spherical Harmonics?: true
    Max angular momentum: 4

	 --------------------------------------------------------
	                 NBF =   299, NAUX =   654
	 --------------------------------------------------------
	   CLASS    FOCC     OCC    AOCC    AVIR     VIR    FVIR
	   PAIRS       0      16      16     283     283       0
	 --------------------------------------------------------

	-----------------------------------------------------------
	 ==================> DF-MP2 Energies <==================== 
	-----------------------------------------------------------
	 Reference Energy          =    -208.0629482602159044 [Eh]
	 Singles Energy            =      -0.0000000000000000 [Eh]
	 Same-Spin Energy          =      -0.2045546284169209 [Eh]
	 Opposite-Spin Energy      =      -0.6558117884961050 [Eh]
	 Correlation Energy        =      -0.8603664169130258 [Eh]
	 Total Energy              =    -208.9233146771289285 [Eh]
	-----------------------------------------------------------
	 ================> DF-SCS-MP2 Energies <================== 
	-----------------------------------------------------------
	 SCS Same-Spin Scale       =       0.3333333333333333 [-]
	 SCS Opposite-Spin Scale   =       1.2000000000000000 [-]
	 SCS Same-Spin Energy      =      -0.0681848761389736 [Eh]
	 SCS Opposite-Spin Energy  =      -0.7869741461953260 [Eh]
	 SCS Correlation Energy    =      -0.8551590223342996 [Eh]
	 SCS Total Energy          =    -208.9181072825502099 [Eh]
	-----------------------------------------------------------


*** tstop() called on node37.bme.utexas.edu at Sat Apr 11 18:23:43 2020
Module time:
	user time   =       8.70 seconds =       0.14 minutes
	system time =       0.97 seconds =       0.02 minutes
	total time  =          2 seconds =       0.03 minutes
Total time:
	user time   =      31.61 seconds =       0.53 minutes
	system time =       2.43 seconds =       0.04 minutes
	total time  =          7 seconds =       0.12 minutes

  //>>>>>>>>>>>>>>>>>>>>>>>>>>>>>>>>>>>>//
  // CBS Computation: MP2 / AUG-CC-PVQZ //
  //<<<<<<<<<<<<<<<<<<<<<<<<<<<<<<<<<<<<//


Scratch directory: /scratch//

*** tstart() called on node37.bme.utexas.edu
*** at Sat Apr 11 18:23:43 2020

   => Loading Basis Set <=

    Name: AUG-CC-PVQZ
    Role: ORBITAL
    Keyword: BASIS
    atoms 1, 6     entry C          line   303 file /home/liuchw/anaconda3/envs/psi4env/share/psi4/basis/aug-cc-pvqz.gbs 
    atoms 2        entry O          line   423 file /home/liuchw/anaconda3/envs/psi4env/share/psi4/basis/aug-cc-pvqz.gbs 
    atoms 3        entry N          line   363 file /home/liuchw/anaconda3/envs/psi4env/share/psi4/basis/aug-cc-pvqz.gbs 
    atoms 4-5, 7-9 entry H          line    40 file /home/liuchw/anaconda3/envs/psi4env/share/psi4/basis/aug-cc-pvqz.gbs 


         ---------------------------------------------------------
                                   SCF
               by Justin Turney, Rob Parrish, Andy Simmonett
                          and Daniel G. A. Smith
                              RHF Reference
                        6 Threads,  38146 MiB Core
         ---------------------------------------------------------

  ==> Geometry <==

    Molecular point group: c1
    Full point group: C1

    Geometry (in Angstrom), charge = 0, multiplicity = 1:

       Center              X                  Y                   Z               Mass       
    ------------   -----------------  -----------------  -----------------  -----------------
         C            0.126000929813     0.726265517588     2.202109410147    12.000000000000
         O            0.372489929813     1.769692517588     1.614870410147    15.994914619570
         N           -0.178047070187    -0.428740482412     1.550942410147    14.003074004430
         H           -0.152846070187    -0.435756482412     0.544305410147     1.007825032230
         H           -0.333823070187    -1.284232482412     2.046644410147     1.007825032230
         C            0.148844929813     0.631374517588     3.710527410147    12.000000000000
         H            1.180558929813     0.715586517588     4.045601410147     1.007825032230
         H           -0.273059070187    -0.295268482412     4.091552410147     1.007825032230
         H           -0.400619070187     1.475220517588     4.117297410147     1.007825032230

  Running in c1 symmetry.

  Rotational constants: A =      0.35919  B =      0.04415  C =      0.03962 [cm^-1]
  Rotational constants: A =  10768.16070  B =   1323.62281  C =   1187.85095 [MHz]
  Nuclear repulsion =  121.837431465648820

  Charge       = 0
  Multiplicity = 1
  Electrons    = 32
  Nalpha       = 16
  Nbeta        = 16

  ==> Algorithm <==

  SCF Algorithm Type is DF.
  DIIS enabled.
  MOM disabled.
  Fractional occupation disabled.
  Guess Type is SAD.
  Energy threshold   = 1.00e-07
  Density threshold  = 1.00e-08
  Integral threshold = 0.00e+00

  ==> Primary Basis <==

  Basis Set: AUG-CC-PVQZ
    Blend: AUG-CC-PVQZ
    Number of shells: 150
    Number of basis function: 550
    Number of Cartesian functions: 695
    Spherical Harmonics?: true
    Max angular momentum: 4

   => Loading Basis Set <=

    Name: (AUG-CC-PVQZ AUX)
    Role: JKFIT
    Keyword: DF_BASIS_SCF
    atoms 1, 6     entry C          line   178 file /home/liuchw/anaconda3/envs/psi4env/share/psi4/basis/aug-cc-pvqz-jkfit.gbs 
    atoms 2        entry O          line   318 file /home/liuchw/anaconda3/envs/psi4env/share/psi4/basis/aug-cc-pvqz-jkfit.gbs 
    atoms 3        entry N          line   248 file /home/liuchw/anaconda3/envs/psi4env/share/psi4/basis/aug-cc-pvqz-jkfit.gbs 
    atoms 4-5, 7-9 entry H          line    70 file /home/liuchw/anaconda3/envs/psi4env/share/psi4/basis/aug-cc-pvqz-jkfit.gbs 

  ==> Pre-Iterations <==

   -------------------------------------------------------
    Irrep   Nso     Nmo     Nalpha   Nbeta   Ndocc  Nsocc
   -------------------------------------------------------
     A        550     550       0       0       0       0
   -------------------------------------------------------
    Total     550     550      16      16      16       0
   -------------------------------------------------------

  ==> Integral Setup <==

  DFHelper Memory: AOs need 2.191 GiB; user supplied 27.940 GiB. Using in-core AOs.

  ==> MemDFJK: Density-Fitted J/K Matrices <==

    J tasked:                   Yes
    K tasked:                   Yes
    wK tasked:                   No
    OpenMP threads:               6
    Memory [MiB]:             28610
    Algorithm:                 Core
    Schwarz Cutoff:           1E-12
    Mask sparsity (%):       1.8750
    Fitting Condition:        1E-10

   => Auxiliary Basis Set <=

  Basis Set: (AUG-CC-PVQZ AUX)
    Blend: AUG-CC-PVQZ-JKFIT
    Number of shells: 226
    Number of basis function: 948
    Number of Cartesian functions: 1297
    Spherical Harmonics?: true
    Max angular momentum: 5

  Minimum eigenvalue in the overlap matrix is 4.3298064264E-06.
  Using Symmetric Orthogonalization.

  SCF Guess: Superposition of Atomic Densities via on-the-fly atomic UHF.

  ==> Iterations <==

                           Total Energy        Delta E     RMS |[F,P]|

   @DF-RHF iter SAD:  -207.24651840477489   -2.07247e+02   0.00000e+00 
   @DF-RHF iter   1:  -207.89825779842906   -6.51739e-01   1.11196e-03 DIIS
   @DF-RHF iter   2:  -208.03179694621781   -1.33539e-01   6.45522e-04 DIIS
   @DF-RHF iter   3:  -208.07319984511469   -4.14029e-02   1.20001e-04 DIIS
   @DF-RHF iter   4:  -208.07558513834130   -2.38529e-03   5.06764e-05 DIIS
   @DF-RHF iter   5:  -208.07608915745672   -5.04019e-04   9.32327e-06 DIIS
   @DF-RHF iter   6:  -208.07611993280048   -3.07753e-05   4.45099e-06 DIIS
   @DF-RHF iter   7:  -208.07612562112470   -5.68832e-06   1.65566e-06 DIIS
   @DF-RHF iter   8:  -208.07612684346898   -1.22234e-06   5.35820e-07 DIIS
   @DF-RHF iter   9:  -208.07612699349204   -1.50023e-07   1.39816e-07 DIIS
   @DF-RHF iter  10:  -208.07612700138756   -7.89552e-09   4.46804e-08 DIIS
   @DF-RHF iter  11:  -208.07612700204794   -6.60378e-10   1.19682e-08 DIIS
   @DF-RHF iter  12:  -208.07612700209432   -4.63842e-11   2.52057e-09 DIIS
  Energy and wave function converged.


  ==> Post-Iterations <==

    Orbital Energies [Eh]
    ---------------------

    Doubly Occupied:                                                      

       1A    -20.512995     2A    -15.586835     3A    -11.352770  
       4A    -11.236799     5A     -1.375630     6A     -1.214846  
       7A     -1.006259     8A     -0.801977     9A     -0.729838  
      10A     -0.664909    11A     -0.616183    12A     -0.585608  
      13A     -0.563626    14A     -0.525156    15A     -0.424426  
      16A     -0.415843  

    Virtual:                                                              

      17A      0.018910    18A      0.032095    19A      0.040126  
      20A      0.043626    21A      0.056281    22A      0.072506  
      23A      0.087722    24A      0.091409    25A      0.099223  
      26A      0.106785    27A      0.115828    28A      0.122220  
      29A      0.128884    30A      0.131495    31A      0.144194  
      32A      0.156037    33A      0.161681    34A      0.182547  
      35A      0.193773    36A      0.200234    37A      0.204028  
      38A      0.215318    39A      0.222615    40A      0.234612  
      41A      0.244492    42A      0.250225    43A      0.262239  
      44A      0.267869    45A      0.278008    46A      0.283011  
      47A      0.290297    48A      0.294465    49A      0.298184  
      50A      0.306420    51A      0.312103    52A      0.316770  
      53A      0.323071    54A      0.330068    55A      0.332748  
      56A      0.351287    57A      0.357632    58A      0.366062  
      59A      0.375763    60A      0.388040    61A      0.391032  
      62A      0.397528    63A      0.407361    64A      0.411169  
      65A      0.418722    66A      0.436437    67A      0.447861  
      68A      0.452579    69A      0.470070    70A      0.488035  
      71A      0.508308    72A      0.509919    73A      0.519775  
      74A      0.537630    75A      0.551921    76A      0.564994  
      77A      0.584322    78A      0.595474    79A      0.599034  
      80A      0.607251    81A      0.624416    82A      0.636117  
      83A      0.641081    84A      0.663470    85A      0.667427  
      86A      0.669981    87A      0.676687    88A      0.685858  
      89A      0.700294    90A      0.704049    91A      0.711850  
      92A      0.717595    93A      0.725171    94A      0.731955  
      95A      0.741486    96A      0.751821    97A      0.758617  
      98A      0.761938    99A      0.771444   100A      0.789514  
     101A      0.795343   102A      0.797893   103A      0.813383  
     104A      0.817823   105A      0.826398   106A      0.837199  
     107A      0.845312   108A      0.854947   109A      0.857363  
     110A      0.881867   111A      0.890032   112A      0.893593  
     113A      0.916942   114A      0.928907   115A      0.934617  
     116A      0.948205   117A      0.967745   118A      0.977039  
     119A      0.987722   120A      0.992834   121A      1.004868  
     122A      1.011657   123A      1.021926   124A      1.034516  
     125A      1.044052   126A      1.054547   127A      1.060429  
     128A      1.085698   129A      1.100613   130A      1.114324  
     131A      1.123213   132A      1.130956   133A      1.159345  
     134A      1.167964   135A      1.178159   136A      1.198857  
     137A      1.202753   138A      1.215904   139A      1.230362  
     140A      1.238760   141A      1.243477   142A      1.265422  
     143A      1.275103   144A      1.296352   145A      1.328855  
     146A      1.352748   147A      1.362152   148A      1.404046  
     149A      1.412135   150A      1.423192   151A      1.441098  
     152A      1.455770   153A      1.471061   154A      1.488579  
     155A      1.492237   156A      1.510773   157A      1.518739  
     158A      1.551653   159A      1.557867   160A      1.572676  
     161A      1.578226   162A      1.590636   163A      1.601893  
     164A      1.615167   165A      1.623323   166A      1.667213  
     167A      1.674518   168A      1.684634   169A      1.699582  
     170A      1.706269   171A      1.721342   172A      1.725695  
     173A      1.740357   174A      1.754367   175A      1.757578  
     176A      1.781592   177A      1.804017   178A      1.818392  
     179A      1.832961   180A      1.848811   181A      1.852250  
     182A      1.861321   183A      1.879461   184A      1.896836  
     185A      1.902433   186A      1.905427   187A      1.922103  
     188A      1.924343   189A      1.944114   190A      1.960285  
     191A      1.977029   192A      1.989029   193A      1.999074  
     194A      2.008844   195A      2.017115   196A      2.032931  
     197A      2.043921   198A      2.052771   199A      2.062089  
     200A      2.075924   201A      2.088535   202A      2.096335  
     203A      2.113168   204A      2.128110   205A      2.139030  
     206A      2.150681   207A      2.156313   208A      2.160613  
     209A      2.180244   210A      2.187907   211A      2.191185  
     212A      2.196967   213A      2.228042   214A      2.239211  
     215A      2.254177   216A      2.269222   217A      2.279377  
     218A      2.287481   219A      2.291562   220A      2.303610  
     221A      2.325392   222A      2.353601   223A      2.360713  
     224A      2.377230   225A      2.385149   226A      2.412846  
     227A      2.422096   228A      2.439540   229A      2.456247  
     230A      2.487011   231A      2.504100   232A      2.544541  
     233A      2.559732   234A      2.564688   235A      2.603248  
     236A      2.620346   237A      2.629371   238A      2.666747  
     239A      2.682692   240A      2.684978   241A      2.719319  
     242A      2.725684   243A      2.771167   244A      2.805213  
     245A      2.813421   246A      2.839983   247A      2.844673  
     248A      2.855547   249A      2.865419   250A      2.873176  
     251A      2.907336   252A      2.922801   253A      2.942943  
     254A      2.953798   255A      2.969857   256A      2.976695  
     257A      2.992881   258A      3.017136   259A      3.032317  
     260A      3.035403   261A      3.062155   262A      3.079136  
     263A      3.104807   264A      3.112569   265A      3.136153  
     266A      3.149876   267A      3.184561   268A      3.207221  
     269A      3.217749   270A      3.243731   271A      3.251685  
     272A      3.256199   273A      3.272757   274A      3.292927  
     275A      3.324071   276A      3.340898   277A      3.355872  
     278A      3.416322   279A      3.426632   280A      3.437974  
     281A      3.452913   282A      3.492386   283A      3.520183  
     284A      3.555625   285A      3.585680   286A      3.604504  
     287A      3.646988   288A      3.670749   289A      3.692241  
     290A      3.706244   291A      3.726397   292A      3.751779  
     293A      3.767431   294A      3.811221   295A      3.837825  
     296A      3.862680   297A      3.892868   298A      3.913672  
     299A      3.956124   300A      3.966395   301A      3.983518  
     302A      4.017015   303A      4.025960   304A      4.045419  
     305A      4.051245   306A      4.070689   307A      4.082315  
     308A      4.094008   309A      4.114687   310A      4.124250  
     311A      4.131136   312A      4.167991   313A      4.177627  
     314A      4.222229   315A      4.227822   316A      4.238573  
     317A      4.273264   318A      4.288682   319A      4.304337  
     320A      4.322280   321A      4.359205   322A      4.393357  
     323A      4.411232   324A      4.425349   325A      4.432204  
     326A      4.443344   327A      4.488559   328A      4.499044  
     329A      4.530427   330A      4.548720   331A      4.581480  
     332A      4.590763   333A      4.637770   334A      4.647536  
     335A      4.677904   336A      4.688306   337A      4.706481  
     338A      4.750924   339A      4.792051   340A      4.804647  
     341A      4.831651   342A      4.866844   343A      4.886628  
     344A      4.919685   345A      4.964564   346A      4.989190  
     347A      5.020471   348A      5.062102   349A      5.083115  
     350A      5.130410   351A      5.131356   352A      5.184263  
     353A      5.202163   354A      5.261774   355A      5.334164  
     356A      5.387179   357A      5.442822   358A      5.496721  
     359A      5.536129   360A      5.572534   361A      5.628579  
     362A      5.660580   363A      5.716315   364A      5.776062  
     365A      5.803145   366A      5.853594   367A      6.004857  
     368A      6.115438   369A      6.136042   370A      6.205521  
     371A      6.229142   372A      6.257841   373A      6.295290  
     374A      6.356363   375A      6.360231   376A      6.421929  
     377A      6.493851   378A      6.524743   379A      6.603016  
     380A      6.631860   381A      6.639066   382A      6.675569  
     383A      6.707578   384A      6.770686   385A      6.813797  
     386A      6.823572   387A      6.850591   388A      6.863926  
     389A      6.892995   390A      6.919950   391A      6.941137  
     392A      6.957192   393A      7.004994   394A      7.020168  
     395A      7.066280   396A      7.099242   397A      7.129379  
     398A      7.151285   399A      7.153981   400A      7.191584  
     401A      7.198257   402A      7.258454   403A      7.275084  
     404A      7.303124   405A      7.328908   406A      7.348100  
     407A      7.403307   408A      7.451275   409A      7.487989  
     410A      7.517372   411A      7.541238   412A      7.579777  
     413A      7.640497   414A      7.662089   415A      7.689213  
     416A      7.711462   417A      7.757882   418A      7.789549  
     419A      7.811408   420A      7.823119   421A      7.829054  
     422A      7.903100   423A      7.906229   424A      7.977457  
     425A      7.993425   426A      8.014026   427A      8.054508  
     428A      8.073832   429A      8.120439   430A      8.148006  
     431A      8.200342   432A      8.210469   433A      8.325450  
     434A      8.383509   435A      8.397778   436A      8.448808  
     437A      8.477874   438A      8.515875   439A      8.536823  
     440A      8.597220   441A      8.631124   442A      8.639047  
     443A      8.658701   444A      8.691267   445A      8.698269  
     446A      8.716931   447A      8.725970   448A      8.770499  
     449A      8.809705   450A      8.817585   451A      8.852378  
     452A      8.910921   453A      8.954096   454A      9.013069  
     455A      9.022409   456A      9.089530   457A      9.119836  
     458A      9.158609   459A      9.161320   460A      9.211393  
     461A      9.219028   462A      9.251953   463A      9.276647  
     464A      9.299590   465A      9.330106   466A      9.350688  
     467A      9.432194   468A      9.465295   469A      9.488990  
     470A      9.553212   471A      9.604668   472A      9.612508  
     473A      9.631024   474A      9.650602   475A      9.707544  
     476A      9.735356   477A      9.767785   478A      9.818305  
     479A      9.844380   480A      9.898330   481A      9.945873  
     482A      9.974257   483A     10.028666   484A     10.035132  
     485A     10.062578   486A     10.117009   487A     10.159890  
     488A     10.199054   489A     10.237547   490A     10.253295  
     491A     10.260239   492A     10.311204   493A     10.384363  
     494A     10.435949   495A     10.506811   496A     10.566900  
     497A     10.587757   498A     10.627797   499A     10.716710  
     500A     10.840304   501A     10.864371   502A     10.886447  
     503A     10.938209   504A     10.991858   505A     11.043512  
     506A     11.083921   507A     11.110010   508A     11.183908  
     509A     11.220727   510A     11.290919   511A     11.356821  
     512A     11.417524   513A     11.451940   514A     11.482219  
     515A     11.544841   516A     11.588623   517A     11.689640  
     518A     11.713019   519A     11.872230   520A     11.921407  
     521A     12.036215   522A     12.166443   523A     12.200057  
     524A     12.276455   525A     12.305322   526A     12.335826  
     527A     12.438152   528A     12.628747   529A     12.820036  
     530A     12.856495   531A     12.946947   532A     12.984775  
     533A     13.193694   534A     13.288976   535A     13.343341  
     536A     13.421666   537A     13.431967   538A     13.475095  
     539A     13.646890   540A     13.793705   541A     14.097987  
     542A     14.138534   543A     14.736938   544A     14.939093  
     545A     15.070630   546A     15.349262   547A     26.481012  
     548A     29.159736   549A     35.747131   550A     44.162002  

    Final Occupation by Irrep:
              A 
    DOCC [    16 ]

  @DF-RHF Final Energy:  -208.07612700209432

   => Energetics <=

    Nuclear Repulsion Energy =            121.8374314656488195
    One-Electron Energy =                -524.5997187295135973
    Two-Electron Energy =                 194.6861602617704534
    Total Energy =                       -208.0761270020943243

Computation Completed


Properties will be evaluated at   0.000000,   0.000000,   0.000000 [a0]

Properties computed using the SCF density matrix

  Nuclear Dipole Moment: [e a0]
     X:     6.4305      Y:    36.8076      Z:   140.0226

  Electronic Dipole Moment: [e a0]
     X:    -6.7332      Y:   -38.3545      Z:  -139.4326

  Dipole Moment: [e a0]
     X:    -0.3027      Y:    -1.5469      Z:     0.5901     Total:     1.6831

  Dipole Moment: [D]
     X:    -0.7695      Y:    -3.9319      Z:     1.4998     Total:     4.2780


*** tstop() called on node37.bme.utexas.edu at Sat Apr 11 18:23:59 2020
Module time:
	user time   =      82.46 seconds =       1.37 minutes
	system time =       4.26 seconds =       0.07 minutes
	total time  =         16 seconds =       0.27 minutes
Total time:
	user time   =     114.11 seconds =       1.90 minutes
	system time =       6.69 seconds =       0.11 minutes
	total time  =         23 seconds =       0.38 minutes

*** tstart() called on node37.bme.utexas.edu
*** at Sat Apr 11 18:23:59 2020


  //>>>>>>>>>>>>>>>>>>>>>>>>>>>>>>>>>>>//
  //               DFMP2               //
  //<<<<<<<<<<<<<<<<<<<<<<<<<<<<<<<<<<<//

   => Loading Basis Set <=

    Name: (AUG-CC-PVQZ AUX)
    Role: RIFIT
    Keyword: DF_BASIS_MP2
    atoms 1, 6     entry C          line   184 file /home/liuchw/anaconda3/envs/psi4env/share/psi4/basis/aug-cc-pvqz-ri.gbs 
    atoms 2        entry O          line   332 file /home/liuchw/anaconda3/envs/psi4env/share/psi4/basis/aug-cc-pvqz-ri.gbs 
    atoms 3        entry N          line   258 file /home/liuchw/anaconda3/envs/psi4env/share/psi4/basis/aug-cc-pvqz-ri.gbs 
    atoms 4-5, 7-9 entry H          line    30 file /home/liuchw/anaconda3/envs/psi4env/share/psi4/basis/aug-cc-pvqz-ri.gbs 

	 --------------------------------------------------------
	                          DF-MP2                         
	      2nd-Order Density-Fitted Moller-Plesset Theory     
	              RMP2 Wavefunction,   6 Threads             
	                                                         
	        Rob Parrish, Justin Turney, Andy Simmonett,      
	           Ed Hohenstein, and C. David Sherrill          
	 --------------------------------------------------------

   => Auxiliary Basis Set <=

  Basis Set: (AUG-CC-PVQZ AUX)
    Blend: AUG-CC-PVQZ-RI
    Number of shells: 244
    Number of basis function: 1072
    Number of Cartesian functions: 1473
    Spherical Harmonics?: true
    Max angular momentum: 5

	 --------------------------------------------------------
	                 NBF =   550, NAUX =  1072
	 --------------------------------------------------------
	   CLASS    FOCC     OCC    AOCC    AVIR     VIR    FVIR
	   PAIRS       0      16      16     534     534       0
	 --------------------------------------------------------

	-----------------------------------------------------------
	 ==================> DF-MP2 Energies <==================== 
	-----------------------------------------------------------
	 Reference Energy          =    -208.0761270020943243 [Eh]
	 Singles Energy            =      -0.0000000000000000 [Eh]
	 Same-Spin Energy          =      -0.2170888698378370 [Eh]
	 Opposite-Spin Energy      =      -0.7397106162082068 [Eh]
	 Correlation Energy        =      -0.9567994860460438 [Eh]
	 Total Energy              =    -209.0329264881403617 [Eh]
	-----------------------------------------------------------
	 ================> DF-SCS-MP2 Energies <================== 
	-----------------------------------------------------------
	 SCS Same-Spin Scale       =       0.3333333333333333 [-]
	 SCS Opposite-Spin Scale   =       1.2000000000000000 [-]
	 SCS Same-Spin Energy      =      -0.0723629566126123 [Eh]
	 SCS Opposite-Spin Energy  =      -0.8876527394498481 [Eh]
	 SCS Correlation Energy    =      -0.9600156960624604 [Eh]
	 SCS Total Energy          =    -209.0361426981567945 [Eh]
	-----------------------------------------------------------


*** tstop() called on node37.bme.utexas.edu at Sat Apr 11 18:24:08 2020
Module time:
	user time   =      31.79 seconds =       0.53 minutes
	system time =       3.01 seconds =       0.05 minutes
	total time  =          9 seconds =       0.15 minutes
Total time:
	user time   =     145.91 seconds =       2.43 minutes
	system time =       9.70 seconds =       0.16 minutes
	total time  =         32 seconds =       0.53 minutes

  //>>>>>>>>>>>>>>>>>>>>>>>>>>>>>>>>>>>//
  //  CBS Results: mp2/aug-cc-pv[tq]z  //
  //<<<<<<<<<<<<<<<<<<<<<<<<<<<<<<<<<<<//


   ==> HF <==

   HI-zeta (4) Energy:               -208.076127002094


   ==> Helgaker 2-point correlated extrapolation for method: MP2 <==

   LO-zeta (3) Energy:               -208.923314677129
   HI-zeta (4) Energy:               -209.032926488140
   Alpha (exponent) Value:             3.000000000000
   Extrapolated Energy:              -209.112913485365

   @Extrapolated MP2/(T,Q):          -209.112913485365



   ==> Helgaker 2-point correlated extrapolation for method: HF <==

   LO-zeta (3) Energy:               -208.062948260216
   HI-zeta (4) Energy:               -208.076127002094
   Alpha (exponent) Value:             3.000000000000
   Extrapolated Energy:              -208.085743921843

   @Extrapolated HF/(T,Q):           -208.085743921843


   ==> Components <==

  ---------------------------------------------------------------------------------------------------------
                          Method / Basis                      Rqd      Energy [Eh]   Variable
  ---------------------------------------------------------------------------------------------------------
                              hf / aug-cc-pvtz                  *    -208.06294826   HF TOTAL ENERGY
                             mp2 / aug-cc-pvtz                  *    -208.92331468   MP2 TOTAL ENERGY
                              hf / aug-cc-pvqz                  *    -208.07612700   HF TOTAL ENERGY
                             mp2 / aug-cc-pvqz                  *    -209.03292649   MP2 TOTAL ENERGY
  ---------------------------------------------------------------------------------------------------------

   ==> Stages <==

  ---------------------------------------------------------------------------------------------------------
      Stage               Method / Basis                       Wt      Energy [Eh]   Scheme
  ---------------------------------------------------------------------------------------------------------
        scf                   hf / aug-cc-pvqz                  1    -208.07612700   xtpl_highest_1
       corl                  mp2 / aug-cc-pv[tq]z               1    -209.11291349   corl_xtpl_helgaker_2
       corl                   hf / aug-cc-pv[tq]z              -1    -208.08574392   corl_xtpl_helgaker_2
  ---------------------------------------------------------------------------------------------------------

   ==> CBS <==

  ---------------------------------------------------------------------------------------------------------
      Stage               Method / Basis                               Energy [Eh]   Scheme
  ---------------------------------------------------------------------------------------------------------
        scf                   hf / aug-cc-pvqz                       -208.07612700   xtpl_highest_1
       corl                  mp2 / aug-cc-pv[tq]z                      -1.02716956   corl_xtpl_helgaker_2
      total                  CBS                                     -209.10329657   
  ---------------------------------------------------------------------------------------------------------
   => Loading Basis Set <=

    Name: DEF2-SVP
    Role: ORBITAL
    Keyword: BASIS
    atoms 1, 6     entry C          line    90 file /home/liuchw/anaconda3/envs/psi4env/share/psi4/basis/def2-svp.gbs 
    atoms 2        entry O          line   130 file /home/liuchw/anaconda3/envs/psi4env/share/psi4/basis/def2-svp.gbs 
    atoms 3        entry N          line   110 file /home/liuchw/anaconda3/envs/psi4env/share/psi4/basis/def2-svp.gbs 
    atoms 4-5, 7-9 entry H          line    15 file /home/liuchw/anaconda3/envs/psi4env/share/psi4/basis/def2-svp.gbs 


       N-Body: Complex Energy (fragments = (2,), basis = (2,):  -209.10329656561581)

       N-Body: Computing complex (2/4) with fragments (2,) in the basis of fragments (1, 2).


Scratch directory: /scratch//

  //>>>>>>>>>>>>>>>>>>>>>>>>>>>>>>>>>>>//
  //   CBS Setup: mp2/aug-cc-pv[tq]z   //
  //<<<<<<<<<<<<<<<<<<<<<<<<<<<<<<<<<<<//

    Naive listing of computations required.
             hf / aug-cc-pvqz              for  HF TOTAL ENERGY
            mp2 / aug-cc-pvtz              for  MP2 TOTAL ENERGY
            mp2 / aug-cc-pvqz              for  MP2 TOTAL ENERGY
             hf / aug-cc-pvtz              for  HF TOTAL ENERGY
             hf / aug-cc-pvqz              for  HF TOTAL ENERGY

    Enlightened listing of computations required.
            mp2 / aug-cc-pvtz              for  MP2 TOTAL ENERGY
            mp2 / aug-cc-pvqz              for  MP2 TOTAL ENERGY

    Full listing of computations to be obtained (required and bonus).
             hf / aug-cc-pvtz              for  HF TOTAL ENERGY
            mp2 / aug-cc-pvtz              for  MP2 TOTAL ENERGY
             hf / aug-cc-pvqz              for  HF TOTAL ENERGY
            mp2 / aug-cc-pvqz              for  MP2 TOTAL ENERGY

  //>>>>>>>>>>>>>>>>>>>>>>>>>>>>>>>>>>>>//
  // CBS Computation: MP2 / AUG-CC-PVTZ //
  //<<<<<<<<<<<<<<<<<<<<<<<<<<<<<<<<<<<<//


Scratch directory: /scratch//

*** tstart() called on node37.bme.utexas.edu
*** at Sat Apr 11 18:24:10 2020

   => Loading Basis Set <=

    Name: AUG-CC-PVTZ
    Role: ORBITAL
    Keyword: BASIS
    atoms 1, 3, 5, 7, 9, 11, 13, 18        entry C          line   239 file /home/liuchw/anaconda3/envs/psi4env/share/psi4/basis/aug-cc-pvtz.gbs 
    atoms 2, 4, 6, 8, 10, 12, 16-17, 19-21 entry H          line    40 file /home/liuchw/anaconda3/envs/psi4env/share/psi4/basis/aug-cc-pvtz.gbs 
    atoms 14                               entry O          line   331 file /home/liuchw/anaconda3/envs/psi4env/share/psi4/basis/aug-cc-pvtz.gbs 
    atoms 15                               entry N          line   285 file /home/liuchw/anaconda3/envs/psi4env/share/psi4/basis/aug-cc-pvtz.gbs 


         ---------------------------------------------------------
                                   SCF
               by Justin Turney, Rob Parrish, Andy Simmonett
                          and Daniel G. A. Smith
                              RHF Reference
                        6 Threads,  38146 MiB Core
         ---------------------------------------------------------

  ==> Geometry <==

    Molecular point group: c1
    Full point group: C1

    Geometry (in Angstrom), charge = 0, multiplicity = 1:

       Center              X                  Y                   Z               Mass       
    ------------   -----------------  -----------------  -----------------  -----------------
      Gh(C)           0.778560929813     0.203446517588    -0.869743589853    12.000000000000
      Gh(H)           1.436825929813     0.747594517588    -0.206731589853     1.007825032230
      Gh(C)           1.265896929813    -0.830464482412    -1.668340589853    12.000000000000
      Gh(H)           2.315883929813    -1.088430482412    -1.637534589853     1.007825032230
      Gh(C)           0.400806929813    -1.531786482412    -2.507313589853    12.000000000000
      Gh(H)           0.779083929813    -2.333993482412    -3.126321589853     1.007825032230
      Gh(C)          -0.951830070187    -1.197641482412    -2.549949589853    12.000000000000
      Gh(H)          -1.622406070187    -1.740785482412    -3.201913589853     1.007825032230
      Gh(C)          -1.439397070187    -0.162099482412    -1.753651589853    12.000000000000
      Gh(H)          -2.488571070187     0.098381517588    -1.788718589853     1.007825032230
      Gh(C)          -0.575444070187     0.538071517588    -0.912505589853    12.000000000000
      Gh(H)          -0.943111070187     1.335254517588    -0.281460589853     1.007825032230
         C            0.126000929813     0.726265517588     2.202109410147    12.000000000000
         O            0.372489929813     1.769692517588     1.614870410147    15.994914619570
         N           -0.178047070187    -0.428740482412     1.550942410147    14.003074004430
         H           -0.152846070187    -0.435756482412     0.544305410147     1.007825032230
         H           -0.333823070187    -1.284232482412     2.046644410147     1.007825032230
         C            0.148844929813     0.631374517588     3.710527410147    12.000000000000
         H            1.180558929813     0.715586517588     4.045601410147     1.007825032230
         H           -0.273059070187    -0.295268482412     4.091552410147     1.007825032230
         H           -0.400619070187     1.475220517588     4.117297410147     1.007825032230

  Running in c1 symmetry.

  Rotational constants: A =      0.10781  B =      0.02212  C =      0.02145 [cm^-1]
  Rotational constants: A =   3231.98845  B =    663.17350  C =    642.93250 [MHz]
  Nuclear repulsion =  121.837431465648820

  Charge       = 0
  Multiplicity = 1
  Electrons    = 32
  Nalpha       = 16
  Nbeta        = 16

  ==> Algorithm <==

  SCF Algorithm Type is DF.
  DIIS enabled.
  MOM disabled.
  Fractional occupation disabled.
  Guess Type is SAD.
  Energy threshold   = 1.00e-07
  Density threshold  = 1.00e-08
  Integral threshold = 0.00e+00

  ==> Primary Basis <==

  Basis Set: AUG-CC-PVTZ
    Blend: AUG-CC-PVTZ
    Number of shells: 239
    Number of basis function: 713
    Number of Cartesian functions: 825
    Spherical Harmonics?: true
    Max angular momentum: 3

   => Loading Basis Set <=

    Name: (AUG-CC-PVTZ AUX)
    Role: JKFIT
    Keyword: DF_BASIS_SCF
    atoms 1, 3, 5, 7, 9, 11, 13, 18        entry C          line   162 file /home/liuchw/anaconda3/envs/psi4env/share/psi4/basis/aug-cc-pvtz-jkfit.gbs 
    atoms 2, 4, 6, 8, 10, 12, 16-17, 19-21 entry H          line    70 file /home/liuchw/anaconda3/envs/psi4env/share/psi4/basis/aug-cc-pvtz-jkfit.gbs 
    atoms 14                               entry O          line   286 file /home/liuchw/anaconda3/envs/psi4env/share/psi4/basis/aug-cc-pvtz-jkfit.gbs 
    atoms 15                               entry N          line   224 file /home/liuchw/anaconda3/envs/psi4env/share/psi4/basis/aug-cc-pvtz-jkfit.gbs 

  ==> Pre-Iterations <==

   -------------------------------------------------------
    Irrep   Nso     Nmo     Nalpha   Nbeta   Ndocc  Nsocc
   -------------------------------------------------------
     A        713     713       0       0       0       0
   -------------------------------------------------------
    Total     713     713      16      16      16       0
   -------------------------------------------------------

  ==> Integral Setup <==

  DFHelper Memory: AOs need 5.529 GiB; user supplied 27.940 GiB. Using in-core AOs.

  ==> MemDFJK: Density-Fitted J/K Matrices <==

    J tasked:                   Yes
    K tasked:                   Yes
    wK tasked:                   No
    OpenMP threads:               6
    Memory [MiB]:             28610
    Algorithm:                 Core
    Schwarz Cutoff:           1E-12
    Mask sparsity (%):       8.0198
    Fitting Condition:        1E-10

   => Auxiliary Basis Set <=

  Basis Set: (AUG-CC-PVTZ AUX)
    Blend: AUG-CC-PVTZ-JKFIT
    Number of shells: 454
    Number of basis function: 1546
    Number of Cartesian functions: 1915
    Spherical Harmonics?: true
    Max angular momentum: 4

  Minimum eigenvalue in the overlap matrix is 2.6486593288E-07.
  Using Symmetric Orthogonalization.

  SCF Guess: Superposition of Atomic Densities via on-the-fly atomic UHF.

  ==> Iterations <==

                           Total Energy        Delta E     RMS |[F,P]|

   @DF-RHF iter SAD:  -207.23339971091832   -2.07233e+02   0.00000e+00 
   @DF-RHF iter   1:  -207.88578230589241   -6.52383e-01   8.56019e-04 DIIS
   @DF-RHF iter   2:  -208.01905073497164   -1.33268e-01   4.96062e-04 DIIS
   @DF-RHF iter   3:  -208.06026937980550   -4.12186e-02   9.22437e-05 DIIS
   @DF-RHF iter   4:  -208.06264635800102   -2.37698e-03   3.88616e-05 DIIS
   @DF-RHF iter   5:  -208.06314716925647   -5.00811e-04   7.10980e-06 DIIS
   @DF-RHF iter   6:  -208.06317750556516   -3.03363e-05   3.40847e-06 DIIS
   @DF-RHF iter   7:  -208.06318313931769   -5.63375e-06   1.26051e-06 DIIS
   @DF-RHF iter   8:  -208.06318434552560   -1.20621e-06   4.00861e-07 DIIS
   @DF-RHF iter   9:  -208.06318448812283   -1.42597e-07   1.03887e-07 DIIS
   @DF-RHF iter  10:  -208.06318449538210   -7.25927e-09   3.34040e-08 DIIS
   @DF-RHF iter  11:  -208.06318449601130   -6.29200e-10   8.79107e-09 DIIS
  Energy and wave function converged.


  ==> Post-Iterations <==

    Orbital Energies [Eh]
    ---------------------

    Doubly Occupied:                                                      

       1A    -20.515635     2A    -15.588708     3A    -11.353893  
       4A    -11.237832     5A     -1.376418     6A     -1.215296  
       7A     -1.006445     8A     -0.802066     9A     -0.729754  
      10A     -0.664871    11A     -0.616064    12A     -0.585511  
      13A     -0.563468    14A     -0.524995    15A     -0.424294  
      16A     -0.415678  

    Virtual:                                                              

      17A      0.015260    18A      0.026914    19A      0.031458  
      20A      0.039097    21A      0.042197    22A      0.046999  
      23A      0.054935    24A      0.058022    25A      0.059810  
      26A      0.067301    27A      0.075455    28A      0.083493  
      29A      0.091080    30A      0.091521    31A      0.098894  
      32A      0.102458    33A      0.107827    34A      0.109742  
      35A      0.119164    36A      0.124487    37A      0.127126  
      38A      0.128996    39A      0.132493    40A      0.134123  
      41A      0.138013    42A      0.138942    43A      0.143173  
      44A      0.151505    45A      0.156352    46A      0.159800  
      47A      0.163354    48A      0.163643    49A      0.168637  
      50A      0.171926    51A      0.178358    52A      0.181476  
      53A      0.192194    54A      0.196873    55A      0.200907  
      56A      0.202676    57A      0.203614    58A      0.208040  
      59A      0.225809    60A      0.233367    61A      0.237805  
      62A      0.245182    63A      0.248072    64A      0.249796  
      65A      0.255145    66A      0.263487    67A      0.275162  
      68A      0.276587    69A      0.284400    70A      0.288474  
      71A      0.293330    72A      0.295857    73A      0.302344  
      74A      0.311191    75A      0.318154    76A      0.318703  
      77A      0.324227    78A      0.326957    79A      0.330771  
      80A      0.335391    81A      0.338537    82A      0.341566  
      83A      0.342826    84A      0.348071    85A      0.352078  
      86A      0.358387    87A      0.363747    88A      0.367963  
      89A      0.372368    90A      0.376308    91A      0.377138  
      92A      0.379810    93A      0.389654    94A      0.391795  
      95A      0.400426    96A      0.403891    97A      0.408476  
      98A      0.410170    99A      0.414380   100A      0.417895  
     101A      0.424014   102A      0.426107   103A      0.430272  
     104A      0.434875   105A      0.439065   106A      0.444613  
     107A      0.448302   108A      0.449754   109A      0.457311  
     110A      0.465943   111A      0.470660   112A      0.483659  
     113A      0.487708   114A      0.489210   115A      0.494925  
     116A      0.500194   117A      0.504913   118A      0.517975  
     119A      0.519914   120A      0.526172   121A      0.531882  
     122A      0.537166   123A      0.545255   124A      0.546844  
     125A      0.550841   126A      0.556396   127A      0.562942  
     128A      0.564740   129A      0.569512   130A      0.571278  
     131A      0.581743   132A      0.592809   133A      0.598663  
     134A      0.602345   135A      0.612098   136A      0.615999  
     137A      0.623883   138A      0.625646   139A      0.629678  
     140A      0.636371   141A      0.639957   142A      0.649745  
     143A      0.650656   144A      0.654064   145A      0.667749  
     146A      0.669892   147A      0.673261   148A      0.686398  
     149A      0.692221   150A      0.693915   151A      0.701205  
     152A      0.706265   153A      0.710769   154A      0.713300  
     155A      0.721226   156A      0.724146   157A      0.725066  
     158A      0.730266   159A      0.733143   160A      0.743183  
     161A      0.748600   162A      0.755674   163A      0.757376  
     164A      0.760931   165A      0.771117   166A      0.778520  
     167A      0.779943   168A      0.781892   169A      0.792637  
     170A      0.805883   171A      0.807534   172A      0.816264  
     173A      0.821184   174A      0.827683   175A      0.831132  
     176A      0.839098   177A      0.840578   178A      0.859967  
     179A      0.861277   180A      0.873191   181A      0.881145  
     182A      0.882940   183A      0.890198   184A      0.898078  
     185A      0.908670   186A      0.912046   187A      0.914667  
     188A      0.925073   189A      0.929293   190A      0.934548  
     191A      0.943872   192A      0.951284   193A      0.957943  
     194A      0.959458   195A      0.970111   196A      0.978872  
     197A      1.002630   198A      1.008822   199A      1.015506  
     200A      1.025707   201A      1.031903   202A      1.035619  
     203A      1.048556   204A      1.050916   205A      1.056340  
     206A      1.059855   207A      1.065864   208A      1.074559  
     209A      1.075240   210A      1.083256   211A      1.085817  
     212A      1.091214   213A      1.093350   214A      1.107628  
     215A      1.110325   216A      1.113625   217A      1.117638  
     218A      1.130892   219A      1.131726   220A      1.139257  
     221A      1.147576   222A      1.149066   223A      1.165534  
     224A      1.169078   225A      1.174201   226A      1.180780  
     227A      1.187551   228A      1.193275   229A      1.197853  
     230A      1.198868   231A      1.207474   232A      1.212513  
     233A      1.214319   234A      1.220866   235A      1.226750  
     236A      1.235047   237A      1.248034   238A      1.251598  
     239A      1.255993   240A      1.261267   241A      1.268956  
     242A      1.271023   243A      1.278832   244A      1.282849  
     245A      1.288576   246A      1.294890   247A      1.298444  
     248A      1.300327   249A      1.305498   250A      1.311600  
     251A      1.313120   252A      1.315427   253A      1.324242  
     254A      1.329180   255A      1.333099   256A      1.340615  
     257A      1.356601   258A      1.368621   259A      1.383012  
     260A      1.391342   261A      1.394142   262A      1.395138  
     263A      1.401986   264A      1.412831   265A      1.419832  
     266A      1.426444   267A      1.429397   268A      1.438749  
     269A      1.442586   270A      1.454453   271A      1.461237  
     272A      1.467683   273A      1.475051   274A      1.478744  
     275A      1.482009   276A      1.495483   277A      1.503585  
     278A      1.507532   279A      1.515044   280A      1.517861  
     281A      1.533838   282A      1.539581   283A      1.551110  
     284A      1.557175   285A      1.565131   286A      1.569105  
     287A      1.571881   288A      1.575834   289A      1.587140  
     290A      1.594942   291A      1.608138   292A      1.617597  
     293A      1.618795   294A      1.620617   295A      1.630384  
     296A      1.631824   297A      1.652058   298A      1.655187  
     299A      1.660382   300A      1.666303   301A      1.669108  
     302A      1.674787   303A      1.684055   304A      1.696023  
     305A      1.700440   306A      1.702960   307A      1.708156  
     308A      1.718165   309A      1.722342   310A      1.735237  
     311A      1.742480   312A      1.748886   313A      1.765842  
     314A      1.777374   315A      1.780541   316A      1.791359  
     317A      1.803770   318A      1.812833   319A      1.820202  
     320A      1.838411   321A      1.843796   322A      1.863312  
     323A      1.866498   324A      1.875857   325A      1.886442  
     326A      1.898779   327A      1.913755   328A      1.922224  
     329A      1.927835   330A      1.937187   331A      1.943995  
     332A      1.962219   333A      1.965849   334A      1.970754  
     335A      1.989690   336A      2.001445   337A      2.019839  
     338A      2.030648   339A      2.039516   340A      2.047569  
     341A      2.056965   342A      2.064100   343A      2.078694  
     344A      2.102762   345A      2.111152   346A      2.119169  
     347A      2.125556   348A      2.134183   349A      2.144600  
     350A      2.159107   351A      2.164752   352A      2.180767  
     353A      2.185879   354A      2.190736   355A      2.197532  
     356A      2.210253   357A      2.220032   358A      2.226186  
     359A      2.240988   360A      2.246510   361A      2.248722  
     362A      2.260093   363A      2.272303   364A      2.292219  
     365A      2.299504   366A      2.308876   367A      2.313159  
     368A      2.322559   369A      2.333356   370A      2.340780  
     371A      2.346881   372A      2.352870   373A      2.359047  
     374A      2.362534   375A      2.378854   376A      2.388666  
     377A      2.393039   378A      2.394024   379A      2.404486  
     380A      2.410092   381A      2.429575   382A      2.442872  
     383A      2.454673   384A      2.456336   385A      2.478842  
     386A      2.482053   387A      2.494463   388A      2.505042  
     389A      2.514257   390A      2.517295   391A      2.525100  
     392A      2.534007   393A      2.544017   394A      2.555101  
     395A      2.565796   396A      2.571940   397A      2.579697  
     398A      2.591356   399A      2.601180   400A      2.628200  
     401A      2.633911   402A      2.647526   403A      2.662695  
     404A      2.686152   405A      2.705145   406A      2.712172  
     407A      2.717222   408A      2.742194   409A      2.761395  
     410A      2.775535   411A      2.789059   412A      2.805115  
     413A      2.812695   414A      2.816724   415A      2.862045  
     416A      2.870982   417A      2.884143   418A      2.894953  
     419A      2.899529   420A      2.924456   421A      2.925927  
     422A      2.954193   423A      2.956988   424A      2.984459  
     425A      3.005618   426A      3.016330   427A      3.028328  
     428A      3.049053   429A      3.055187   430A      3.077085  
     431A      3.118472   432A      3.131340   433A      3.140389  
     434A      3.156656   435A      3.162076   436A      3.190074  
     437A      3.203566   438A      3.297263   439A      3.300629  
     440A      3.318870   441A      3.337007   442A      3.365087  
     443A      3.438187   444A      3.450273   445A      3.492197  
     446A      3.527379   447A      3.540165   448A      3.570637  
     449A      3.592859   450A      3.613181   451A      3.623290  
     452A      3.634181   453A      3.669438   454A      3.678581  
     455A      3.725110   456A      3.760305   457A      3.788142  
     458A      3.799294   459A      3.835884   460A      3.857316  
     461A      3.872416   462A      3.881515   463A      3.902422  
     464A      3.940190   465A      3.945030   466A      3.959847  
     467A      3.964108   468A      3.975323   469A      3.984997  
     470A      3.989477   471A      4.007810   472A      4.038326  
     473A      4.040831   474A      4.043875   475A      4.070081  
     476A      4.080981   477A      4.087933   478A      4.090131  
     479A      4.104372   480A      4.114507   481A      4.117132  
     482A      4.128051   483A      4.140189   484A      4.147963  
     485A      4.164827   486A      4.165882   487A      4.190766  
     488A      4.201524   489A      4.206523   490A      4.222796  
     491A      4.224856   492A      4.251985   493A      4.264172  
     494A      4.272982   495A      4.304369   496A      4.317563  
     497A      4.327980   498A      4.329843   499A      4.334146  
     500A      4.345705   501A      4.356403   502A      4.363965  
     503A      4.375542   504A      4.384925   505A      4.392644  
     506A      4.410586   507A      4.418827   508A      4.435353  
     509A      4.452013   510A      4.469296   511A      4.483613  
     512A      4.487771   513A      4.503259   514A      4.516686  
     515A      4.532746   516A      4.540061   517A      4.544935  
     518A      4.549153   519A      4.566956   520A      4.577982  
     521A      4.593966   522A      4.600325   523A      4.605078  
     524A      4.612156   525A      4.619323   526A      4.627286  
     527A      4.631335   528A      4.654606   529A      4.669496  
     530A      4.675047   531A      4.694853   532A      4.733218  
     533A      4.738372   534A      4.757813   535A      4.774273  
     536A      4.782765   537A      4.804531   538A      4.807876  
     539A      4.824000   540A      4.851876   541A      4.866311  
     542A      4.873122   543A      4.887699   544A      4.918218  
     545A      4.926308   546A      4.948704   547A      4.956495  
     548A      4.958078   549A      4.975409   550A      4.978334  
     551A      4.998756   552A      5.008062   553A      5.018019  
     554A      5.030937   555A      5.045784   556A      5.068949  
     557A      5.085646   558A      5.094831   559A      5.096625  
     560A      5.108643   561A      5.121673   562A      5.124345  
     563A      5.135891   564A      5.164747   565A      5.178307  
     566A      5.186301   567A      5.205160   568A      5.210703  
     569A      5.215021   570A      5.229626   571A      5.248857  
     572A      5.255794   573A      5.263506   574A      5.271223  
     575A      5.287420   576A      5.296843   577A      5.300003  
     578A      5.331180   579A      5.368860   580A      5.376891  
     581A      5.389009   582A      5.406358   583A      5.419460  
     584A      5.435898   585A      5.444523   586A      5.456739  
     587A      5.471953   588A      5.478689   589A      5.500366  
     590A      5.507256   591A      5.523714   592A      5.536600  
     593A      5.552990   594A      5.584438   595A      5.604689  
     596A      5.614682   597A      5.639852   598A      5.665874  
     599A      5.675939   600A      5.684459   601A      5.689593  
     602A      5.701910   603A      5.716047   604A      5.729092  
     605A      5.732656   606A      5.749586   607A      5.771958  
     608A      5.775229   609A      5.780430   610A      5.789547  
     611A      5.822827   612A      5.828742   613A      5.843460  
     614A      5.862681   615A      5.887547   616A      5.910064  
     617A      5.939586   618A      5.963180   619A      5.994270  
     620A      6.001714   621A      6.008500   622A      6.039090  
     623A      6.051733   624A      6.062093   625A      6.079205  
     626A      6.113751   627A      6.142687   628A      6.150425  
     629A      6.156269   630A      6.163114   631A      6.169519  
     632A      6.192031   633A      6.199604   634A      6.219339  
     635A      6.244366   636A      6.295524   637A      6.304853  
     638A      6.406258   639A      6.425061   640A      6.437716  
     641A      6.485807   642A      6.494293   643A      6.528566  
     644A      6.542891   645A      6.572840   646A      6.704272  
     647A      6.717390   648A      6.744459   649A      6.762558  
     650A      6.805225   651A      6.838078   652A      6.863171  
     653A      6.917887   654A      6.935151   655A      6.944505  
     656A      6.963865   657A      7.037944   658A      7.092705  
     659A      7.110965   660A      7.127428   661A      7.170593  
     662A      7.174328   663A      7.196590   664A      7.221026  
     665A      7.249275   666A      7.377840   667A      7.414431  
     668A      7.433786   669A      7.460769   670A      7.477781  
     671A      7.516877   672A      7.522167   673A      7.547325  
     674A      7.641227   675A      7.667163   676A      7.691362  
     677A      7.705895   678A      7.716419   679A      7.767620  
     680A      7.821106   681A      7.824703   682A      7.937963  
     683A      7.987839   684A      8.038570   685A      8.108326  
     686A      8.142346   687A      8.206130   688A      8.221921  
     689A      8.241213   690A      8.349489   691A      8.401177  
     692A      9.021970   693A      9.032808   694A      9.380244  
     695A      9.463160   696A      9.540236   697A     10.088346  
     698A     10.137066   699A     11.001841   700A     11.068834  
     701A     11.405665   702A     11.411663   703A     11.673077  
     704A     15.964739   705A     17.597724   706A     18.965931  
     707A     20.691497   708A     50.059873   709A     50.738240  
     710A     55.017478   711A     56.255459   712A     56.949852  
     713A     57.694875  

    Final Occupation by Irrep:
              A 
    DOCC [    16 ]

  @DF-RHF Final Energy:  -208.06318449601130

   => Energetics <=

    Nuclear Repulsion Energy =            121.8374314656488195
    One-Electron Energy =                -524.5593735147748475
    Two-Electron Energy =                 194.6587575531147252
    Total Energy =                       -208.0631844960113028

Computation Completed


Properties will be evaluated at   0.000000,   0.000000,   0.000000 [a0]

Properties computed using the SCF density matrix

  Nuclear Dipole Moment: [e a0]
     X:     6.4305      Y:    36.8076      Z:   140.0226

  Electronic Dipole Moment: [e a0]
     X:    -6.7334      Y:   -38.3550      Z:  -139.4324

  Dipole Moment: [e a0]
     X:    -0.3028      Y:    -1.5474      Z:     0.5903     Total:     1.6836

  Dipole Moment: [D]
     X:    -0.7698      Y:    -3.9330      Z:     1.5003     Total:     4.2793


*** tstop() called on node37.bme.utexas.edu at Sat Apr 11 18:24:50 2020
Module time:
	user time   =     198.44 seconds =       3.31 minutes
	system time =       9.58 seconds =       0.16 minutes
	total time  =         40 seconds =       0.67 minutes
Total time:
	user time   =     346.61 seconds =       5.78 minutes
	system time =      19.34 seconds =       0.32 minutes
	total time  =         74 seconds =       1.23 minutes

*** tstart() called on node37.bme.utexas.edu
*** at Sat Apr 11 18:24:50 2020


  //>>>>>>>>>>>>>>>>>>>>>>>>>>>>>>>>>>>//
  //               DFMP2               //
  //<<<<<<<<<<<<<<<<<<<<<<<<<<<<<<<<<<<//

   => Loading Basis Set <=

    Name: (AUG-CC-PVTZ AUX)
    Role: RIFIT
    Keyword: DF_BASIS_MP2
    atoms 1, 3, 5, 7, 9, 11, 13, 18        entry C          line   148 file /home/liuchw/anaconda3/envs/psi4env/share/psi4/basis/aug-cc-pvtz-ri.gbs 
    atoms 2, 4, 6, 8, 10, 12, 16-17, 19-21 entry H          line    30 file /home/liuchw/anaconda3/envs/psi4env/share/psi4/basis/aug-cc-pvtz-ri.gbs 
    atoms 14                               entry O          line   264 file /home/liuchw/anaconda3/envs/psi4env/share/psi4/basis/aug-cc-pvtz-ri.gbs 
    atoms 15                               entry N          line   206 file /home/liuchw/anaconda3/envs/psi4env/share/psi4/basis/aug-cc-pvtz-ri.gbs 

	 --------------------------------------------------------
	                          DF-MP2                         
	      2nd-Order Density-Fitted Moller-Plesset Theory     
	              RMP2 Wavefunction,   6 Threads             
	                                                         
	        Rob Parrish, Justin Turney, Andy Simmonett,      
	           Ed Hohenstein, and C. David Sherrill          
	 --------------------------------------------------------

   => Auxiliary Basis Set <=

  Basis Set: (AUG-CC-PVTZ AUX)
    Blend: AUG-CC-PVTZ-RI
    Number of shells: 434
    Number of basis function: 1566
    Number of Cartesian functions: 1965
    Spherical Harmonics?: true
    Max angular momentum: 4

	 --------------------------------------------------------
	                 NBF =   713, NAUX =  1566
	 --------------------------------------------------------
	   CLASS    FOCC     OCC    AOCC    AVIR     VIR    FVIR
	   PAIRS       0      16      16     697     697       0
	 --------------------------------------------------------

	-----------------------------------------------------------
	 ==================> DF-MP2 Energies <==================== 
	-----------------------------------------------------------
	 Reference Energy          =    -208.0631844960113028 [Eh]
	 Singles Energy            =      -0.0000000000000000 [Eh]
	 Same-Spin Energy          =      -0.2048101117706925 [Eh]
	 Opposite-Spin Energy      =      -0.6586048602234664 [Eh]
	 Correlation Energy        =      -0.8634149719941588 [Eh]
	 Total Energy              =    -208.9265994680054632 [Eh]
	-----------------------------------------------------------
	 ================> DF-SCS-MP2 Energies <================== 
	-----------------------------------------------------------
	 SCS Same-Spin Scale       =       0.3333333333333333 [-]
	 SCS Opposite-Spin Scale   =       1.2000000000000000 [-]
	 SCS Same-Spin Energy      =      -0.0682700372568975 [Eh]
	 SCS Opposite-Spin Energy  =      -0.7903258322681597 [Eh]
	 SCS Correlation Energy    =      -0.8585958695250572 [Eh]
	 SCS Total Energy          =    -208.9217803655363639 [Eh]
	-----------------------------------------------------------


*** tstop() called on node37.bme.utexas.edu at Sat Apr 11 18:25:10 2020
Module time:
	user time   =      75.85 seconds =       1.26 minutes
	system time =       6.10 seconds =       0.10 minutes
	total time  =         20 seconds =       0.33 minutes
Total time:
	user time   =     422.46 seconds =       7.04 minutes
	system time =      25.44 seconds =       0.42 minutes
	total time  =         94 seconds =       1.57 minutes

  //>>>>>>>>>>>>>>>>>>>>>>>>>>>>>>>>>>>>//
  // CBS Computation: MP2 / AUG-CC-PVQZ //
  //<<<<<<<<<<<<<<<<<<<<<<<<<<<<<<<<<<<<//


Scratch directory: /scratch//

*** tstart() called on node37.bme.utexas.edu
*** at Sat Apr 11 18:25:10 2020

   => Loading Basis Set <=

    Name: AUG-CC-PVQZ
    Role: ORBITAL
[...]
     866A      5.635347   867A      5.667065   868A      5.668977  
     869A      5.673405   870A      5.696209   871A      5.727782  
     872A      5.729560   873A      5.746319   874A      5.783765  
     875A      5.792086   876A      5.809945   877A      5.838773  
     878A      5.854289   879A      5.858664   880A      5.866302  
     881A      5.908567   882A      5.967141   883A      6.006311  
     884A      6.009288   885A      6.016128   886A      6.041290  
     887A      6.068914   888A      6.075077   889A      6.099219  
     890A      6.108690   891A      6.123874   892A      6.127612  
     893A      6.134847   894A      6.144390   895A      6.218559  
     896A      6.235417   897A      6.262272   898A      6.268865  
     899A      6.270482   900A      6.280922   901A      6.298541  
     902A      6.299689   903A      6.300451   904A      6.303531  
     905A      6.316200   906A      6.340793   907A      6.361373  
     908A      6.364476   909A      6.373244   910A      6.374013  
     911A      6.393297   912A      6.400523   913A      6.400896  
     914A      6.406084   915A      6.436196   916A      6.449351  
     917A      6.453997   918A      6.479764   919A      6.501947  
     920A      6.506079   921A      6.529729   922A      6.550732  
     923A      6.561987   924A      6.608299   925A      6.618435  
     926A      6.619733   927A      6.636902   928A      6.645739  
     929A      6.658949   930A      6.669117   931A      6.673078  
     932A      6.683679   933A      6.695369   934A      6.697345  
     935A      6.699053   936A      6.707087   937A      6.714493  
     938A      6.750495   939A      6.753870   940A      6.775202  
     941A      6.794149   942A      6.798836   943A      6.805167  
     944A      6.817902   945A      6.829586   946A      6.835225  
     947A      6.847854   948A      6.852927   949A      6.857918  
     950A      6.866096   951A      6.896774   952A      6.909817  
     953A      6.916361   954A      6.922013   955A      6.933659  
     956A      6.937451   957A      6.945792   958A      6.955681  
     959A      6.955994   960A      6.963574   961A      6.966000  
     962A      6.974026   963A      6.982211   964A      6.990306  
     965A      7.011901   966A      7.021318   967A      7.024214  
     968A      7.025865   969A      7.071517   970A      7.094335  
     971A      7.104558   972A      7.106387   973A      7.108182  
     974A      7.113719   975A      7.116774   976A      7.133036  
     977A      7.136753   978A      7.152071   979A      7.152368  
     980A      7.155450   981A      7.157584   982A      7.195405  
     983A      7.196129   984A      7.198506   985A      7.202756  
     986A      7.211485   987A      7.215681   988A      7.236549  
     989A      7.258095   990A      7.259435   991A      7.264414  
     992A      7.269211   993A      7.279808   994A      7.282089  
     995A      7.308067   996A      7.309229   997A      7.312841  
     998A      7.334768   999A      7.354407  1000A      7.389416  
    1001A      7.396028  1002A      7.409861  1003A      7.410363  
    1004A      7.413409  1005A      7.414394  1006A      7.420976  
    1007A      7.424920  1008A      7.455418  1009A      7.458584  
    1010A      7.497233  1011A      7.522848  1012A      7.528758  
    1013A      7.529965  1014A      7.548419  1015A      7.571063  
    1016A      7.574913  1017A      7.588800  1018A      7.589757  
    1019A      7.592360  1020A      7.604965  1021A      7.630204  
    1022A      7.648978  1023A      7.667618  1024A      7.670068  
    1025A      7.673644  1026A      7.699488  1027A      7.713558  
    1028A      7.714906  1029A      7.718793  1030A      7.748906  
    1031A      7.749346  1032A      7.768251  1033A      7.787975  
    1034A      7.792726  1035A      7.816561  1036A      7.828083  
    1037A      7.836035  1038A      7.840246  1039A      7.842397  
    1040A      7.843990  1041A      7.875523  1042A      7.888137  
    1043A      7.907690  1044A      7.912484  1045A      7.945503  
    1046A      7.947935  1047A      7.950571  1048A      7.975935  
    1049A      7.976628  1050A      7.982639  1051A      8.002079  
    1052A      8.018620  1053A      8.020014  1054A      8.025996  
    1055A      8.032454  1056A      8.055146  1057A      8.063133  
    1058A      8.064850  1059A      8.082783  1060A      8.096947  
    1061A      8.124358  1062A      8.160242  1063A      8.185469  
    1064A      8.209523  1065A      8.213754  1066A      8.248142  
    1067A      8.266149  1068A      8.280329  1069A      8.301877  
    1070A      8.308180  1071A      8.313613  1072A      8.326613  
    1073A      8.332676  1074A      8.359951  1075A      8.371206  
    1076A      8.373938  1077A      8.394048  1078A      8.410840  
    1079A      8.450490  1080A      8.453997  1081A      8.454511  
    1082A      8.460152  1083A      8.465870  1084A      8.484811  
    1085A      8.522153  1086A      8.541859  1087A      8.546901  
    1088A      8.602586  1089A      8.634698  1090A      8.642816  
    1091A      8.660670  1092A      8.667084  1093A      8.670019  
    1094A      8.671607  1095A      8.679790  1096A      8.696825  
    1097A      8.711359  1098A      8.715414  1099A      8.727661  
    1100A      8.728245  1101A      8.732104  1102A      8.732435  
    1103A      8.736530  1104A      8.779332  1105A      8.779761  
    1106A      8.785207  1107A      8.786397  1108A      8.798965  
    1109A      8.822416  1110A      8.828596  1111A      8.857014  
    1112A      8.868355  1113A      8.868976  1114A      8.921515  
    1115A      8.936895  1116A      8.939541  1117A      8.945740  
    1118A      8.947847  1119A      8.961417  1120A      9.001450  
    1121A      9.007515  1122A      9.021048  1123A      9.033137  
    1124A      9.053739  1125A      9.065826  1126A      9.066038  
    1127A      9.084913  1128A      9.087784  1129A      9.096333  
    1130A      9.131652  1131A      9.132829  1132A      9.143817  
    1133A      9.162852  1134A      9.166565  1135A      9.221136  
    1136A      9.225186  1137A      9.262243  1138A      9.280866  
    1139A      9.301780  1140A      9.306647  1141A      9.329930  
    1142A      9.332688  1143A      9.335257  1144A      9.353635  
    1145A      9.425991  1146A      9.433606  1147A      9.438952  
    1148A      9.440437  1149A      9.455590  1150A      9.470956  
    1151A      9.473999  1152A      9.494673  1153A      9.515769  
    1154A      9.517312  1155A      9.538689  1156A      9.547946  
    1157A      9.565069  1158A      9.598080  1159A      9.599358  
    1160A      9.602689  1161A      9.609702  1162A      9.610769  
    1163A      9.612425  1164A      9.621810  1165A      9.636474  
    1166A      9.637146  1167A      9.654021  1168A      9.714761  
    1169A      9.723205  1170A      9.723465  1171A      9.739701  
    1172A      9.773359  1173A      9.821246  1174A      9.835435  
    1175A      9.849653  1176A      9.862181  1177A      9.880609  
    1178A      9.894338  1179A      9.900530  1180A      9.902314  
    1181A      9.954675  1182A      9.978761  1183A     10.029862  
    1184A     10.034177  1185A     10.037268  1186A     10.046522  
    1187A     10.054664  1188A     10.055635  1189A     10.071961  
    1190A     10.116852  1191A     10.125155  1192A     10.129752  
    1193A     10.139292  1194A     10.165773  1195A     10.206868  
    1196A     10.242029  1197A     10.244844  1198A     10.259419  
    1199A     10.264860  1200A     10.266346  1201A     10.270654  
    1202A     10.314211  1203A     10.326189  1204A     10.333528  
    1205A     10.336198  1206A     10.337662  1207A     10.384636  
    1208A     10.391384  1209A     10.397120  1210A     10.438079  
    1211A     10.488142  1212A     10.491814  1213A     10.509781  
    1214A     10.570825  1215A     10.573538  1216A     10.580957  
    1217A     10.607164  1218A     10.609764  1219A     10.634410  
    1220A     10.721456  1221A     10.726620  1222A     10.733093  
    1223A     10.783522  1224A     10.792962  1225A     10.826670  
    1226A     10.831563  1227A     10.839459  1228A     10.843737  
    1229A     10.860482  1230A     10.867866  1231A     10.889797  
    1232A     10.919673  1233A     10.944793  1234A     10.997769  
    1235A     11.048346  1236A     11.067274  1237A     11.089905  
    1238A     11.093006  1239A     11.119012  1240A     11.122348  
    1241A     11.131142  1242A     11.185790  1243A     11.223369  
    1244A     11.293481  1245A     11.359320  1246A     11.369250  
    1247A     11.421758  1248A     11.454510  1249A     11.484454  
    1250A     11.486353  1251A     11.500223  1252A     11.528398  
    1253A     11.554059  1254A     11.592778  1255A     11.673488  
    1256A     11.685476  1257A     11.700608  1258A     11.718264  
    1259A     11.755271  1260A     11.771616  1261A     11.794995  
    1262A     11.886345  1263A     11.941778  1264A     12.042472  
    1265A     12.171826  1266A     12.205950  1267A     12.279464  
    1268A     12.310343  1269A     12.339222  1270A     12.443026  
    1271A     12.511028  1272A     12.634472  1273A     12.828018  
    1274A     12.861067  1275A     12.952883  1276A     12.990554  
    1277A     13.128983  1278A     13.200946  1279A     13.294456  
    1280A     13.339582  1281A     13.350805  1282A     13.353186  
    1283A     13.434097  1284A     13.442012  1285A     13.448976  
    1286A     13.465906  1287A     13.485918  1288A     13.666321  
    1289A     13.730045  1290A     13.800981  1291A     14.100856  
    1292A     14.145302  1293A     14.741780  1294A     14.949967  
    1295A     15.078128  1296A     15.377437  1297A     26.193616  
    1298A     26.213217  1299A     26.498423  1300A     26.664331  
    1301A     26.788401  1302A     27.205416  1303A     27.208657  
    1304A     29.168399  1305A     35.766950  1306A     44.174722  

    Final Occupation by Irrep:
              A 
    DOCC [    37 ]

  @DF-RHF Final Energy:  -438.87113734174932

   => Energetics <=

    Nuclear Repulsion Energy =            428.2755346863065711
    One-Electron Energy =               -1444.1663597070132710
    Two-Electron Energy =                 577.0196876789573253
    Total Energy =                       -438.8711373417493178

Computation Completed


Properties will be evaluated at   0.000000,   0.000000,   0.000000 [a0]

Properties computed using the SCF density matrix

  Nuclear Dipole Moment: [e a0]
     X:    -0.5928      Y:    -3.0155      Z:     5.0200

  Electronic Dipole Moment: [e a0]
     X:     0.2998      Y:     1.5251      Z:    -4.3851

  Dipole Moment: [e a0]
     X:    -0.2930      Y:    -1.4904      Z:     0.6350     Total:     1.6463

  Dipole Moment: [D]
     X:    -0.7446      Y:    -3.7883      Z:     1.6139     Total:     4.1846


*** tstop() called on node62.bme.utexas.edu at Thu Apr 23 19:27:59 2020
Module time:
	user time   =    2509.00 seconds =      41.82 minutes
	system time =     173.96 seconds =       2.90 minutes
	total time  =        355 seconds =       5.92 minutes
Total time:
	user time   =    8929.99 seconds =     148.83 minutes
	system time =     705.53 seconds =      11.76 minutes
	total time  =       1351 seconds =      22.52 minutes

*** tstart() called on node62.bme.utexas.edu
*** at Thu Apr 23 19:27:59 2020


  //>>>>>>>>>>>>>>>>>>>>>>>>>>>>>>>>>>>//
  //               DFMP2               //
  //<<<<<<<<<<<<<<<<<<<<<<<<<<<<<<<<<<<//

   => Loading Basis Set <=

    Name: (AUG-CC-PVQZ AUX)
    Role: RIFIT
    Keyword: DF_BASIS_MP2
    atoms 1, 3, 5, 7, 9, 11, 13, 18        entry C          line   184 file /home/liuchw/anaconda3/envs/psi4env/share/psi4/basis/aug-cc-pvqz-ri.gbs 
    atoms 2, 4, 6, 8, 10, 12, 16-17, 19-21 entry H          line    30 file /home/liuchw/anaconda3/envs/psi4env/share/psi4/basis/aug-cc-pvqz-ri.gbs 
    atoms 14                               entry O          line   332 file /home/liuchw/anaconda3/envs/psi4env/share/psi4/basis/aug-cc-pvqz-ri.gbs 
    atoms 15                               entry N          line   258 file /home/liuchw/anaconda3/envs/psi4env/share/psi4/basis/aug-cc-pvqz-ri.gbs 

	 --------------------------------------------------------
	                          DF-MP2                         
	      2nd-Order Density-Fitted Moller-Plesset Theory     
	              RMP2 Wavefunction,   8 Threads             
	                                                         
	        Rob Parrish, Justin Turney, Andy Simmonett,      
	           Ed Hohenstein, and C. David Sherrill          
	 --------------------------------------------------------

   => Auxiliary Basis Set <=

  Basis Set: (AUG-CC-PVQZ AUX)
    Blend: AUG-CC-PVQZ-RI
    Number of shells: 580
    Number of basis function: 2560
    Number of Cartesian functions: 3525
    Spherical Harmonics?: true
    Max angular momentum: 5

	 --------------------------------------------------------
	                 NBF =  1306, NAUX =  2560
	 --------------------------------------------------------
	   CLASS    FOCC     OCC    AOCC    AVIR     VIR    FVIR
	   PAIRS       0      37      37    1269    1269       0
	 --------------------------------------------------------

	-----------------------------------------------------------
	 ==================> DF-MP2 Energies <==================== 
	-----------------------------------------------------------
	 Reference Energy          =    -438.8711373417493178 [Eh]
	 Singles Energy            =      -0.0000000000000000 [Eh]
	 Same-Spin Energy          =      -0.4871997911383374 [Eh]
	 Opposite-Spin Energy      =      -1.6581083476740857 [Eh]
	 Correlation Energy        =      -2.1453081388124229 [Eh]
	 Total Energy              =    -441.0164454805617424 [Eh]
	-----------------------------------------------------------
	 ================> DF-SCS-MP2 Energies <================== 
	-----------------------------------------------------------
	 SCS Same-Spin Scale       =       0.3333333333333333 [-]
	 SCS Opposite-Spin Scale   =       1.2000000000000000 [-]
	 SCS Same-Spin Energy      =      -0.1623999303794458 [Eh]
	 SCS Opposite-Spin Energy  =      -1.9897300172089027 [Eh]
	 SCS Correlation Energy    =      -2.1521299475883486 [Eh]
	 SCS Total Energy          =    -441.0232672893376389 [Eh]
	-----------------------------------------------------------


*** tstop() called on node62.bme.utexas.edu at Thu Apr 23 19:29:47 2020
Module time:
	user time   =     627.08 seconds =      10.45 minutes
	system time =      43.82 seconds =       0.73 minutes
	total time  =        108 seconds =       1.80 minutes
Total time:
	user time   =    9557.07 seconds =     159.28 minutes
	system time =     749.36 seconds =      12.49 minutes
	total time  =       1459 seconds =      24.32 minutes

  //>>>>>>>>>>>>>>>>>>>>>>>>>>>>>>>>>>>//
  //  CBS Results: mp2/aug-cc-pv[tq]z  //
  //<<<<<<<<<<<<<<<<<<<<<<<<<<<<<<<<<<<//


   ==> HF <==

   HI-zeta (4) Energy:               -438.871137341749


   ==> Helgaker 2-point correlated extrapolation for method: MP2 <==

   LO-zeta (3) Energy:               -440.779542055597
   HI-zeta (4) Energy:               -441.016445480562
   Alpha (exponent) Value:             3.000000000000
   Extrapolated Energy:              -441.189320952833

   @Extrapolated MP2/(T,Q):          -441.189320952833



   ==> Helgaker 2-point correlated extrapolation for method: HF <==

   LO-zeta (3) Energy:               -438.844814342167
   HI-zeta (4) Energy:               -438.871137341749
   Alpha (exponent) Value:             3.000000000000
   Extrapolated Energy:              -438.890346017120

   @Extrapolated HF/(T,Q):           -438.890346017120


   ==> Components <==

  ---------------------------------------------------------------------------------------------------------
                          Method / Basis                      Rqd      Energy [Eh]   Variable
  ---------------------------------------------------------------------------------------------------------
                              hf / aug-cc-pvtz                  *    -438.84481434   HF TOTAL ENERGY
                             mp2 / aug-cc-pvtz                  *    -440.77954206   MP2 TOTAL ENERGY
                              hf / aug-cc-pvqz                  *    -438.87113734   HF TOTAL ENERGY
                             mp2 / aug-cc-pvqz                  *    -441.01644548   MP2 TOTAL ENERGY
  ---------------------------------------------------------------------------------------------------------

   ==> Stages <==

  ---------------------------------------------------------------------------------------------------------
      Stage               Method / Basis                       Wt      Energy [Eh]   Scheme
  ---------------------------------------------------------------------------------------------------------
        scf                   hf / aug-cc-pvqz                  1    -438.87113734   xtpl_highest_1
       corl                  mp2 / aug-cc-pv[tq]z               1    -441.18932095   corl_xtpl_helgaker_2
       corl                   hf / aug-cc-pv[tq]z              -1    -438.89034602   corl_xtpl_helgaker_2
  ---------------------------------------------------------------------------------------------------------

   ==> CBS <==

  ---------------------------------------------------------------------------------------------------------
      Stage               Method / Basis                               Energy [Eh]   Scheme
  ---------------------------------------------------------------------------------------------------------
        scf                   hf / aug-cc-pvqz                       -438.87113734   xtpl_highest_1
       corl                  mp2 / aug-cc-pv[tq]z                      -2.29897494   corl_xtpl_helgaker_2
      total                  CBS                                     -441.17011228   
  ---------------------------------------------------------------------------------------------------------
   => Loading Basis Set <=

    Name: DEF2-SVP
    Role: ORBITAL
    Keyword: BASIS
    atoms 1, 3, 5, 7, 9, 11, 13, 18        entry C          line    90 file /home/liuchw/anaconda3/envs/psi4env/share/psi4/basis/def2-svp.gbs 
    atoms 2, 4, 6, 8, 10, 12, 16-17, 19-21 entry H          line    15 file /home/liuchw/anaconda3/envs/psi4env/share/psi4/basis/def2-svp.gbs 
    atoms 14                               entry O          line   130 file /home/liuchw/anaconda3/envs/psi4env/share/psi4/basis/def2-svp.gbs 
    atoms 15                               entry N          line   110 file /home/liuchw/anaconda3/envs/psi4env/share/psi4/basis/def2-svp.gbs 


       N-Body: Complex Energy (fragments = (1, 2), basis = (1, 2):  -441.17011227746235)

   ==> N-Body: Counterpoise Corrected (CP) energies <==

   n-Body     Total Energy [Eh]       I.E. [kcal/mol]      Delta [kcal/mol]
        1     -441.169205161364        0.000000000000        0.000000000000
        2     -441.170181540849       -0.612687376730       -0.612687376730

   => Loading Basis Set <=

    Name: DEF2-SVP
    Role: ORBITAL
    Keyword: BASIS
    atoms 1, 3, 5, 7, 9, 11, 13, 18        entry C          line    90 file /home/liuchw/anaconda3/envs/psi4env/share/psi4/basis/def2-svp.gbs 
    atoms 2, 4, 6, 8, 10, 12, 16-17, 19-21 entry H          line    15 file /home/liuchw/anaconda3/envs/psi4env/share/psi4/basis/def2-svp.gbs 
    atoms 14                               entry O          line   130 file /home/liuchw/anaconda3/envs/psi4env/share/psi4/basis/def2-svp.gbs 
    atoms 15                               entry N          line   110 file /home/liuchw/anaconda3/envs/psi4env/share/psi4/basis/def2-svp.gbs 


    Psi4 stopped on: Thursday, 23 April 2020 07:29PM
    Psi4 wall time for execution: 0:24:20.52

*** Psi4 exiting successfully. Buy a developer a beer!
