
    -----------------------------------------------------------------------
          Psi4: An Open-Source Ab Initio Electronic Structure Package
                               Psi4 1.4a2.dev224 

                         Git: Rev {master} e453b16 


    R. M. Parrish, L. A. Burns, D. G. A. Smith, A. C. Simmonett,
    A. E. DePrince III, E. G. Hohenstein, U. Bozkaya, A. Yu. Sokolov,
    R. Di Remigio, R. M. Richard, J. F. Gonthier, A. M. James,
    H. R. McAlexander, A. Kumar, M. Saitow, X. Wang, B. P. Pritchard,
    P. Verma, H. F. Schaefer III, K. Patkowski, R. A. King, E. F. Valeev,
    F. A. Evangelista, J. M. Turney, T. D. Crawford, and C. D. Sherrill,
    J. Chem. Theory Comput. 13(7) pp 3185--3197 (2017).
    (doi: 10.1021/acs.jctc.7b00174)


                         Additional Contributions by
    P. Kraus, H. Kruse, M. H. Lechner, M. C. Schieber, R. A. Shaw,
    A. Alenaizan, R. Galvelis, Z. L. Glick, S. Lehtola, and J. P. Misiewicz

    -----------------------------------------------------------------------


    Psi4 started on: Saturday, 11 April 2020 12:16PM

    Process ID: 61071
    Host:       node73.bme.utexas.edu
    PSIDATADIR: /home/liuchw/anaconda3/envs/psi4env/share/psi4
    Memory:     500.0 MiB
    Threads:    6
    
  ==> Input File <==

--------------------------------------------------------------------------
#Generated by lconvert.py for cbs job

memory 40 GB

molecule  {
0 1
  C        0.7597490     1.0312750     0.3737720
  H        1.4350160     1.8756640     0.3747050
  C        1.2666180    -0.2673620     0.4212730
  H        2.3349160    -0.4291800     0.4594320
  C        0.3953210    -1.3559910     0.4249050
  H        0.7886620    -2.3624930     0.4630350
  C       -0.9822060    -1.1466540     0.3812700
  H       -1.6576560    -1.9911400     0.3851210
  C       -1.4893460     0.1511500     0.3375720
  H       -2.5579470     0.3137500     0.3077190
  C       -0.6187750     1.2403310     0.3338840
  H       -1.0117620     2.2471070     0.3043690
--
0 1
  O        0.0901860     0.3302650     3.1619210
  H        0.1762860     0.3801380     2.2047270
  C       -0.8059640    -0.7273500     3.4449760
  H       -0.9016850    -0.7840840     4.5259120
  H       -1.7981140    -0.5556520     3.0211850
  H       -0.4395040    -1.6903910     3.0820640
units angstrom
no_reorient
symmetry c1
}

set {
scf_type DF
mp2_type DF
e_convergence 7
reference rhf
}

energy('mp2/aug-cc-pv[tq]z', bsse_type='cp')
--------------------------------------------------------------------------

  Memory set to  37.253 GiB by Python driver.

Scratch directory: /scratch//


   ===> N-Body Interaction Abacus <===
        BSSE Treatment:                     cp
        Number of 1-body computations:     4
        Number of 2-body computations:     1

   ==> N-Body: Now computing 1-body complexes <==


       N-Body: Computing complex (1/4) with fragments (2,) in the basis of fragments (2,).


Scratch directory: /scratch//

  //>>>>>>>>>>>>>>>>>>>>>>>>>>>>>>>>>>>//
  //   CBS Setup: mp2/aug-cc-pv[tq]z   //
  //<<<<<<<<<<<<<<<<<<<<<<<<<<<<<<<<<<<//

    Naive listing of computations required.
             hf / aug-cc-pvqz              for  HF TOTAL ENERGY
            mp2 / aug-cc-pvtz              for  MP2 TOTAL ENERGY
            mp2 / aug-cc-pvqz              for  MP2 TOTAL ENERGY
             hf / aug-cc-pvtz              for  HF TOTAL ENERGY
             hf / aug-cc-pvqz              for  HF TOTAL ENERGY

    Enlightened listing of computations required.
            mp2 / aug-cc-pvtz              for  MP2 TOTAL ENERGY
            mp2 / aug-cc-pvqz              for  MP2 TOTAL ENERGY

    Full listing of computations to be obtained (required and bonus).
             hf / aug-cc-pvtz              for  HF TOTAL ENERGY
            mp2 / aug-cc-pvtz              for  MP2 TOTAL ENERGY
             hf / aug-cc-pvqz              for  HF TOTAL ENERGY
            mp2 / aug-cc-pvqz              for  MP2 TOTAL ENERGY

  //>>>>>>>>>>>>>>>>>>>>>>>>>>>>>>>>>>>>//
  // CBS Computation: MP2 / AUG-CC-PVTZ //
  //<<<<<<<<<<<<<<<<<<<<<<<<<<<<<<<<<<<<//


Scratch directory: /scratch//

*** tstart() called on node73.bme.utexas.edu
*** at Sat Apr 11 12:16:57 2020

   => Loading Basis Set <=

    Name: AUG-CC-PVTZ
    Role: ORBITAL
    Keyword: BASIS
    atoms 1      entry O          line   331 file /home/liuchw/anaconda3/envs/psi4env/share/psi4/basis/aug-cc-pvtz.gbs 
    atoms 2, 4-6 entry H          line    40 file /home/liuchw/anaconda3/envs/psi4env/share/psi4/basis/aug-cc-pvtz.gbs 
    atoms 3      entry C          line   239 file /home/liuchw/anaconda3/envs/psi4env/share/psi4/basis/aug-cc-pvtz.gbs 


         ---------------------------------------------------------
                                   SCF
               by Justin Turney, Rob Parrish, Andy Simmonett
                          and Daniel G. A. Smith
                              RHF Reference
                        6 Threads,  38146 MiB Core
         ---------------------------------------------------------

  ==> Geometry <==

    Molecular point group: c1
    Full point group: C1

    Geometry (in Angstrom), charge = 0, multiplicity = 1:

       Center              X                  Y                   Z               Mass       
    ------------   -----------------  -----------------  -----------------  -----------------
         O            0.271092268106     0.426858738575     1.940613983959    15.994914619570
         H            0.357192268106     0.476731738575     0.983419983959     1.007825032230
         C           -0.625057731894    -0.630756261425     2.223668983959    12.000000000000
         H           -0.720778731894    -0.687490261425     3.304604983959     1.007825032230
         H           -1.617207731894    -0.459058261425     1.799877983959     1.007825032230
         H           -0.258597731894    -1.593797261425     1.860756983959     1.007825032230

  Running in c1 symmetry.

  Rotational constants: A =      0.92836  B =      0.11862  C =      0.10730 [cm^-1]
  Rotational constants: A =  27831.61926  B =   3556.09888  C =   3216.66220 [MHz]
  Nuclear repulsion =   40.415213832708822

  Charge       = 0
  Multiplicity = 1
  Electrons    = 18
  Nalpha       = 9
  Nbeta        = 9

  ==> Algorithm <==

  SCF Algorithm Type is DF.
  DIIS enabled.
  MOM disabled.
  Fractional occupation disabled.
  Guess Type is SAD.
  Energy threshold   = 1.00e-07
  Density threshold  = 1.00e-08
  Integral threshold = 0.00e+00

  ==> Primary Basis <==

  Basis Set: AUG-CC-PVTZ
    Blend: AUG-CC-PVTZ
    Number of shells: 64
    Number of basis function: 184
    Number of Cartesian functions: 210
    Spherical Harmonics?: true
    Max angular momentum: 3

   => Loading Basis Set <=

    Name: (AUG-CC-PVTZ AUX)
    Role: JKFIT
    Keyword: DF_BASIS_SCF
    atoms 1      entry O          line   286 file /home/liuchw/anaconda3/envs/psi4env/share/psi4/basis/aug-cc-pvtz-jkfit.gbs 
    atoms 2, 4-6 entry H          line    70 file /home/liuchw/anaconda3/envs/psi4env/share/psi4/basis/aug-cc-pvtz-jkfit.gbs 
    atoms 3      entry C          line   162 file /home/liuchw/anaconda3/envs/psi4env/share/psi4/basis/aug-cc-pvtz-jkfit.gbs 

  ==> Pre-Iterations <==

   -------------------------------------------------------
    Irrep   Nso     Nmo     Nalpha   Nbeta   Ndocc  Nsocc
   -------------------------------------------------------
     A        184     184       0       0       0       0
   -------------------------------------------------------
    Total     184     184       9       9       9       0
   -------------------------------------------------------

  ==> Integral Setup <==

  DFHelper Memory: AOs need 0.108 GiB; user supplied 27.940 GiB. Using in-core AOs.

  ==> MemDFJK: Density-Fitted J/K Matrices <==

    J tasked:                   Yes
    K tasked:                   Yes
    wK tasked:                   No
    OpenMP threads:               6
    Memory [MiB]:             28610
    Algorithm:                 Core
    Schwarz Cutoff:           1E-12
    Mask sparsity (%):       0.0000
    Fitting Condition:        1E-10

   => Auxiliary Basis Set <=

  Basis Set: (AUG-CC-PVTZ AUX)
    Blend: AUG-CC-PVTZ-JKFIT
    Number of shells: 116
    Number of basis function: 392
    Number of Cartesian functions: 482
    Spherical Harmonics?: true
    Max angular momentum: 4

  Minimum eigenvalue in the overlap matrix is 6.2449644869E-05.
  Using Symmetric Orthogonalization.

  SCF Guess: Superposition of Atomic Densities via on-the-fly atomic UHF.

  ==> Iterations <==

                           Total Energy        Delta E     RMS |[F,P]|

   @DF-RHF iter SAD:  -114.39132405071418   -1.14391e+02   0.00000e+00 
   @DF-RHF iter   1:  -115.00593016148909   -6.14606e-01   2.30157e-03 DIIS
   @DF-RHF iter   2:  -115.07000169651857   -6.40715e-02   1.35959e-03 DIIS
   @DF-RHF iter   3:  -115.09092680255840   -2.09251e-02   2.01371e-04 DIIS
   @DF-RHF iter   4:  -115.09189974876644   -9.72946e-04   6.34378e-05 DIIS
   @DF-RHF iter   5:  -115.09199395884944   -9.42101e-05   1.43996e-05 DIIS
   @DF-RHF iter   6:  -115.09200013315258   -6.17430e-06   3.31568e-06 DIIS
   @DF-RHF iter   7:  -115.09200064755596   -5.14403e-07   7.76014e-07 DIIS
   @DF-RHF iter   8:  -115.09200067787779   -3.03218e-08   1.64109e-07 DIIS
   @DF-RHF iter   9:  -115.09200067913108   -1.25328e-09   3.10995e-08 DIIS
   @DF-RHF iter  10:  -115.09200067917287   -4.17941e-11   7.36378e-09 DIIS
  Energy and wave function converged.


  ==> Post-Iterations <==

    Orbital Energies [Eh]
    ---------------------

    Doubly Occupied:                                                      

       1A    -20.560353     2A    -11.270435     3A     -1.360242  
       4A     -0.925498     5A     -0.692761     6A     -0.620851  
       7A     -0.594738     8A     -0.505091     9A     -0.451377  

    Virtual:                                                              

      10A      0.028462    11A      0.042967    12A      0.046719  
      13A      0.053068    14A      0.099172    15A      0.116539  
      16A      0.128974    17A      0.140006    18A      0.165478  
      19A      0.173262    20A      0.182647    21A      0.211131  
      22A      0.215566    23A      0.268815    24A      0.269250  
      25A      0.293587    26A      0.300487    27A      0.321349  
      28A      0.321401    29A      0.333592    30A      0.343070  
      31A      0.351635    32A      0.369846    33A      0.391631  
      34A      0.409115    35A      0.433663    36A      0.437328  
      37A      0.446438    38A      0.455829    39A      0.460188  
      40A      0.480617    41A      0.507445    42A      0.513722  
      43A      0.526213    44A      0.665625    45A      0.669766  
      46A      0.680413    47A      0.753728    48A      0.770283  
      49A      0.780190    50A      0.791388    51A      0.803729  
      52A      0.851805    53A      0.857285    54A      0.887608  
      55A      0.900997    56A      0.930527    57A      0.936121  
      58A      0.937632    59A      0.950052    60A      0.974547  
      61A      0.979364    62A      0.984235    63A      1.017375  
      64A      1.042915    65A      1.070586    66A      1.074062  
      67A      1.095986    68A      1.111754    69A      1.124863  
      70A      1.139168    71A      1.146866    72A      1.178674  
      73A      1.202097    74A      1.202551    75A      1.250529  
      76A      1.299564    77A      1.317929    78A      1.368612  
      79A      1.409118    80A      1.438025    81A      1.534463  
      82A      1.552168    83A      1.559173    84A      1.594040  
      85A      1.601700    86A      1.612350    87A      1.651568  
      88A      1.660490    89A      1.670414    90A      1.700235  
      91A      1.736513    92A      1.756267    93A      1.890472  
      94A      1.934344    95A      1.958489    96A      1.976547  
      97A      2.037742    98A      2.039628    99A      2.077046  
     100A      2.083880   101A      2.163223   102A      2.178878  
     103A      2.380705   104A      2.475144   105A      2.481393  
     106A      2.515740   107A      2.555021   108A      2.579206  
     109A      2.732724   110A      2.761683   111A      2.786223  
     112A      2.840665   113A      2.888758   114A      2.945682  
     115A      2.985789   116A      3.049411   117A      3.189754  
     118A      3.321478   119A      3.378696   120A      3.532712  
     121A      3.553599   122A      3.582752   123A      3.626632  
     124A      3.636929   125A      3.700523   126A      3.779931  
     127A      3.857809   128A      3.886478   129A      3.938312  
     130A      3.946047   131A      3.993553   132A      4.061911  
     133A      4.088238   134A      4.106096   135A      4.166053  
     136A      4.204447   137A      4.228064   138A      4.236467  
     139A      4.285030   140A      4.472204   141A      4.501834  
     142A      4.518101   143A      4.552137   144A      4.605342  
     145A      4.646931   146A      4.758585   147A      4.761880  
     148A      4.769299   149A      4.911861   150A      4.970356  
     151A      5.021422   152A      5.040527   153A      5.064598  
     154A      5.137923   155A      5.242733   156A      5.256274  
     157A      5.378365   158A      5.472466   159A      5.536127  
     160A      5.593984   161A      5.598652   162A      5.628555  
     163A      5.712057   164A      6.104238   165A      6.110832  
     166A      6.134758   167A      6.175800   168A      6.559335  
     169A      6.614246   170A      6.630200   171A      6.886262  
     172A      6.902182   173A      7.069498   174A      7.266428  
     175A      7.310520   176A      7.375944   177A      7.477443  
     178A      7.542635   179A      7.740594   180A      7.849008  
     181A      8.139737   182A      8.514328   183A     15.582096  
     184A     17.678941  

    Final Occupation by Irrep:
              A 
    DOCC [     9 ]

  @DF-RHF Final Energy:  -115.09200067917287

   => Energetics <=

    Nuclear Repulsion Energy =             40.4152138327088224
    One-Electron Energy =                -237.0517390122012671
    Two-Electron Energy =                  81.5445245003195822
    Total Energy =                       -115.0920006791728696

Computation Completed


Properties will be evaluated at   0.000000,   0.000000,   0.000000 [a0]

Properties computed using the SCF density matrix

  Nuclear Dipole Moment: [e a0]
     X:    -7.2206      Y:    -4.9762      Z:    69.5714

  Electronic Dipole Moment: [e a0]
     X:     6.8938      Y:     4.5583      Z:   -70.0454

  Dipole Moment: [e a0]
     X:    -0.3268      Y:    -0.4179      Z:    -0.4740     Total:     0.7114

  Dipole Moment: [D]
     X:    -0.8307      Y:    -1.0622      Z:    -1.2048     Total:     1.8082


*** tstop() called on node73.bme.utexas.edu at Sat Apr 11 12:16:59 2020
Module time:
	user time   =       9.78 seconds =       0.16 minutes
	system time =       0.49 seconds =       0.01 minutes
	total time  =          2 seconds =       0.03 minutes
Total time:
	user time   =       9.78 seconds =       0.16 minutes
	system time =       0.49 seconds =       0.01 minutes
	total time  =          2 seconds =       0.03 minutes

*** tstart() called on node73.bme.utexas.edu
*** at Sat Apr 11 12:16:59 2020


  //>>>>>>>>>>>>>>>>>>>>>>>>>>>>>>>>>>>//
  //               DFMP2               //
  //<<<<<<<<<<<<<<<<<<<<<<<<<<<<<<<<<<<//

   => Loading Basis Set <=

    Name: (AUG-CC-PVTZ AUX)
    Role: RIFIT
    Keyword: DF_BASIS_MP2
    atoms 1      entry O          line   264 file /home/liuchw/anaconda3/envs/psi4env/share/psi4/basis/aug-cc-pvtz-ri.gbs 
    atoms 2, 4-6 entry H          line    30 file /home/liuchw/anaconda3/envs/psi4env/share/psi4/basis/aug-cc-pvtz-ri.gbs 
    atoms 3      entry C          line   148 file /home/liuchw/anaconda3/envs/psi4env/share/psi4/basis/aug-cc-pvtz-ri.gbs 

	 --------------------------------------------------------
	                          DF-MP2                         
	      2nd-Order Density-Fitted Moller-Plesset Theory     
	              RMP2 Wavefunction,   6 Threads             
	                                                         
	        Rob Parrish, Justin Turney, Andy Simmonett,      
	           Ed Hohenstein, and C. David Sherrill          
	 --------------------------------------------------------

   => Auxiliary Basis Set <=

  Basis Set: (AUG-CC-PVTZ AUX)
    Blend: AUG-CC-PVTZ-RI
    Number of shells: 112
    Number of basis function: 396
    Number of Cartesian functions: 492
    Spherical Harmonics?: true
    Max angular momentum: 4

	 --------------------------------------------------------
	                 NBF =   184, NAUX =   396
	 --------------------------------------------------------
	   CLASS    FOCC     OCC    AOCC    AVIR     VIR    FVIR
	   PAIRS       0       9       9     175     175       0
	 --------------------------------------------------------

	-----------------------------------------------------------
	 ==================> DF-MP2 Energies <==================== 
	-----------------------------------------------------------
	 Reference Energy          =    -115.0920006791728696 [Eh]
	 Singles Energy            =      -0.0000000000000000 [Eh]
	 Same-Spin Energy          =      -0.1057838568280044 [Eh]
	 Opposite-Spin Energy      =      -0.3646475852184809 [Eh]
	 Correlation Energy        =      -0.4704314420464853 [Eh]
	 Total Energy              =    -115.5624321212193593 [Eh]
	-----------------------------------------------------------
	 ================> DF-SCS-MP2 Energies <================== 
	-----------------------------------------------------------
	 SCS Same-Spin Scale       =       0.3333333333333333 [-]
	 SCS Opposite-Spin Scale   =       1.2000000000000000 [-]
	 SCS Same-Spin Energy      =      -0.0352612856093348 [Eh]
	 SCS Opposite-Spin Energy  =      -0.4375771022621771 [Eh]
	 SCS Correlation Energy    =      -0.4728383878715119 [Eh]
	 SCS Total Energy          =    -115.5648390670443746 [Eh]
	-----------------------------------------------------------


*** tstop() called on node73.bme.utexas.edu at Sat Apr 11 12:17:00 2020
Module time:
	user time   =       3.71 seconds =       0.06 minutes
	system time =       0.19 seconds =       0.00 minutes
	total time  =          1 seconds =       0.02 minutes
Total time:
	user time   =      13.49 seconds =       0.22 minutes
	system time =       0.68 seconds =       0.01 minutes
	total time  =          3 seconds =       0.05 minutes

  //>>>>>>>>>>>>>>>>>>>>>>>>>>>>>>>>>>>>//
  // CBS Computation: MP2 / AUG-CC-PVQZ //
  //<<<<<<<<<<<<<<<<<<<<<<<<<<<<<<<<<<<<//


Scratch directory: /scratch//

*** tstart() called on node73.bme.utexas.edu
*** at Sat Apr 11 12:17:00 2020

   => Loading Basis Set <=

    Name: AUG-CC-PVQZ
    Role: ORBITAL
    Keyword: BASIS
    atoms 1      entry O          line   423 file /home/liuchw/anaconda3/envs/psi4env/share/psi4/basis/aug-cc-pvqz.gbs 
    atoms 2, 4-6 entry H          line    40 file /home/liuchw/anaconda3/envs/psi4env/share/psi4/basis/aug-cc-pvqz.gbs 
    atoms 3      entry C          line   303 file /home/liuchw/anaconda3/envs/psi4env/share/psi4/basis/aug-cc-pvqz.gbs 


         ---------------------------------------------------------
                                   SCF
               by Justin Turney, Rob Parrish, Andy Simmonett
                          and Daniel G. A. Smith
                              RHF Reference
                        6 Threads,  38146 MiB Core
         ---------------------------------------------------------

  ==> Geometry <==

    Molecular point group: c1
    Full point group: C1

    Geometry (in Angstrom), charge = 0, multiplicity = 1:

       Center              X                  Y                   Z               Mass       
    ------------   -----------------  -----------------  -----------------  -----------------
         O            0.271092268106     0.426858738575     1.940613983959    15.994914619570
         H            0.357192268106     0.476731738575     0.983419983959     1.007825032230
         C           -0.625057731894    -0.630756261425     2.223668983959    12.000000000000
         H           -0.720778731894    -0.687490261425     3.304604983959     1.007825032230
         H           -1.617207731894    -0.459058261425     1.799877983959     1.007825032230
         H           -0.258597731894    -1.593797261425     1.860756983959     1.007825032230

  Running in c1 symmetry.

  Rotational constants: A =      0.92836  B =      0.11862  C =      0.10730 [cm^-1]
  Rotational constants: A =  27831.61926  B =   3556.09888  C =   3216.66220 [MHz]
  Nuclear repulsion =   40.415213832708822

  Charge       = 0
  Multiplicity = 1
  Electrons    = 18
  Nalpha       = 9
  Nbeta        = 9

  ==> Algorithm <==

  SCF Algorithm Type is DF.
  DIIS enabled.
  MOM disabled.
  Fractional occupation disabled.
  Guess Type is SAD.
  Energy threshold   = 1.00e-07
  Density threshold  = 1.00e-08
  Integral threshold = 0.00e+00

  ==> Primary Basis <==

  Basis Set: AUG-CC-PVQZ
    Blend: AUG-CC-PVQZ
    Number of shells: 96
    Number of basis function: 344
    Number of Cartesian functions: 430
    Spherical Harmonics?: true
    Max angular momentum: 4

   => Loading Basis Set <=

    Name: (AUG-CC-PVQZ AUX)
    Role: JKFIT
    Keyword: DF_BASIS_SCF
    atoms 1      entry O          line   318 file /home/liuchw/anaconda3/envs/psi4env/share/psi4/basis/aug-cc-pvqz-jkfit.gbs 
    atoms 2, 4-6 entry H          line    70 file /home/liuchw/anaconda3/envs/psi4env/share/psi4/basis/aug-cc-pvqz-jkfit.gbs 
    atoms 3      entry C          line   178 file /home/liuchw/anaconda3/envs/psi4env/share/psi4/basis/aug-cc-pvqz-jkfit.gbs 

  ==> Pre-Iterations <==

   -------------------------------------------------------
    Irrep   Nso     Nmo     Nalpha   Nbeta   Ndocc  Nsocc
   -------------------------------------------------------
     A        344     344       0       0       0       0
   -------------------------------------------------------
    Total     344     344       9       9       9       0
   -------------------------------------------------------

  ==> Integral Setup <==

  DFHelper Memory: AOs need 0.555 GiB; user supplied 27.940 GiB. Using in-core AOs.

  ==> MemDFJK: Density-Fitted J/K Matrices <==

    J tasked:                   Yes
    K tasked:                   Yes
    wK tasked:                   No
    OpenMP threads:               6
    Memory [MiB]:             28610
    Algorithm:                 Core
    Schwarz Cutoff:           1E-12
    Mask sparsity (%):       0.0524
    Fitting Condition:        1E-10

   => Auxiliary Basis Set <=

  Basis Set: (AUG-CC-PVQZ AUX)
    Blend: AUG-CC-PVQZ-JKFIT
    Number of shells: 140
    Number of basis function: 588
    Number of Cartesian functions: 800
    Spherical Harmonics?: true
    Max angular momentum: 5

  Minimum eigenvalue in the overlap matrix is 1.6146922440E-05.
  Using Symmetric Orthogonalization.

  SCF Guess: Superposition of Atomic Densities via on-the-fly atomic UHF.

  ==> Iterations <==

                           Total Energy        Delta E     RMS |[F,P]|

   @DF-RHF iter SAD:  -114.39829971028182   -1.14398e+02   0.00000e+00 
   @DF-RHF iter   1:  -115.01325538290028   -6.14956e-01   1.23510e-03 DIIS
   @DF-RHF iter   2:  -115.07745353254286   -6.41981e-02   7.29521e-04 DIIS
   @DF-RHF iter   3:  -115.09844113114028   -2.09876e-02   1.08838e-04 DIIS
   @DF-RHF iter   4:  -115.09941989642587   -9.78765e-04   3.40721e-05 DIIS
   @DF-RHF iter   5:  -115.09951608741099   -9.61910e-05   7.95103e-06 DIIS
   @DF-RHF iter   6:  -115.09952244467722   -6.35727e-06   1.83808e-06 DIIS
   @DF-RHF iter   7:  -115.09952298820323   -5.43526e-07   4.30539e-07 DIIS
   @DF-RHF iter   8:  -115.09952302031637   -3.21131e-08   9.31042e-08 DIIS
   @DF-RHF iter   9:  -115.09952302171502   -1.39865e-09   1.72252e-08 DIIS
   @DF-RHF iter  10:  -115.09952302175878   -4.37694e-11   4.15532e-09 DIIS
  Energy and wave function converged.


  ==> Post-Iterations <==

    Orbital Energies [Eh]
    ---------------------

    Doubly Occupied:                                                      

       1A    -20.557666     2A    -11.269476     3A     -1.359529  
       4A     -0.925354     5A     -0.692806     6A     -0.620995  
       7A     -0.594836     8A     -0.505264     9A     -0.451600  

    Virtual:                                                              

      10A      0.025271    11A      0.038946    12A      0.042063  
      13A      0.047785    14A      0.086655    15A      0.098154  
      16A      0.110963    17A      0.121596    18A      0.139281  
      19A      0.148986    20A      0.152630    21A      0.177003  
      22A      0.178485    23A      0.225510    24A      0.228003  
      25A      0.241517    26A      0.247257    27A      0.259431  
      28A      0.262319    29A      0.269912    30A      0.278458  
      31A      0.282309    32A      0.287188    33A      0.318553  
      34A      0.331934    35A      0.351659    36A      0.359965  
      37A      0.361679    38A      0.375898    39A      0.379444  
      40A      0.389255    41A      0.406029    42A      0.413676  
      43A      0.439293    44A      0.521329    45A      0.536986  
      46A      0.555943    47A      0.566960    48A      0.567569  
      49A      0.592199    50A      0.608592    51A      0.621627  
      52A      0.625749    53A      0.672056    54A      0.683492  
      55A      0.688282    56A      0.705834    57A      0.711765  
      58A      0.712590    59A      0.719920    60A      0.733703  
      61A      0.751714    62A      0.758121    63A      0.771098  
      64A      0.785064    65A      0.801338    66A      0.806155  
      67A      0.822255    68A      0.825693    69A      0.841494  
      70A      0.856777    71A      0.865506    72A      0.867196  
      73A      0.890867    74A      0.899971    75A      0.920381  
      76A      0.961144    77A      1.002025    78A      1.011511  
      79A      1.034257    80A      1.082756    81A      1.090573  
      82A      1.112038    83A      1.123514    84A      1.150086  
      85A      1.163035    86A      1.169725    87A      1.185224  
      88A      1.196385    89A      1.197157    90A      1.199671  
      91A      1.310814    92A      1.337458    93A      1.384950  
      94A      1.390790    95A      1.449366    96A      1.468433  
      97A      1.475398    98A      1.499259    99A      1.532073  
     100A      1.561536   101A      1.570546   102A      1.578075  
     103A      1.628078   104A      1.645369   105A      1.660837  
     106A      1.678807   107A      1.698816   108A      1.738790  
     109A      1.776378   110A      1.783092   111A      1.790778  
     112A      1.807640   113A      1.835225   114A      1.842385  
     115A      1.858796   116A      1.874112   117A      1.899850  
     118A      1.914637   119A      1.915317   120A      1.944773  
     121A      1.946571   122A      1.968624   123A      1.974996  
     124A      1.995873   125A      2.019994   126A      2.035643  
     127A      2.050906   128A      2.064340   129A      2.078834  
     130A      2.120041   131A      2.124050   132A      2.129462  
     133A      2.147445   134A      2.157141   135A      2.162946  
     136A      2.170309   137A      2.219940   138A      2.223749  
     139A      2.235602   140A      2.261141   141A      2.277577  
     142A      2.283637   143A      2.297440   144A      2.365040  
     145A      2.372321   146A      2.457255   147A      2.492072  
     148A      2.525499   149A      2.581553   150A      2.603846  
     151A      2.611706   152A      2.662290   153A      2.677644  
     154A      2.710520   155A      2.749585   156A      2.764253  
     157A      2.769323   158A      2.775098   159A      2.796870  
     160A      2.835123   161A      2.842304   162A      2.902077  
     163A      2.943395   164A      2.974510   165A      2.998869  
     166A      3.032101   167A      3.033476   168A      3.070755  
     169A      3.132814   170A      3.219514   171A      3.224960  
     172A      3.239251   173A      3.262716   174A      3.312965  
     175A      3.325238   176A      3.349754   177A      3.510398  
     178A      3.595411   179A      3.622722   180A      3.657641  
     181A      3.666292   182A      3.696062   183A      3.739564  
     184A      3.770915   185A      3.798819   186A      3.871465  
     187A      3.882086   188A      3.920626   189A      3.926802  
     190A      3.978655   191A      4.064262   192A      4.083822  
     193A      4.084549   194A      4.112151   195A      4.135471  
     196A      4.158891   197A      4.198446   198A      4.217540  
     199A      4.290205   200A      4.327372   201A      4.386154  
     202A      4.396416   203A      4.438809   204A      4.470551  
     205A      4.505848   206A      4.532476   207A      4.594439  
     208A      4.654154   209A      4.693630   210A      4.730340  
     211A      4.733916   212A      4.798214   213A      4.836564  
     214A      4.875412   215A      4.935451   216A      4.958233  
     217A      5.069555   218A      5.088065   219A      5.155151  
     220A      5.242862   221A      5.259300   222A      5.334951  
     223A      5.381072   224A      5.451965   225A      5.456618  
     226A      5.626465   227A      5.782133   228A      5.846173  
     229A      5.996223   230A      6.131157   231A      6.206155  
     232A      6.244902   233A      6.326965   234A      6.468593  
     235A      6.505027   236A      6.547408   237A      6.685184  
     238A      6.693838   239A      6.726934   240A      6.791505  
     241A      6.855847   242A      6.883907   243A      6.892497  
     244A      6.953095   245A      6.953626   246A      6.979500  
     247A      7.011288   248A      7.144107   249A      7.151026  
     250A      7.179816   251A      7.262030   252A      7.391397  
     253A      7.427927   254A      7.474505   255A      7.556659  
     256A      7.570312   257A      7.619308   258A      7.652386  
     259A      7.672834   260A      7.803594   261A      7.862238  
     262A      7.926329   263A      7.931898   264A      7.934819  
     265A      7.967544   266A      7.974500   267A      8.019226  
     268A      8.171752   269A      8.207551   270A      8.335067  
     271A      8.401342   272A      8.411555   273A      8.476344  
     274A      8.528459   275A      8.651163   276A      8.702305  
     277A      8.703945   278A      8.758245   279A      8.809240  
     280A      8.831845   281A      8.841253   282A      8.926389  
     283A      8.978015   284A      9.125777   285A      9.177129  
     286A      9.192231   287A      9.205944   288A      9.219030  
     289A      9.241867   290A      9.374869   291A      9.473886  
     292A      9.482559   293A      9.604705   294A      9.605443  
     295A      9.682583   296A      9.732365   297A      9.808525  
     298A      9.867703   299A     10.006368   300A     10.011576  
     301A     10.084642   302A     10.085728   303A     10.180701  
     304A     10.199212   305A     10.385830   306A     10.438074  
     307A     10.492040   308A     10.560521   309A     10.732883  
     310A     10.904152   311A     10.968655   312A     10.990340  
     313A     11.048872   314A     11.114294   315A     11.186617  
     316A     11.207971   317A     11.290513   318A     11.430622  
     319A     11.458004   320A     11.523721   321A     11.730598  
     322A     11.786377   323A     11.910475   324A     12.066994  
     325A     12.207729   326A     12.418164   327A     12.460578  
     328A     12.563611   329A     12.909694   330A     12.941428  
     331A     13.104947   332A     13.196798   333A     13.301424  
     334A     13.329643   335A     13.588885   336A     13.638236  
     337A     13.748707   338A     14.119436   339A     14.674023  
     340A     14.868479   341A     15.075820   342A     17.281251  
     343A     29.168752   344A     45.565739  

    Final Occupation by Irrep:
              A 
    DOCC [     9 ]

  @DF-RHF Final Energy:  -115.09952302175878

   => Energetics <=

    Nuclear Repulsion Energy =             40.4152138327088224
    One-Electron Energy =                -237.0744191319791128
    Two-Electron Energy =                  81.5596822775115129
    Total Energy =                       -115.0995230217587846

Computation Completed


Properties will be evaluated at   0.000000,   0.000000,   0.000000 [a0]

Properties computed using the SCF density matrix

  Nuclear Dipole Moment: [e a0]
     X:    -7.2206      Y:    -4.9762      Z:    69.5714

  Electronic Dipole Moment: [e a0]
     X:     6.8942      Y:     4.5587      Z:   -70.0452

  Dipole Moment: [e a0]
     X:    -0.3265      Y:    -0.4175      Z:    -0.4738     Total:     0.7109

  Dipole Moment: [D]
     X:    -0.8298      Y:    -1.0611      Z:    -1.2042     Total:     1.8069


*** tstop() called on node73.bme.utexas.edu at Sat Apr 11 12:17:05 2020
Module time:
	user time   =      24.26 seconds =       0.40 minutes
	system time =       0.96 seconds =       0.02 minutes
	total time  =          5 seconds =       0.08 minutes
Total time:
	user time   =      37.81 seconds =       0.63 minutes
	system time =       1.65 seconds =       0.03 minutes
	total time  =          8 seconds =       0.13 minutes

*** tstart() called on node73.bme.utexas.edu
*** at Sat Apr 11 12:17:05 2020


  //>>>>>>>>>>>>>>>>>>>>>>>>>>>>>>>>>>>//
  //               DFMP2               //
  //<<<<<<<<<<<<<<<<<<<<<<<<<<<<<<<<<<<//

   => Loading Basis Set <=

    Name: (AUG-CC-PVQZ AUX)
    Role: RIFIT
    Keyword: DF_BASIS_MP2
    atoms 1      entry O          line   332 file /home/liuchw/anaconda3/envs/psi4env/share/psi4/basis/aug-cc-pvqz-ri.gbs 
    atoms 2, 4-6 entry H          line    30 file /home/liuchw/anaconda3/envs/psi4env/share/psi4/basis/aug-cc-pvqz-ri.gbs 
    atoms 3      entry C          line   184 file /home/liuchw/anaconda3/envs/psi4env/share/psi4/basis/aug-cc-pvqz-ri.gbs 

	 --------------------------------------------------------
	                          DF-MP2                         
	      2nd-Order Density-Fitted Moller-Plesset Theory     
	              RMP2 Wavefunction,   6 Threads             
	                                                         
	        Rob Parrish, Justin Turney, Andy Simmonett,      
	           Ed Hohenstein, and C. David Sherrill          
	 --------------------------------------------------------

   => Auxiliary Basis Set <=

  Basis Set: (AUG-CC-PVQZ AUX)
    Blend: AUG-CC-PVQZ-RI
    Number of shells: 152
    Number of basis function: 656
    Number of Cartesian functions: 894
    Spherical Harmonics?: true
    Max angular momentum: 5

	 --------------------------------------------------------
	                 NBF =   344, NAUX =   656
	 --------------------------------------------------------
	   CLASS    FOCC     OCC    AOCC    AVIR     VIR    FVIR
	   PAIRS       0       9       9     335     335       0
	 --------------------------------------------------------

	-----------------------------------------------------------
	 ==================> DF-MP2 Energies <==================== 
	-----------------------------------------------------------
	 Reference Energy          =    -115.0995230217587846 [Eh]
	 Singles Energy            =      -0.0000000000000000 [Eh]
	 Same-Spin Energy          =      -0.1125177603919457 [Eh]
	 Opposite-Spin Energy      =      -0.4105783671911195 [Eh]
	 Correlation Energy        =      -0.5230961275830651 [Eh]
	 Total Energy              =    -115.6226191493418440 [Eh]
	-----------------------------------------------------------
	 ================> DF-SCS-MP2 Energies <================== 
	-----------------------------------------------------------
	 SCS Same-Spin Scale       =       0.3333333333333333 [-]
	 SCS Opposite-Spin Scale   =       1.2000000000000000 [-]
	 SCS Same-Spin Energy      =      -0.0375059201306486 [Eh]
	 SCS Opposite-Spin Energy  =      -0.4926940406293433 [Eh]
	 SCS Correlation Energy    =      -0.5301999607599919 [Eh]
	 SCS Total Energy          =    -115.6297229825187713 [Eh]
	-----------------------------------------------------------


*** tstop() called on node73.bme.utexas.edu at Sat Apr 11 12:17:07 2020
Module time:
	user time   =       9.43 seconds =       0.16 minutes
	system time =       0.44 seconds =       0.01 minutes
	total time  =          2 seconds =       0.03 minutes
Total time:
	user time   =      47.25 seconds =       0.79 minutes
	system time =       2.09 seconds =       0.03 minutes
	total time  =         10 seconds =       0.17 minutes

  //>>>>>>>>>>>>>>>>>>>>>>>>>>>>>>>>>>>//
  //  CBS Results: mp2/aug-cc-pv[tq]z  //
  //<<<<<<<<<<<<<<<<<<<<<<<<<<<<<<<<<<<//


   ==> HF <==

   HI-zeta (4) Energy:               -115.099523021759


   ==> Helgaker 2-point correlated extrapolation for method: MP2 <==

   LO-zeta (3) Energy:               -115.562432121219
   HI-zeta (4) Energy:               -115.622619149342
   Alpha (exponent) Value:             3.000000000000
   Extrapolated Energy:              -115.666539413107

   @Extrapolated MP2/(T,Q):          -115.666539413107



   ==> Helgaker 2-point correlated extrapolation for method: HF <==

   LO-zeta (3) Energy:               -115.092000679173
   HI-zeta (4) Energy:               -115.099523021759
   Alpha (exponent) Value:             3.000000000000
   Extrapolated Energy:              -115.105012298781

   @Extrapolated HF/(T,Q):           -115.105012298781


   ==> Components <==

  ---------------------------------------------------------------------------------------------------------
                          Method / Basis                      Rqd      Energy [Eh]   Variable
  ---------------------------------------------------------------------------------------------------------
                              hf / aug-cc-pvtz                  *    -115.09200068   HF TOTAL ENERGY
                             mp2 / aug-cc-pvtz                  *    -115.56243212   MP2 TOTAL ENERGY
                              hf / aug-cc-pvqz                  *    -115.09952302   HF TOTAL ENERGY
                             mp2 / aug-cc-pvqz                  *    -115.62261915   MP2 TOTAL ENERGY
  ---------------------------------------------------------------------------------------------------------

   ==> Stages <==

  ---------------------------------------------------------------------------------------------------------
      Stage               Method / Basis                       Wt      Energy [Eh]   Scheme
  ---------------------------------------------------------------------------------------------------------
        scf                   hf / aug-cc-pvqz                  1    -115.09952302   xtpl_highest_1
       corl                  mp2 / aug-cc-pv[tq]z               1    -115.66653941   corl_xtpl_helgaker_2
       corl                   hf / aug-cc-pv[tq]z              -1    -115.10501230   corl_xtpl_helgaker_2
  ---------------------------------------------------------------------------------------------------------

   ==> CBS <==

  ---------------------------------------------------------------------------------------------------------
      Stage               Method / Basis                               Energy [Eh]   Scheme
  ---------------------------------------------------------------------------------------------------------
        scf                   hf / aug-cc-pvqz                       -115.09952302   xtpl_highest_1
       corl                  mp2 / aug-cc-pv[tq]z                      -0.56152711   corl_xtpl_helgaker_2
      total                  CBS                                     -115.66105014   
  ---------------------------------------------------------------------------------------------------------
   => Loading Basis Set <=

    Name: DEF2-SVP
    Role: ORBITAL
    Keyword: BASIS
    atoms 1      entry O          line   130 file /home/liuchw/anaconda3/envs/psi4env/share/psi4/basis/def2-svp.gbs 
    atoms 2, 4-6 entry H          line    15 file /home/liuchw/anaconda3/envs/psi4env/share/psi4/basis/def2-svp.gbs 
    atoms 3      entry C          line    90 file /home/liuchw/anaconda3/envs/psi4env/share/psi4/basis/def2-svp.gbs 


       N-Body: Complex Energy (fragments = (2,), basis = (2,):  -115.66105013608474)

       N-Body: Computing complex (2/4) with fragments (2,) in the basis of fragments (1, 2).


Scratch directory: /scratch//

  //>>>>>>>>>>>>>>>>>>>>>>>>>>>>>>>>>>>//
  //   CBS Setup: mp2/aug-cc-pv[tq]z   //
  //<<<<<<<<<<<<<<<<<<<<<<<<<<<<<<<<<<<//

    Naive listing of computations required.
             hf / aug-cc-pvqz              for  HF TOTAL ENERGY
            mp2 / aug-cc-pvtz              for  MP2 TOTAL ENERGY
            mp2 / aug-cc-pvqz              for  MP2 TOTAL ENERGY
             hf / aug-cc-pvtz              for  HF TOTAL ENERGY
             hf / aug-cc-pvqz              for  HF TOTAL ENERGY

    Enlightened listing of computations required.
            mp2 / aug-cc-pvtz              for  MP2 TOTAL ENERGY
            mp2 / aug-cc-pvqz              for  MP2 TOTAL ENERGY

    Full listing of computations to be obtained (required and bonus).
             hf / aug-cc-pvtz              for  HF TOTAL ENERGY
            mp2 / aug-cc-pvtz              for  MP2 TOTAL ENERGY
             hf / aug-cc-pvqz              for  HF TOTAL ENERGY
            mp2 / aug-cc-pvqz              for  MP2 TOTAL ENERGY

  //>>>>>>>>>>>>>>>>>>>>>>>>>>>>>>>>>>>>//
  // CBS Computation: MP2 / AUG-CC-PVTZ //
  //<<<<<<<<<<<<<<<<<<<<<<<<<<<<<<<<<<<<//


Scratch directory: /scratch//

*** tstart() called on node73.bme.utexas.edu
*** at Sat Apr 11 12:17:08 2020

   => Loading Basis Set <=

    Name: AUG-CC-PVTZ
    Role: ORBITAL
    Keyword: BASIS
    atoms 1, 3, 5, 7, 9, 11, 15         entry C          line   239 file /home/liuchw/anaconda3/envs/psi4env/share/psi4/basis/aug-cc-pvtz.gbs 
    atoms 2, 4, 6, 8, 10, 12, 14, 16-18 entry H          line    40 file /home/liuchw/anaconda3/envs/psi4env/share/psi4/basis/aug-cc-pvtz.gbs 
    atoms 13                            entry O          line   331 file /home/liuchw/anaconda3/envs/psi4env/share/psi4/basis/aug-cc-pvtz.gbs 


         ---------------------------------------------------------
                                   SCF
               by Justin Turney, Rob Parrish, Andy Simmonett
                          and Daniel G. A. Smith
                              RHF Reference
                        6 Threads,  38146 MiB Core
         ---------------------------------------------------------

  ==> Geometry <==

    Molecular point group: c1
    Full point group: C1

    Geometry (in Angstrom), charge = 0, multiplicity = 1:

       Center              X                  Y                   Z               Mass       
    ------------   -----------------  -----------------  -----------------  -----------------
      Gh(C)           0.940655268106     1.127868738575    -0.847535016041    12.000000000000
      Gh(H)           1.615922268106     1.972257738575    -0.846602016041     1.007825032230
      Gh(C)           1.447524268106    -0.170768261425    -0.800034016041    12.000000000000
      Gh(H)           2.515822268106    -0.332586261425    -0.761875016041     1.007825032230
      Gh(C)           0.576227268106    -1.259397261425    -0.796402016041    12.000000000000
      Gh(H)           0.969568268106    -2.265899261425    -0.758272016041     1.007825032230
      Gh(C)          -0.801299731894    -1.050060261425    -0.840037016041    12.000000000000
      Gh(H)          -1.476749731894    -1.894546261425    -0.836186016041     1.007825032230
      Gh(C)          -1.308439731894     0.247743738575    -0.883735016041    12.000000000000
      Gh(H)          -2.377040731894     0.410343738575    -0.913588016041     1.007825032230
      Gh(C)          -0.437868731894     1.336924738575    -0.887423016041    12.000000000000
      Gh(H)          -0.830855731894     2.343700738575    -0.916938016041     1.007825032230
         O            0.271092268106     0.426858738575     1.940613983959    15.994914619570
         H            0.357192268106     0.476731738575     0.983419983959     1.007825032230
         C           -0.625057731894    -0.630756261425     2.223668983959    12.000000000000
         H           -0.720778731894    -0.687490261425     3.304604983959     1.007825032230
         H           -1.617207731894    -0.459058261425     1.799877983959     1.007825032230
         H           -0.258597731894    -1.593797261425     1.860756983959     1.007825032230

  Running in c1 symmetry.

  Rotational constants: A =      0.08739  B =      0.05837  C =      0.05591 [cm^-1]
  Rotational constants: A =   2619.75585  B =   1749.86690  C =   1676.20576 [MHz]
  Nuclear repulsion =   40.415213832708822

  Charge       = 0
  Multiplicity = 1
  Electrons    = 18
  Nalpha       = 9
  Nbeta        = 9

  ==> Algorithm <==

  SCF Algorithm Type is DF.
  DIIS enabled.
  MOM disabled.
  Fractional occupation disabled.
  Guess Type is SAD.
  Energy threshold   = 1.00e-07
  Density threshold  = 1.00e-08
  Integral threshold = 0.00e+00

  ==> Primary Basis <==

  Basis Set: AUG-CC-PVTZ
    Blend: AUG-CC-PVTZ
    Number of shells: 202
    Number of basis function: 598
    Number of Cartesian functions: 690
    Spherical Harmonics?: true
    Max angular momentum: 3

   => Loading Basis Set <=

    Name: (AUG-CC-PVTZ AUX)
    Role: JKFIT
    Keyword: DF_BASIS_SCF
    atoms 1, 3, 5, 7, 9, 11, 15         entry C          line   162 file /home/liuchw/anaconda3/envs/psi4env/share/psi4/basis/aug-cc-pvtz-jkfit.gbs 
    atoms 2, 4, 6, 8, 10, 12, 14, 16-18 entry H          line    70 file /home/liuchw/anaconda3/envs/psi4env/share/psi4/basis/aug-cc-pvtz-jkfit.gbs 
    atoms 13                            entry O          line   286 file /home/liuchw/anaconda3/envs/psi4env/share/psi4/basis/aug-cc-pvtz-jkfit.gbs 

  ==> Pre-Iterations <==

   -------------------------------------------------------
    Irrep   Nso     Nmo     Nalpha   Nbeta   Ndocc  Nsocc
   -------------------------------------------------------
     A        598     598       0       0       0       0
   -------------------------------------------------------
    Total     598     598       9       9       9       0
   -------------------------------------------------------

  ==> Integral Setup <==

  DFHelper Memory: AOs need 3.471 GiB; user supplied 27.940 GiB. Using in-core AOs.

  ==> MemDFJK: Density-Fitted J/K Matrices <==

    J tasked:                   Yes
    K tasked:                   Yes
    wK tasked:                   No
    OpenMP threads:               6
    Memory [MiB]:             28610
    Algorithm:                 Core
    Schwarz Cutoff:           1E-12
    Mask sparsity (%):       2.0923
    Fitting Condition:        1E-10

   => Auxiliary Basis Set <=

  Basis Set: (AUG-CC-PVTZ AUX)
    Blend: AUG-CC-PVTZ-JKFIT
    Number of shells: 380
    Number of basis function: 1292
    Number of Cartesian functions: 1598
    Spherical Harmonics?: true
    Max angular momentum: 4

  Minimum eigenvalue in the overlap matrix is 2.6013524379E-07.
  Using Symmetric Orthogonalization.

  SCF Guess: Superposition of Atomic Densities via on-the-fly atomic UHF.

  ==> Iterations <==

                           Total Energy        Delta E     RMS |[F,P]|

   @DF-RHF iter SAD:  -114.39132446529715   -1.14391e+02   0.00000e+00 
   @DF-RHF iter   1:  -115.00607307615205   -6.14749e-01   7.08283e-04 DIIS
   @DF-RHF iter   2:  -115.07016625407341   -6.40932e-02   4.18426e-04 DIIS
   @DF-RHF iter   3:  -115.09109466094174   -2.09284e-02   6.19747e-05 DIIS
   @DF-RHF iter   4:  -115.09206829132417   -9.73630e-04   1.95212e-05 DIIS
   @DF-RHF iter   5:  -115.09216261647495   -9.43252e-05   4.43885e-06 DIIS
   @DF-RHF iter   6:  -115.09216881053061   -6.19406e-06   1.02096e-06 DIIS
   @DF-RHF iter   7:  -115.09216932568786   -5.15157e-07   2.39106e-07 DIIS
   @DF-RHF iter   8:  -115.09216935613249   -3.04446e-08   5.06704e-08 DIIS
   @DF-RHF iter   9:  -115.09216935739765   -1.26516e-09   9.58634e-09 DIIS
  Energy and wave function converged.


  ==> Post-Iterations <==

    Orbital Energies [Eh]
    ---------------------

    Doubly Occupied:                                                      

       1A    -20.560279     2A    -11.270440     3A     -1.360179  
       4A     -0.925470     5A     -0.692720     6A     -0.620836  
       7A     -0.594703     8A     -0.505063     9A     -0.451355  

    Virtual:                                                              

      10A      0.016988    11A      0.030348    12A      0.030734  
      13A      0.039492    14A      0.047242    15A      0.047556  
      16A      0.060347    17A      0.060572    18A      0.064944  
      19A      0.066015    20A      0.069787    21A      0.091473  
      22A      0.092236    23A      0.100442    24A      0.111563  
      25A      0.112383    26A      0.118952    27A      0.119332  
      28A      0.120249    29A      0.120736    30A      0.129096  
      31A      0.139266    32A      0.147428    33A      0.151111  
      34A      0.151901    35A      0.152757    36A      0.155715  
      37A      0.161024    38A      0.162044    39A      0.166977  
      40A      0.171702    41A      0.177407    42A      0.189521  
      43A      0.190214    44A      0.208561    45A      0.225096  
      46A      0.232463    47A      0.232874    48A      0.236233  
      49A      0.240881    50A      0.244057    51A      0.256026  
      52A      0.266225    53A      0.275078    54A      0.283655  
      55A      0.289027    56A      0.290533    57A      0.301148  
      58A      0.306705    59A      0.309650    60A      0.315363  
      61A      0.319652    62A      0.321763    63A      0.328881  
      64A      0.329832    65A      0.336511    66A      0.343596  
      67A      0.345217    68A      0.354063    69A      0.354387  
      70A      0.361724    71A      0.368549    72A      0.372366  
      73A      0.373026    74A      0.383303    75A      0.389468  
      76A      0.392373    77A      0.395628    78A      0.404916  
      79A      0.420142    80A      0.420693    81A      0.428134  
      82A      0.429735    83A      0.431702    84A      0.436989  
      85A      0.440784    86A      0.453732    87A      0.454472  
      88A      0.464920    89A      0.475341    90A      0.479309  
      91A      0.484999    92A      0.485703    93A      0.489465  
      94A      0.506096    95A      0.507016    96A      0.511469  
      97A      0.516043    98A      0.526025    99A      0.536713  
     100A      0.541637   101A      0.542720   102A      0.550386  
     103A      0.561779   104A      0.564715   105A      0.571977  
     106A      0.574648   107A      0.586799   108A      0.587720  
     109A      0.594221   110A      0.600816   111A      0.605928  
     112A      0.609878   113A      0.616551   114A      0.618497  
     115A      0.627196   116A      0.632752   117A      0.649551  
     118A      0.658656   119A      0.665629   120A      0.669434  
     121A      0.671143   122A      0.674335   123A      0.685932  
     124A      0.691301   125A      0.694343   126A      0.701036  
     127A      0.702169   128A      0.708040   129A      0.718788  
     130A      0.722336   131A      0.724106   132A      0.741286  
     133A      0.746984   134A      0.747900   135A      0.750303  
     136A      0.752969   137A      0.763097   138A      0.771536  
     139A      0.778231   140A      0.787140   141A      0.790455  
     142A      0.791504   143A      0.822381   144A      0.828964  
     145A      0.838036   146A      0.854303   147A      0.862652  
     148A      0.864929   149A      0.872690   150A      0.876605  
     151A      0.891060   152A      0.903967   153A      0.912296  
     154A      0.914038   155A      0.925543   156A      0.935404  
     157A      0.936781   158A      0.962669   159A      0.980063  
     160A      0.989073   161A      0.991508   162A      1.007629  
     163A      1.014359   164A      1.018687   165A      1.025291  
     166A      1.035896   167A      1.041556   168A      1.046813  
     169A      1.053400   170A      1.058722   171A      1.069992  
     172A      1.076580   173A      1.078225   174A      1.087044  
     175A      1.089156   176A      1.110087   177A      1.114537  
     178A      1.130895   179A      1.136865   180A      1.137183  
     181A      1.145921   182A      1.153706   183A      1.160791  
     184A      1.166723   185A      1.171430   186A      1.178141  
     187A      1.185762   188A      1.197131   189A      1.200061  
     190A      1.204405   191A      1.216406   192A      1.224308  
     193A      1.227080   194A      1.227516   195A      1.234521  
     196A      1.236481   197A      1.241243   198A      1.254685  
     199A      1.263237   200A      1.265892   201A      1.273126  
     202A      1.275122   203A      1.278577   204A      1.286646  
     205A      1.301118   206A      1.305545   207A      1.310100  
     208A      1.312599   209A      1.318126   210A      1.328722  
     211A      1.344099   212A      1.350048   213A      1.368904  
     214A      1.370532   215A      1.380254   216A      1.387347  
     217A      1.389425   218A      1.392670   219A      1.406994  
     220A      1.417145   221A      1.418319   222A      1.424914  
     223A      1.444251   224A      1.448909   225A      1.456867  
     226A      1.481539   227A      1.491178   228A      1.501970  
     229A      1.506588   230A      1.512871   231A      1.521753  
     232A      1.529430   233A      1.532068   234A      1.540270  
     235A      1.541978   236A      1.544623   237A      1.549014  
     238A      1.566442   239A      1.571808   240A      1.574674  
     241A      1.590438   242A      1.600899   243A      1.612157  
     244A      1.621487   245A      1.627351   246A      1.638047  
     247A      1.639100   248A      1.644008   249A      1.650675  
     250A      1.663885   251A      1.666402   252A      1.681376  
     253A      1.687725   254A      1.689854   255A      1.699281  
     256A      1.717402   257A      1.719463   258A      1.750493  
     259A      1.754572   260A      1.757345   261A      1.762333  
     262A      1.797070   263A      1.801043   264A      1.815506  
     265A      1.826507   266A      1.838061   267A      1.855946  
     268A      1.867040   269A      1.886952   270A      1.894629  
     271A      1.896874   272A      1.905691   273A      1.916472  
     274A      1.932518   275A      1.952278   276A      1.965069  
     277A      1.972551   278A      1.980019   279A      1.995499  
     280A      2.002281   281A      2.010960   282A      2.037073  
     283A      2.053748   284A      2.054636   285A      2.064129  
     286A      2.083063   287A      2.107003   288A      2.112402  
     289A      2.123029   290A      2.127408   291A      2.146402  
     292A      2.153825   293A      2.157712   294A      2.161638  
     295A      2.171821   296A      2.178354   297A      2.211342  
     298A      2.224343   299A      2.232311   300A      2.242248  
     301A      2.248983   302A      2.252486   303A      2.255389  
     304A      2.265837   305A      2.295536   306A      2.301248  
     307A      2.321845   308A      2.329437   309A      2.336512  
     310A      2.342613   311A      2.354797   312A      2.376826  
     313A      2.381866   314A      2.402828   315A      2.407285  
     316A      2.420877   317A      2.440642   318A      2.457754  
     319A      2.471678   320A      2.479056   321A      2.501208  
     322A      2.505372   323A      2.507582   324A      2.512496  
     325A      2.522215   326A      2.539999   327A      2.546405  
     328A      2.549742   329A      2.550289   330A      2.568386  
     331A      2.576514   332A      2.583571   333A      2.604392  
     334A      2.616884   335A      2.628791   336A      2.660907  
     337A      2.673439   338A      2.683801   339A      2.729488  
     340A      2.736856   341A      2.770171   342A      2.781427  
     343A      2.809806   344A      2.829315   345A      2.843045  
     346A      2.847149   347A      2.870313   348A      2.878543  
     349A      2.890188   350A      2.895089   351A      2.919899  
     352A      2.931758   353A      2.933995   354A      2.990921  
     355A      2.999075   356A      3.044079   357A      3.055872  
     358A      3.068831   359A      3.098157   360A      3.126748  
     361A      3.131010   362A      3.206114   363A      3.219565  
     364A      3.248841   365A      3.270188   366A      3.297958  
     367A      3.384346   368A      3.431941   369A      3.449301  
     370A      3.474055   371A      3.499500   372A      3.517113  
     373A      3.634913   374A      3.637514   375A      3.648467  
     376A      3.655465   377A      3.726221   378A      3.774966  
     379A      3.796894   380A      3.837531   381A      3.841024  
     382A      3.898569   383A      3.928973   384A      3.930112  
     385A      3.961073   386A      3.979754   387A      3.998547  
     388A      4.001873   389A      4.020146   390A      4.028824  
     391A      4.050308   392A      4.090319   393A      4.114457  
     394A      4.116562   395A      4.123609   396A      4.136974  
     397A      4.146693   398A      4.150572   399A      4.168182  
     400A      4.171890   401A      4.175958   402A      4.187815  
     403A      4.199162   404A      4.219023   405A      4.226388  
     406A      4.227197   407A      4.232744   408A      4.245838  
     409A      4.267014   410A      4.273199   411A      4.281234  
     412A      4.288252   413A      4.303639   414A      4.314045  
     415A      4.343845   416A      4.357120   417A      4.379407  
     418A      4.382575   419A      4.432181   420A      4.437318  
     421A      4.454961   422A      4.472241   423A      4.478064  
     424A      4.502682   425A      4.508109   426A      4.529457  
     427A      4.542003   428A      4.556746   429A      4.567379  
     430A      4.574848   431A      4.584529   432A      4.598374  
     433A      4.599994   434A      4.618582   435A      4.631388  
     436A      4.644018   437A      4.653308   438A      4.663420  
     439A      4.670534   440A      4.713148   441A      4.732014  
     442A      4.732626   443A      4.746581   444A      4.757389  
     445A      4.804467   446A      4.828572   447A      4.835333  
     448A      4.844601   449A      4.863587   450A      4.864738  
     451A      4.880885   452A      4.898471   453A      4.907839  
     454A      4.920963   455A      4.934218   456A      4.976622  
     457A      5.002535   458A      5.007719   459A      5.014524  
     460A      5.017963   461A      5.030336   462A      5.056023  
     463A      5.074983   464A      5.076527   465A      5.097199  
     466A      5.100753   467A      5.115308   468A      5.122212  
     469A      5.127868   470A      5.145291   471A      5.150066  
     472A      5.154119   473A      5.182913   474A      5.197542  
     475A      5.203939   476A      5.218517   477A      5.226101  
     478A      5.243455   479A      5.259355   480A      5.292706  
     481A      5.325785   482A      5.350143   483A      5.355575  
     484A      5.388343   485A      5.405926   486A      5.437850  
     487A      5.443526   488A      5.468328   489A      5.492198  
     490A      5.505198   491A      5.517627   492A      5.526545  
     493A      5.546937   494A      5.564089   495A      5.586920  
     496A      5.620052   497A      5.622209   498A      5.651664  
     499A      5.660834   500A      5.688424   501A      5.688949  
     502A      5.716804   503A      5.724084   504A      5.737793  
     505A      5.738315   506A      5.746951   507A      5.761436  
     508A      5.770621   509A      5.776269   510A      5.811704  
     511A      5.815191   512A      5.819868   513A      5.870539  
     514A      5.888649   515A      5.956753   516A      5.983063  
     517A      5.999151   518A      6.002079   519A      6.008446  
     520A      6.036588   521A      6.053467   522A      6.132715  
     523A      6.137702   524A      6.153446   525A      6.161398  
     526A      6.194345   527A      6.202109   528A      6.207705  
     529A      6.218080   530A      6.234192   531A      6.300293  
     532A      6.367798   533A      6.456484   534A      6.459023  
     535A      6.500494   536A      6.548269   537A      6.694227  
     538A      6.707405   539A      6.708523   540A      6.764283  
     541A      6.828863   542A      6.863302   543A      6.908430  
     544A      6.915886   545A      6.925216   546A      7.010654  
     547A      7.055628   548A      7.108060   549A      7.110899  
     550A      7.138479   551A      7.176263   552A      7.177521  
     553A      7.222260   554A      7.262731   555A      7.391180  
     556A      7.424687   557A      7.454740   558A      7.525128  
     559A      7.537618   560A      7.539034   561A      7.586431  
     562A      7.628253   563A      7.663000   564A      7.669384  
     565A      7.679859   566A      7.730601   567A      7.803150  
     568A      7.900587   569A      7.945402   570A      8.084647  
     571A      8.148659   572A      8.198781   573A      8.205677  
     574A      8.244910   575A      8.330065   576A      8.341805  
     577A      8.381791   578A      8.681524   579A      8.987617  
     580A      8.988400   581A      9.355816   582A      9.440963  
     583A      9.633425   584A     10.066408   585A     10.087487  
     586A     10.988756   587A     11.026000   588A     11.361440  
     589A     11.416311   590A     11.561628   591A     16.935526  
     592A     18.463319   593A     49.975247   594A     50.441192  
     595A     55.994225   596A     56.162514   597A     56.501645  
     598A     56.778819  

    Final Occupation by Irrep:
              A 
    DOCC [     9 ]

  @DF-RHF Final Energy:  -115.09216935739765

   => Energetics <=

    Nuclear Repulsion Energy =             40.4152138327088224
    One-Electron Energy =                -237.0526779029217153
    Two-Electron Energy =                  81.5452947128152488
    Total Energy =                       -115.0921693573976512

Computation Completed


Properties will be evaluated at   0.000000,   0.000000,   0.000000 [a0]

Properties computed using the SCF density matrix

  Nuclear Dipole Moment: [e a0]
     X:    -7.2206      Y:    -4.9762      Z:    69.5714

  Electronic Dipole Moment: [e a0]
     X:     6.8940      Y:     4.5585      Z:   -70.0455

  Dipole Moment: [e a0]
     X:    -0.3266      Y:    -0.4176      Z:    -0.4741     Total:     0.7112

  Dipole Moment: [D]
     X:    -0.8301      Y:    -1.0615      Z:    -1.2051     Total:     1.8078


*** tstop() called on node73.bme.utexas.edu at Sat Apr 11 12:17:28 2020
Module time:
	user time   =     102.10 seconds =       1.70 minutes
	system time =       2.39 seconds =       0.04 minutes
	total time  =         20 seconds =       0.33 minutes
Total time:
	user time   =     151.74 seconds =       2.53 minutes
	system time =       4.56 seconds =       0.08 minutes
	total time  =         31 seconds =       0.52 minutes

*** tstart() called on node73.bme.utexas.edu
*** at Sat Apr 11 12:17:28 2020


  //>>>>>>>>>>>>>>>>>>>>>>>>>>>>>>>>>>>//
  //               DFMP2               //
  //<<<<<<<<<<<<<<<<<<<<<<<<<<<<<<<<<<<//

   => Loading Basis Set <=

    Name: (AUG-CC-PVTZ AUX)
    Role: RIFIT
    Keyword: DF_BASIS_MP2
    atoms 1, 3, 5, 7, 9, 11, 15         entry C          line   148 file /home/liuchw/anaconda3/envs/psi4env/share/psi4/basis/aug-cc-pvtz-ri.gbs 
    atoms 2, 4, 6, 8, 10, 12, 14, 16-18 entry H          line    30 file /home/liuchw/anaconda3/envs/psi4env/share/psi4/basis/aug-cc-pvtz-ri.gbs 
    atoms 13                            entry O          line   264 file /home/liuchw/anaconda3/envs/psi4env/share/psi4/basis/aug-cc-pvtz-ri.gbs 

	 --------------------------------------------------------
	                          DF-MP2                         
	      2nd-Order Density-Fitted Moller-Plesset Theory     
	              RMP2 Wavefunction,   6 Threads             
	                                                         
	        Rob Parrish, Justin Turney, Andy Simmonett,      
	           Ed Hohenstein, and C. David Sherrill          
	 --------------------------------------------------------

   => Auxiliary Basis Set <=

  Basis Set: (AUG-CC-PVTZ AUX)
    Blend: AUG-CC-PVTZ-RI
    Number of shells: 364
    Number of basis function: 1308
    Number of Cartesian functions: 1638
    Spherical Harmonics?: true
    Max angular momentum: 4

	 --------------------------------------------------------
	                 NBF =   598, NAUX =  1308
	 --------------------------------------------------------
	   CLASS    FOCC     OCC    AOCC    AVIR     VIR    FVIR
	   PAIRS       0       9       9     589     589       0
	 --------------------------------------------------------

	-----------------------------------------------------------
	 ==================> DF-MP2 Energies <==================== 
	-----------------------------------------------------------
	 Reference Energy          =    -115.0921693573976512 [Eh]
	 Singles Energy            =      -0.0000000000000000 [Eh]
	 Same-Spin Energy          =      -0.1059518496003245 [Eh]
	 Opposite-Spin Energy      =      -0.3663496892961817 [Eh]
	 Correlation Energy        =      -0.4723015388965062 [Eh]
	 Total Energy              =    -115.5644708962941536 [Eh]
	-----------------------------------------------------------
	 ================> DF-SCS-MP2 Energies <================== 
	-----------------------------------------------------------
	 SCS Same-Spin Scale       =       0.3333333333333333 [-]
	 SCS Opposite-Spin Scale   =       1.2000000000000000 [-]
	 SCS Same-Spin Energy      =      -0.0353172832001082 [Eh]
	 SCS Opposite-Spin Energy  =      -0.4396196271554181 [Eh]
	 SCS Correlation Energy    =      -0.4749369103555263 [Eh]
	 SCS Total Energy          =    -115.5671062677531751 [Eh]
	-----------------------------------------------------------


*** tstop() called on node73.bme.utexas.edu at Sat Apr 11 12:17:35 2020
Module time:
	user time   =      34.64 seconds =       0.58 minutes
	system time =       1.09 seconds =       0.02 minutes
	total time  =          7 seconds =       0.12 minutes
Total time:
	user time   =     186.38 seconds =       3.11 minutes
	system time =       5.65 seconds =       0.09 minutes
	total time  =         38 seconds =       0.63 minutes

  //>>>>>>>>>>>>>>>>>>>>>>>>>>>>>>>>>>>>//
  // CBS Computation: MP2 / AUG-CC-PVQZ //
  //<<<<<<<<<<<<<<<<<<<<<<<<<<<<<<<<<<<<//


Scratch directory: /scratch//

*** tstart() called on node73.bme.utexas.edu
*** at Sat Apr 11 12:17:35 2020

   => Loading Basis Set <=

    Name: AUG-CC-PVQZ
    Role: ORBITAL
    Keyword: BASIS
    atoms 1, 3, 5, 7, 9, 11, 15         entry C          line   303 file /home/liuchw/anaconda3/envs/psi4env/share/psi4/basis/aug-cc-pvqz.gbs 
    atoms 2, 4, 6, 8, 10, 12, 14, 16-18 entry H          line    40 file /home/liuchw/anaconda3/envs/psi4env/share/psi4/basis/aug-cc-pvqz.gbs 
    atoms 13                            entry O          line   423 file /home/liuchw/anaconda3/envs/psi4env/share/psi4/basis/aug-cc-pvqz.gbs 


         ---------------------------------------------------------
                                   SCF
               by Justin Turney, Rob Parrish, Andy Simmonett
                          and Daniel G. A. Smith
                              RHF Reference
                        6 Threads,  38146 MiB Core
         ---------------------------------------------------------

  ==> Geometry <==

    Molecular point group: c1
    Full point group: C1

    Geometry (in Angstrom), charge = 0, multiplicity = 1:

       Center              X                  Y                   Z               Mass       
    ------------   -----------------  -----------------  -----------------  -----------------
      Gh(C)           0.940655268106     1.127868738575    -0.847535016041    12.000000000000
      Gh(H)           1.615922268106     1.972257738575    -0.846602016041     1.007825032230
      Gh(C)           1.447524268106    -0.170768261425    -0.800034016041    12.000000000000
      Gh(H)           2.515822268106    -0.332586261425    -0.761875016041     1.007825032230
      Gh(C)           0.576227268106    -1.259397261425    -0.796402016041    12.000000000000
      Gh(H)           0.969568268106    -2.265899261425    -0.758272016041     1.007825032230
      Gh(C)          -0.801299731894    -1.050060261425    -0.840037016041    12.000000000000
      Gh(H)          -1.476749731894    -1.894546261425    -0.836186016041     1.007825032230
      Gh(C)          -1.308439731894     0.247743738575    -0.883735016041    12.000000000000
      Gh(H)          -2.377040731894     0.410343738575    -0.913588016041     1.007825032230
      Gh(C)          -0.437868731894     1.336924738575    -0.887423016041    12.000000000000
      Gh(H)          -0.830855731894     2.343700738575    -0.916938016041     1.007825032230
         O            0.271092268106     0.426858738575     1.940613983959    15.994914619570
         H            0.357192268106     0.476731738575     0.983419983959     1.007825032230
         C           -0.625057731894    -0.630756261425     2.223668983959    12.000000000000
         H           -0.720778731894    -0.687490261425     3.304604983959     1.007825032230
         H           -1.617207731894    -0.459058261425     1.799877983959     1.007825032230
         H           -0.258597731894    -1.593797261425     1.860756983959     1.007825032230

  Running in c1 symmetry.

  Rotational constants: A =      0.08739  B =      0.05837  C =      0.05591 [cm^-1]
  Rotational constants: A =   2619.75585  B =   1749.86690  C =   1676.20576 [MHz]
  Nuclear repulsion =   40.415213832708822

  Charge       = 0
  Multiplicity = 1
  Electrons    = 18
  Nalpha       = 9
  Nbeta        = 9

  ==> Algorithm <==

  SCF Algorithm Type is DF.
  DIIS enabled.
  MOM disabled.
  Fractional occupation disabled.
  Guess Type is SAD.
  Energy threshold   = 1.00e-07
  Density threshold  = 1.00e-08
  Integral threshold = 0.00e+00

  ==> Primary Basis <==

  Basis Set: AUG-CC-PVQZ
    Blend: AUG-CC-PVQZ
    Number of shells: 300
    Number of basis function: 1100
    Number of Cartesian functions: 1390
    Spherical Harmonics?: true
    Max angular momentum: 4

   => Loading Basis Set <=

    Name: (AUG-CC-PVQZ AUX)
    Role: JKFIT
    Keyword: DF_BASIS_SCF
    atoms 1, 3, 5, 7, 9, 11, 15         entry C          line   178 file /home/liuchw/anaconda3/envs/psi4env/share/psi4/basis/aug-cc-pvqz-jkfit.gbs 
    atoms 2, 4, 6, 8, 10, 12, 14, 16-18 entry H          line    70 file /home/liuchw/anaconda3/envs/psi4env/share/psi4/basis/aug-cc-pvqz-jkfit.gbs 
    atoms 13                            entry O          line   318 file /home/liuchw/anaconda3/envs/psi4env/share/psi4/basis/aug-cc-pvqz-jkfit.gbs 

  ==> Pre-Iterations <==

   -------------------------------------------------------
    Irrep   Nso     Nmo     Nalpha   Nbeta   Ndocc  Nsocc
   -------------------------------------------------------
     A       1100    1100       0       0       0       0
   -------------------------------------------------------
    Total    1100    1100       9       9       9       0
   -------------------------------------------------------

  ==> Integral Setup <==

  DFHelper Memory: AOs need 16.518 GiB; user supplied 27.940 GiB. Using in-core AOs.

  ==> MemDFJK: Density-Fitted J/K Matrices <==

    J tasked:                   Yes
    K tasked:                   Yes
    wK tasked:                   No
    OpenMP threads:               6
    Memory [MiB]:             28610
    Algorithm:                 Core
    Schwarz Cutoff:           1E-12
    Mask sparsity (%):       5.5744
    Fitting Condition:        1E-10

   => Auxiliary Basis Set <=

  Basis Set: (AUG-CC-PVQZ AUX)
    Blend: AUG-CC-PVQZ-JKFIT
    Number of shells: 452
    Number of basis function: 1896
    Number of Cartesian functions: 2594
    Spherical Harmonics?: true
    Max angular momentum: 5

  Minimum eigenvalue in the overlap matrix is 1.1062223501E-07.
  Using Symmetric Orthogonalization.

  SCF Guess: Superposition of Atomic Densities via on-the-fly atomic UHF.

  ==> Iterations <==

                           Total Energy        Delta E     RMS |[F,P]|

   @DF-RHF iter SAD:  -114.39829981962876   -1.14398e+02   0.00000e+00 
   @DF-RHF iter   1:  -115.01330666746836   -6.15007e-01   3.86265e-04 DIIS
   @DF-RHF iter   2:  -115.07751187737111   -6.42052e-02   2.28147e-04 DIIS
   @DF-RHF iter   3:  -115.09849796220156   -2.09861e-02   3.40377e-05 DIIS
   @DF-RHF iter   4:  -115.09947686893852   -9.78907e-04   1.06555e-05 DIIS
   @DF-RHF iter   5:  -115.09957307693020   -9.62080e-05   2.48721e-06 DIIS
   @DF-RHF iter   6:  -115.09957943693271   -6.36000e-06   5.75010e-07 DIIS
   @DF-RHF iter   7:  -115.09957998081009   -5.43877e-07   1.34671e-07 DIIS
   @DF-RHF iter   8:  -115.09958001293889   -3.21288e-08   2.91374e-08 DIIS
   @DF-RHF iter   9:  -115.09958001433810   -1.39921e-09   5.39225e-09 DIIS
  Energy and wave function converged.


  ==> Post-Iterations <==

    Orbital Energies [Eh]
    ---------------------

    Doubly Occupied:                                                      

       1A    -20.557645     2A    -11.269466     3A     -1.359503  
       4A     -0.925341     5A     -0.692792     6A     -0.620986  
       7A     -0.594821     8A     -0.505256     9A     -0.451590  

    Virtual:                                                              

      10A      0.015433    11A      0.026961    12A      0.027300  
      13A      0.035169    14A      0.041921    15A      0.042153  
      16A      0.052914    17A      0.054874    18A      0.058977  
      19A      0.059317    20A      0.062634    21A      0.080872  
      22A      0.081403    23A      0.088416    24A      0.096595  
      25A      0.098577    26A      0.104395    27A      0.104625  
      28A      0.105622    29A      0.106575    30A      0.111418  
      31A      0.120673    32A      0.129178    33A      0.131791  
      34A      0.132144    35A      0.133746    36A      0.137041  
      37A      0.139378    38A      0.139865    39A      0.146502  
      40A      0.146841    41A      0.155135    42A      0.165767  
      43A      0.166345    44A      0.175151    45A      0.189533  
      46A      0.202896    47A      0.204153    48A      0.206194  
      49A      0.209091    50A      0.210534    51A      0.222394  
      52A      0.224081    53A      0.239292    54A      0.245174  
      55A      0.251888    56A      0.252857    57A      0.256805  
      58A      0.257991    59A      0.259845    60A      0.265049  
      61A      0.268315    62A      0.269763    63A      0.272004  
      64A      0.275756    65A      0.277373    66A      0.289765  
      67A      0.291410    68A      0.292742    69A      0.301360  
      70A      0.304089    71A      0.312868    72A      0.315576  
      73A      0.315983    74A      0.317520    75A      0.321843  
      76A      0.330380    77A      0.337180    78A      0.341305  
      79A      0.341920    80A      0.350529    81A      0.356325  
      82A      0.360673    83A      0.361134    84A      0.366629  
      85A      0.370631    86A      0.375012    87A      0.379762  
      88A      0.385120    89A      0.394283    90A      0.397524  
      91A      0.401140    92A      0.407056    93A      0.412784  
      94A      0.416119    95A      0.426197    96A      0.427880  
      97A      0.429709    98A      0.436376    99A      0.437124  
     100A      0.441101   101A      0.441681   102A      0.442810  
     103A      0.456069   104A      0.460385   105A      0.466963  
     106A      0.468070   107A      0.477056   108A      0.478135  
     109A      0.481907   110A      0.489225   111A      0.490913  
     112A      0.494301   113A      0.498523   114A      0.498976  
     115A      0.504005   116A      0.504782   117A      0.508658  
     118A      0.524839   119A      0.525696   120A      0.530517  
     121A      0.535311   122A      0.535844   123A      0.541909  
     124A      0.546175   125A      0.547057   126A      0.557948  
     127A      0.564334   128A      0.566114   129A      0.568485  
     130A      0.571954   131A      0.574565   132A      0.576415  
     133A      0.578999   134A      0.584543   135A      0.589198  
     136A      0.592312   137A      0.601806   138A      0.604901  
     139A      0.612610   140A      0.617264   141A      0.635143  
     142A      0.646044   143A      0.647586   144A      0.655757  
     145A      0.658029   146A      0.670418   147A      0.680400  
     148A      0.683462   149A      0.691823   150A      0.693967  
     151A      0.695830   152A      0.708795   153A      0.712208  
     154A      0.719253   155A      0.727665   156A      0.733826  
     157A      0.746527   158A      0.747917   159A      0.762199  
     160A      0.764476   161A      0.769709   162A      0.776510  
     163A      0.781033   164A      0.782236   165A      0.792314  
     166A      0.793449   167A      0.806162   168A      0.808150  
     169A      0.824523   170A      0.826593   171A      0.833203  
     172A      0.839664   173A      0.840432   174A      0.848419  
     175A      0.850778   176A      0.853645   177A      0.862179  
     178A      0.868664   179A      0.877257   180A      0.879247  
     181A      0.882004   182A      0.891889   183A      0.899158  
     184A      0.900463   185A      0.910762   186A      0.914209  
     187A      0.916372   188A      0.921751   189A      0.924748  
     190A      0.928344   191A      0.929439   192A      0.934755  
     193A      0.935887   194A      0.943678   195A      0.946315  
     196A      0.954633   197A      0.955277   198A      0.964266  
     199A      0.969649   200A      0.974999   201A      0.976761  
     202A      0.982066   203A      0.987366   204A      0.989891  
     205A      1.003785   206A      1.008842   207A      1.019066  
     208A      1.021427   209A      1.029003   210A      1.030108  
     211A      1.037079   212A      1.044294   213A      1.044376  
     214A      1.047485   215A      1.049181   216A      1.051737  
     217A      1.054928   218A      1.065533   219A      1.069901  
     220A      1.074058   221A      1.081458   222A      1.088345  
     223A      1.092548   224A      1.094710   225A      1.104529  
     226A      1.111346   227A      1.112236   228A      1.116803  
     229A      1.136416   230A      1.140148   231A      1.142887  
     232A      1.160869   233A      1.164124   234A      1.165859  
     235A      1.169085   236A      1.181990   237A      1.185371  
     238A      1.190997   239A      1.194427   240A      1.198343  
     241A      1.211080   242A      1.215524   243A      1.224437  
     244A      1.225951   245A      1.232748   246A      1.236103  
     247A      1.253434   248A      1.254776   249A      1.257985  
     250A      1.263941   251A      1.286783   252A      1.291582  
     253A      1.294994   254A      1.305122   255A      1.318615  
     256A      1.319897   257A      1.327422   258A      1.344948  
     259A      1.347643   260A      1.353393   261A      1.358824  
     262A      1.360200   263A      1.365682   264A      1.375099  
     265A      1.379120   266A      1.384270   267A      1.387471  
[...]
     640A      4.310291   641A      4.334989   642A      4.335926  
     643A      4.357996   644A      4.360640   645A      4.378168  
     646A      4.381013   647A      4.386916   648A      4.396309  
     649A      4.399133   650A      4.412467   651A      4.417048  
     652A      4.432274   653A      4.439636   654A      4.451728  
     655A      4.456744   656A      4.471152   657A      4.479470  
     658A      4.480903   659A      4.493229   660A      4.503868  
     661A      4.508509   662A      4.534148   663A      4.537841  
     664A      4.548403   665A      4.557601   666A      4.561182  
     667A      4.566439   668A      4.584543   669A      4.601339  
     670A      4.610513   671A      4.616677   672A      4.640201  
     673A      4.644755   674A      4.655648   675A      4.672067  
     676A      4.686541   677A      4.696173   678A      4.711260  
     679A      4.756024   680A      4.756867   681A      4.770871  
     682A      4.777618   683A      4.785287   684A      4.814312  
     685A      4.828708   686A      4.846485   687A      4.886981  
     688A      4.888268   689A      4.901644   690A      4.929570  
     691A      4.941353   692A      4.952822   693A      4.962537  
     694A      4.978513   695A      4.983053   696A      5.018493  
     697A      5.021972   698A      5.022698   699A      5.046260  
     700A      5.055858   701A      5.083257   702A      5.092572  
     703A      5.125183   704A      5.140896   705A      5.144738  
     706A      5.156067   707A      5.164642   708A      5.187911  
     709A      5.195159   710A      5.238157   711A      5.246523  
     712A      5.284351   713A      5.365061   714A      5.394917  
     715A      5.407284   716A      5.410323   717A      5.422549  
     718A      5.427677   719A      5.458304   720A      5.468777  
     721A      5.477954   722A      5.521156   723A      5.527030  
     724A      5.531549   725A      5.610389   726A      5.619707  
     727A      5.653913   728A      5.657515   729A      5.694257  
     730A      5.699686   731A      5.732314   732A      5.737455  
     733A      5.765796   734A      5.831648   735A      5.934813  
     736A      5.966963   737A      5.971586   738A      6.003854  
     739A      6.011575   740A      6.026305   741A      6.038701  
     742A      6.083715   743A      6.093971   744A      6.125993  
     745A      6.137056   746A      6.169904   747A      6.214972  
     748A      6.227882   749A      6.270912   750A      6.282397  
     751A      6.305659   752A      6.336980   753A      6.338525  
     754A      6.356223   755A      6.372618   756A      6.377852  
     757A      6.381580   758A      6.390684   759A      6.400234  
     760A      6.411135   761A      6.437811   762A      6.449625  
     763A      6.471974   764A      6.489109   765A      6.498475  
     766A      6.513718   767A      6.525749   768A      6.569449  
     769A      6.573999   770A      6.585449   771A      6.628674  
     772A      6.635724   773A      6.655228   774A      6.663005  
     775A      6.665266   776A      6.670370   777A      6.673323  
     778A      6.704772   779A      6.726526   780A      6.738753  
     781A      6.745017   782A      6.775425   783A      6.780028  
     784A      6.786351   785A      6.791309   786A      6.812124  
     787A      6.842966   788A      6.856262   789A      6.867139  
     790A      6.874798   791A      6.878352   792A      6.898670  
     793A      6.900660   794A      6.922546   795A      6.929878  
     796A      6.930740   797A      6.942862   798A      6.947663  
     799A      6.952789   800A      6.965428   801A      6.981980  
     802A      6.982666   803A      6.990842   804A      7.005952  
     805A      7.025172   806A      7.032728   807A      7.041824  
     808A      7.045047   809A      7.060218   810A      7.063845  
     811A      7.081910   812A      7.086150   813A      7.115790  
     814A      7.120061   815A      7.128870   816A      7.137928  
     817A      7.142944   818A      7.151045   819A      7.160501  
     820A      7.164427   821A      7.173861   822A      7.187363  
     823A      7.203495   824A      7.209462   825A      7.219080  
     826A      7.228750   827A      7.246397   828A      7.254079  
     829A      7.271874   830A      7.276350   831A      7.282295  
     832A      7.291076   833A      7.295899   834A      7.301914  
     835A      7.322271   836A      7.328483   837A      7.334818  
     838A      7.352089   839A      7.358223   840A      7.374722  
     841A      7.403444   842A      7.410885   843A      7.428767  
     844A      7.443174   845A      7.451552   846A      7.473268  
     847A      7.494718   848A      7.506369   849A      7.517989  
     850A      7.525236   851A      7.545105   852A      7.564353  
     853A      7.574175   854A      7.575540   855A      7.603328  
     856A      7.610766   857A      7.621484   858A      7.648144  
     859A      7.676578   860A      7.680145   861A      7.692488  
     862A      7.696861   863A      7.722488   864A      7.735179  
     865A      7.738929   866A      7.752200   867A      7.753003  
     868A      7.779053   869A      7.784097   870A      7.809350  
     871A      7.812416   872A      7.830253   873A      7.852952  
     874A      7.878488   875A      7.884208   876A      7.887849  
     877A      7.892784   878A      7.946168   879A      7.953179  
     880A      7.976470   881A      7.989283   882A      7.999518  
     883A      8.002009   884A      8.017538   885A      8.019283  
     886A      8.031551   887A      8.047209   888A      8.058266  
     889A      8.059898   890A      8.093518   891A      8.103190  
     892A      8.107484   893A      8.119689   894A      8.128365  
     895A      8.168625   896A      8.171337   897A      8.236315  
     898A      8.244585   899A      8.251139   900A      8.268637  
     901A      8.279762   902A      8.287937   903A      8.319240  
     904A      8.337881   905A      8.360706   906A      8.380015  
     907A      8.391573   908A      8.417616   909A      8.421229  
     910A      8.436173   911A      8.440556   912A      8.465826  
     913A      8.466901   914A      8.491916   915A      8.512771  
     916A      8.521058   917A      8.543245   918A      8.555326  
     919A      8.625867   920A      8.662372   921A      8.676908  
     922A      8.678784   923A      8.724339   924A      8.730974  
     925A      8.755581   926A      8.778762   927A      8.780287  
     928A      8.791346   929A      8.800746   930A      8.809282  
     931A      8.837878   932A      8.845026   933A      8.853107  
     934A      8.865935   935A      8.873118   936A      8.893713  
     937A      8.933798   938A      8.945599   939A      8.953259  
     940A      8.961134   941A      8.979882   942A      8.999935  
     943A      9.015009   944A      9.027998   945A      9.040965  
     946A      9.056610   947A      9.060211   948A      9.070531  
     949A      9.078810   950A      9.088233   951A      9.102725  
     952A      9.105062   953A      9.127817   954A      9.143786  
     955A      9.156357   956A      9.175040   957A      9.179685  
     958A      9.272524   959A      9.292145   960A      9.303070  
     961A      9.321825   962A      9.354178   963A      9.362217  
     964A      9.405787   965A      9.426349   966A      9.432050  
     967A      9.454732   968A      9.473741   969A      9.497566  
     970A      9.502102   971A      9.515650   972A      9.523396  
     973A      9.550068   974A      9.585462   975A      9.592254  
     976A      9.597512   977A      9.621709   978A      9.628555  
     979A      9.635836   980A      9.654340   981A      9.664940  
     982A      9.692907   983A      9.725502   984A      9.738501  
     985A      9.760804   986A      9.765068   987A      9.769833  
     988A      9.829327   989A      9.863672   990A      9.876537  
     991A      9.903496   992A      9.916631   993A      9.931985  
     994A      9.949180   995A      9.963073   996A      9.974709  
     997A     10.044900   998A     10.088497   999A     10.108914  
    1000A     10.114581  1001A     10.119419  1002A     10.141027  
    1003A     10.150979  1004A     10.177702  1005A     10.186140  
    1006A     10.204889  1007A     10.255241  1008A     10.261558  
    1009A     10.280427  1010A     10.326346  1011A     10.333917  
    1012A     10.348220  1013A     10.367199  1014A     10.377301  
    1015A     10.403939  1016A     10.422586  1017A     10.424665  
    1018A     10.448741  1019A     10.505085  1020A     10.505386  
    1021A     10.519994  1022A     10.528465  1023A     10.541767  
    1024A     10.568947  1025A     10.571636  1026A     10.599535  
    1027A     10.624095  1028A     10.656043  1029A     10.739295  
    1030A     10.741522  1031A     10.763950  1032A     10.832420  
    1033A     10.845010  1034A     10.873582  1035A     10.880956  
    1036A     10.889318  1037A     10.908092  1038A     10.922502  
    1039A     10.929060  1040A     11.065920  1041A     11.082507  
    1042A     11.083949  1043A     11.127717  1044A     11.137674  
    1045A     11.152247  1046A     11.178336  1047A     11.294179  
    1048A     11.315150  1049A     11.320096  1050A     11.458329  
    1051A     11.485926  1052A     11.508240  1053A     11.515729  
    1054A     11.525508  1055A     11.536291  1056A     11.559127  
    1057A     11.662214  1058A     11.749338  1059A     11.802898  
    1060A     11.826160  1061A     11.848267  1062A     11.850169  
    1063A     11.943373  1064A     12.017306  1065A     12.066121  
    1066A     12.191178  1067A     12.400436  1068A     12.443379  
    1069A     12.500211  1070A     12.681429  1071A     12.728744  
    1072A     12.916241  1073A     13.145052  1074A     13.238178  
    1075A     13.299679  1076A     13.303580  1077A     13.378698  
    1078A     13.393146  1079A     13.475003  1080A     13.484702  
    1081A     13.529460  1082A     13.536447  1083A     13.570868  
    1084A     13.769475  1085A     13.786127  1086A     13.881170  
    1087A     13.909086  1088A     14.351224  1089A     14.837687  
    1090A     15.070646  1091A     15.237839  1092A     17.626454  
    1093A     26.361949  1094A     26.425742  1095A     26.962377  
    1096A     27.068080  1097A     27.300559  1098A     27.408736  
    1099A     29.372609  1100A     46.041259  

    Final Occupation by Irrep:
              A 
    DOCC [    30 ]

  @DF-RHF Final Energy:  -345.87694276046602

   => Energetics <=

    Nuclear Repulsion Energy =            364.2911691272066719
    One-Electron Energy =               -1191.1680162604689031
    Two-Electron Energy =                 480.9999043727962089
    Total Energy =                       -345.8769427604660223

Computation Completed


Properties will be evaluated at   0.000000,   0.000000,   0.000000 [a0]

Properties computed using the SCF density matrix

  Nuclear Dipole Moment: [e a0]
     X:    -1.7074      Y:    -1.9013      Z:     2.7422

  Electronic Dipole Moment: [e a0]
     X:     1.4187      Y:     1.5183      Z:    -3.4285

  Dipole Moment: [e a0]
     X:    -0.2888      Y:    -0.3830      Z:    -0.6863     Total:     0.8373

  Dipole Moment: [D]
     X:    -0.7340      Y:    -0.9735      Z:    -1.7444     Total:     2.1282


*** tstop() called on node73.bme.utexas.edu at Sat Apr 11 12:26:37 2020
Module time:
	user time   =     670.88 seconds =      11.18 minutes
	system time =      11.98 seconds =       0.20 minutes
	total time  =        121 seconds =       2.02 minutes
Total time:
	user time   =    3035.08 seconds =      50.58 minutes
	system time =      65.64 seconds =       1.09 minutes
	total time  =        580 seconds =       9.67 minutes

*** tstart() called on node73.bme.utexas.edu
*** at Sat Apr 11 12:26:37 2020


  //>>>>>>>>>>>>>>>>>>>>>>>>>>>>>>>>>>>//
  //               DFMP2               //
  //<<<<<<<<<<<<<<<<<<<<<<<<<<<<<<<<<<<//

   => Loading Basis Set <=

    Name: (AUG-CC-PVQZ AUX)
    Role: RIFIT
    Keyword: DF_BASIS_MP2
    atoms 1, 3, 5, 7, 9, 11, 15         entry C          line   184 file /home/liuchw/anaconda3/envs/psi4env/share/psi4/basis/aug-cc-pvqz-ri.gbs 
    atoms 2, 4, 6, 8, 10, 12, 14, 16-18 entry H          line    30 file /home/liuchw/anaconda3/envs/psi4env/share/psi4/basis/aug-cc-pvqz-ri.gbs 
    atoms 13                            entry O          line   332 file /home/liuchw/anaconda3/envs/psi4env/share/psi4/basis/aug-cc-pvqz-ri.gbs 

	 --------------------------------------------------------
	                          DF-MP2                         
	      2nd-Order Density-Fitted Moller-Plesset Theory     
	              RMP2 Wavefunction,   6 Threads             
	                                                         
	        Rob Parrish, Justin Turney, Andy Simmonett,      
	           Ed Hohenstein, and C. David Sherrill          
	 --------------------------------------------------------

   => Auxiliary Basis Set <=

  Basis Set: (AUG-CC-PVQZ AUX)
    Blend: AUG-CC-PVQZ-RI
    Number of shells: 488
    Number of basis function: 2144
    Number of Cartesian functions: 2946
    Spherical Harmonics?: true
    Max angular momentum: 5

	 --------------------------------------------------------
	                 NBF =  1100, NAUX =  2144
	 --------------------------------------------------------
	   CLASS    FOCC     OCC    AOCC    AVIR     VIR    FVIR
	   PAIRS       0      30      30    1070    1070       0
	 --------------------------------------------------------

	-----------------------------------------------------------
	 ==================> DF-MP2 Energies <==================== 
	-----------------------------------------------------------
	 Reference Energy          =    -345.8769427604660223 [Eh]
	 Singles Energy            =      -0.0000000000000000 [Eh]
	 Same-Spin Energy          =      -0.3916013966649586 [Eh]
	 Opposite-Spin Energy      =      -1.3402169194631697 [Eh]
	 Correlation Energy        =      -1.7318183161281282 [Eh]
	 Total Energy              =    -347.6087610765941349 [Eh]
	-----------------------------------------------------------
	 ================> DF-SCS-MP2 Energies <================== 
	-----------------------------------------------------------
	 SCS Same-Spin Scale       =       0.3333333333333333 [-]
	 SCS Opposite-Spin Scale   =       1.2000000000000000 [-]
	 SCS Same-Spin Energy      =      -0.1305337988883195 [Eh]
	 SCS Opposite-Spin Energy  =      -1.6082603033558036 [Eh]
	 SCS Correlation Energy    =      -1.7387941022441231 [Eh]
	 SCS Total Energy          =    -347.6157368627101505 [Eh]
	-----------------------------------------------------------


*** tstop() called on node73.bme.utexas.edu at Sat Apr 11 12:27:41 2020
Module time:
	user time   =     307.87 seconds =       5.13 minutes
	system time =       6.16 seconds =       0.10 minutes
	total time  =         64 seconds =       1.07 minutes
Total time:
	user time   =    3342.95 seconds =      55.72 minutes
	system time =      71.80 seconds =       1.20 minutes
	total time  =        644 seconds =      10.73 minutes

  //>>>>>>>>>>>>>>>>>>>>>>>>>>>>>>>>>>>//
  //  CBS Results: mp2/aug-cc-pv[tq]z  //
  //<<<<<<<<<<<<<<<<<<<<<<<<<<<<<<<<<<<//


   ==> HF <==

   HI-zeta (4) Energy:               -345.876942760466


   ==> Helgaker 2-point correlated extrapolation for method: MP2 <==

   LO-zeta (3) Energy:               -347.424969468364
   HI-zeta (4) Energy:               -347.608761076594
   Alpha (exponent) Value:             3.000000000000
   Extrapolated Energy:              -347.742879277195

   @Extrapolated MP2/(T,Q):          -347.742879277195



   ==> Helgaker 2-point correlated extrapolation for method: HF <==

   LO-zeta (3) Energy:               -345.856628909918
   HI-zeta (4) Energy:               -345.876942760466
   Alpha (exponent) Value:             3.000000000000
   Extrapolated Energy:              -345.891766381136

   @Extrapolated HF/(T,Q):           -345.891766381136


   ==> Components <==

  ---------------------------------------------------------------------------------------------------------
                          Method / Basis                      Rqd      Energy [Eh]   Variable
  ---------------------------------------------------------------------------------------------------------
                              hf / aug-cc-pvtz                  *    -345.85662891   HF TOTAL ENERGY
                             mp2 / aug-cc-pvtz                  *    -347.42496947   MP2 TOTAL ENERGY
                              hf / aug-cc-pvqz                  *    -345.87694276   HF TOTAL ENERGY
                             mp2 / aug-cc-pvqz                  *    -347.60876108   MP2 TOTAL ENERGY
  ---------------------------------------------------------------------------------------------------------

   ==> Stages <==

  ---------------------------------------------------------------------------------------------------------
      Stage               Method / Basis                       Wt      Energy [Eh]   Scheme
  ---------------------------------------------------------------------------------------------------------
        scf                   hf / aug-cc-pvqz                  1    -345.87694276   xtpl_highest_1
       corl                  mp2 / aug-cc-pv[tq]z               1    -347.74287928   corl_xtpl_helgaker_2
       corl                   hf / aug-cc-pv[tq]z              -1    -345.89176638   corl_xtpl_helgaker_2
  ---------------------------------------------------------------------------------------------------------

   ==> CBS <==

  ---------------------------------------------------------------------------------------------------------
      Stage               Method / Basis                               Energy [Eh]   Scheme
  ---------------------------------------------------------------------------------------------------------
        scf                   hf / aug-cc-pvqz                       -345.87694276   xtpl_highest_1
       corl                  mp2 / aug-cc-pv[tq]z                      -1.85111290   corl_xtpl_helgaker_2
      total                  CBS                                     -347.72805566   
  ---------------------------------------------------------------------------------------------------------
   => Loading Basis Set <=

    Name: DEF2-SVP
    Role: ORBITAL
    Keyword: BASIS
    atoms 1, 3, 5, 7, 9, 11, 15         entry C          line    90 file /home/liuchw/anaconda3/envs/psi4env/share/psi4/basis/def2-svp.gbs 
    atoms 2, 4, 6, 8, 10, 12, 14, 16-18 entry H          line    15 file /home/liuchw/anaconda3/envs/psi4env/share/psi4/basis/def2-svp.gbs 
    atoms 13                            entry O          line   130 file /home/liuchw/anaconda3/envs/psi4env/share/psi4/basis/def2-svp.gbs 


       N-Body: Complex Energy (fragments = (1, 2), basis = (1, 2):  -347.72805565652430)

   ==> N-Body: Counterpoise Corrected (CP) energies <==

   n-Body     Total Energy [Eh]       I.E. [kcal/mol]      Delta [kcal/mol]
        1     -347.727011300302        0.000000000000        0.000000000000
        2     -347.728871990698       -1.167600851061       -1.167600851061

   => Loading Basis Set <=

    Name: DEF2-SVP
    Role: ORBITAL
    Keyword: BASIS
    atoms 1, 3, 5, 7, 9, 11, 15         entry C          line    90 file /home/liuchw/anaconda3/envs/psi4env/share/psi4/basis/def2-svp.gbs 
    atoms 2, 4, 6, 8, 10, 12, 14, 16-18 entry H          line    15 file /home/liuchw/anaconda3/envs/psi4env/share/psi4/basis/def2-svp.gbs 
    atoms 13                            entry O          line   130 file /home/liuchw/anaconda3/envs/psi4env/share/psi4/basis/def2-svp.gbs 


    Psi4 stopped on: Saturday, 11 April 2020 12:27PM
    Psi4 wall time for execution: 0:10:44.80

*** Psi4 exiting successfully. Buy a developer a beer!
