
    -----------------------------------------------------------------------
          Psi4: An Open-Source Ab Initio Electronic Structure Package
                               Psi4 1.4a2.dev224 

                         Git: Rev {master} e453b16 


    R. M. Parrish, L. A. Burns, D. G. A. Smith, A. C. Simmonett,
    A. E. DePrince III, E. G. Hohenstein, U. Bozkaya, A. Yu. Sokolov,
    R. Di Remigio, R. M. Richard, J. F. Gonthier, A. M. James,
    H. R. McAlexander, A. Kumar, M. Saitow, X. Wang, B. P. Pritchard,
    P. Verma, H. F. Schaefer III, K. Patkowski, R. A. King, E. F. Valeev,
    F. A. Evangelista, J. M. Turney, T. D. Crawford, and C. D. Sherrill,
    J. Chem. Theory Comput. 13(7) pp 3185--3197 (2017).
    (doi: 10.1021/acs.jctc.7b00174)


                         Additional Contributions by
    P. Kraus, H. Kruse, M. H. Lechner, M. C. Schieber, R. A. Shaw,
    A. Alenaizan, R. Galvelis, Z. L. Glick, S. Lehtola, and J. P. Misiewicz

    -----------------------------------------------------------------------


    Psi4 started on: Thursday, 23 April 2020 07:02PM

    Process ID: 70214
    Host:       node94.bme.utexas.edu
    PSIDATADIR: /home/liuchw/anaconda3/envs/psi4env/share/psi4
    Memory:     500.0 MiB
    Threads:    8
    
  ==> Input File <==

--------------------------------------------------------------------------
#Generated by lconvert.py for cbs job

memory 20 GB

molecule  {
0 1
  C       0.692320    1.088290    0.324840
  H       1.281950    1.991950    0.252520
  C       1.318190   -0.156870    0.286900
  H       2.393140   -0.219480    0.188410
  C       0.558020   -1.321950    0.381400
  H       1.043920   -2.287570    0.357620
  C      -0.827550   -1.241420    0.511680
  H      -1.416700   -2.145250    0.585340
  C      -1.453410    0.003670    0.548380
  H      -2.528230    0.065700    0.649840
  C      -0.693460    1.168400    0.456230
  H      -1.178740    2.134410    0.485730
--
0 1
  N       0.103880   -0.381140    5.602480
  H       0.238500   -0.337100    4.599410
  H       0.245370    0.564010    5.934950
  C      -1.272220   -0.787520    5.879920
  H      -1.430090   -0.816070    6.956470
  H      -2.043520   -0.147140    5.439800
  H      -1.426910   -1.797090    5.504290
units angstrom
no_reorient
symmetry c1
}

set {
scf_type DF
mp2_type DF
e_convergence 7
reference rhf
}

energy('mp2/aug-cc-pv[tq]z', bsse_type='cp')
--------------------------------------------------------------------------

  Memory set to  18.626 GiB by Python driver.

Scratch directory: /scratch/liuchw/


   ===> N-Body Interaction Abacus <===
        BSSE Treatment:                     cp
        Number of 1-body computations:     4
        Number of 2-body computations:     1

   ==> N-Body: Now computing 1-body complexes <==


       N-Body: Computing complex (1/4) with fragments (2,) in the basis of fragments (2,).


Scratch directory: /scratch/liuchw/

  //>>>>>>>>>>>>>>>>>>>>>>>>>>>>>>>>>>>//
  //   CBS Setup: mp2/aug-cc-pv[tq]z   //
  //<<<<<<<<<<<<<<<<<<<<<<<<<<<<<<<<<<<//

    Naive listing of computations required.
             hf / aug-cc-pvqz              for  HF TOTAL ENERGY
            mp2 / aug-cc-pvtz              for  MP2 TOTAL ENERGY
            mp2 / aug-cc-pvqz              for  MP2 TOTAL ENERGY
             hf / aug-cc-pvtz              for  HF TOTAL ENERGY
             hf / aug-cc-pvqz              for  HF TOTAL ENERGY

    Enlightened listing of computations required.
            mp2 / aug-cc-pvtz              for  MP2 TOTAL ENERGY
            mp2 / aug-cc-pvqz              for  MP2 TOTAL ENERGY

    Full listing of computations to be obtained (required and bonus).
             hf / aug-cc-pvtz              for  HF TOTAL ENERGY
            mp2 / aug-cc-pvtz              for  MP2 TOTAL ENERGY
             hf / aug-cc-pvqz              for  HF TOTAL ENERGY
            mp2 / aug-cc-pvqz              for  MP2 TOTAL ENERGY

  //>>>>>>>>>>>>>>>>>>>>>>>>>>>>>>>>>>>>//
  // CBS Computation: MP2 / AUG-CC-PVTZ //
  //<<<<<<<<<<<<<<<<<<<<<<<<<<<<<<<<<<<<//


Scratch directory: /scratch/liuchw/

*** tstart() called on node94.bme.utexas.edu
*** at Thu Apr 23 19:02:11 2020

   => Loading Basis Set <=

    Name: AUG-CC-PVTZ
    Role: ORBITAL
    Keyword: BASIS
    atoms 1        entry N          line   285 file /home/liuchw/anaconda3/envs/psi4env/share/psi4/basis/aug-cc-pvtz.gbs 
    atoms 2-3, 5-7 entry H          line    40 file /home/liuchw/anaconda3/envs/psi4env/share/psi4/basis/aug-cc-pvtz.gbs 
    atoms 4        entry C          line   239 file /home/liuchw/anaconda3/envs/psi4env/share/psi4/basis/aug-cc-pvtz.gbs 


         ---------------------------------------------------------
                                   SCF
               by Justin Turney, Rob Parrish, Andy Simmonett
                          and Daniel G. A. Smith
                              RHF Reference
                        8 Threads,  19073 MiB Core
         ---------------------------------------------------------

  ==> Geometry <==

    Molecular point group: c1
    Full point group: C1

    Geometry (in Angstrom), charge = 0, multiplicity = 1:

       Center              X                  Y                   Z               Mass       
    ------------   -----------------  -----------------  -----------------  -----------------
         N            0.319682558888    -0.167342504884     3.674508773664    14.003074004430
         H            0.454302558888    -0.123302504884     2.671438773664     1.007825032230
         H            0.461172558888     0.777807495116     4.006978773664     1.007825032230
         C           -1.056417441112    -0.573722504884     3.951948773664    12.000000000000
         H           -1.214287441112    -0.602272504884     5.028498773664     1.007825032230
         H           -1.827717441112     0.066657495116     3.511828773664     1.007825032230
         H           -1.211107441112    -1.583292504884     3.576318773664     1.007825032230

  Running in c1 symmetry.

  Rotational constants: A =      0.83153  B =      0.03648  C =      0.03528 [cm^-1]
  Rotational constants: A =  24928.66296  B =   1093.63057  C =   1057.67779 [MHz]
  Nuclear repulsion =   42.107263707567022

  Charge       = 0
  Multiplicity = 1
  Electrons    = 18
  Nalpha       = 9
  Nbeta        = 9

  ==> Algorithm <==

  SCF Algorithm Type is DF.
  DIIS enabled.
  MOM disabled.
  Fractional occupation disabled.
  Guess Type is SAD.
  Energy threshold   = 1.00e-07
  Density threshold  = 1.00e-08
  Integral threshold = 0.00e+00

  ==> Primary Basis <==

  Basis Set: AUG-CC-PVTZ
    Blend: AUG-CC-PVTZ
    Number of shells: 73
    Number of basis function: 207
    Number of Cartesian functions: 235
    Spherical Harmonics?: true
    Max angular momentum: 3

   => Loading Basis Set <=

    Name: (AUG-CC-PVTZ AUX)
    Role: JKFIT
    Keyword: DF_BASIS_SCF
    atoms 1        entry N          line   224 file /home/liuchw/anaconda3/envs/psi4env/share/psi4/basis/aug-cc-pvtz-jkfit.gbs 
    atoms 2-3, 5-7 entry H          line    70 file /home/liuchw/anaconda3/envs/psi4env/share/psi4/basis/aug-cc-pvtz-jkfit.gbs 
    atoms 4        entry C          line   162 file /home/liuchw/anaconda3/envs/psi4env/share/psi4/basis/aug-cc-pvtz-jkfit.gbs 

  ==> Pre-Iterations <==

   -------------------------------------------------------
    Irrep   Nso     Nmo     Nalpha   Nbeta   Ndocc  Nsocc
   -------------------------------------------------------
     A        207     207       0       0       0       0
   -------------------------------------------------------
    Total     207     207       9       9       9       0
   -------------------------------------------------------

  ==> Integral Setup <==

  DFHelper Memory: AOs need 0.152 GiB; user supplied 13.970 GiB. Using in-core AOs.

  ==> MemDFJK: Density-Fitted J/K Matrices <==

    J tasked:                   Yes
    K tasked:                   Yes
    wK tasked:                   No
    OpenMP threads:               8
    Memory [MiB]:             14305
    Algorithm:                 Core
    Schwarz Cutoff:           1E-12
    Mask sparsity (%):       0.0000
    Fitting Condition:        1E-10

   => Auxiliary Basis Set <=

  Basis Set: (AUG-CC-PVTZ AUX)
    Blend: AUG-CC-PVTZ-JKFIT
    Number of shells: 130
    Number of basis function: 438
    Number of Cartesian functions: 537
    Spherical Harmonics?: true
    Max angular momentum: 4

  Minimum eigenvalue in the overlap matrix is 4.0158763627E-05.
  Using Symmetric Orthogonalization.

  SCF Guess: Superposition of Atomic Densities via on-the-fly atomic UHF.

  ==> Iterations <==

                           Total Energy        Delta E     RMS |[F,P]|

   @DF-RHF iter SAD:   -94.62764990289800   -9.46276e+01   0.00000e+00 
   @DF-RHF iter   1:   -95.13850952167053   -5.10860e-01   2.27701e-03 DIIS
   @DF-RHF iter   2:   -95.22665365661625   -8.81441e-02   1.23579e-03 DIIS
   @DF-RHF iter   3:   -95.25405643020505   -2.74028e-02   1.74840e-04 DIIS
   @DF-RHF iter   4:   -95.25525567116827   -1.19924e-03   5.10099e-05 DIIS
   @DF-RHF iter   5:   -95.25533396502784   -7.82939e-05   1.23639e-05 DIIS
   @DF-RHF iter   6:   -95.25534010056047   -6.13553e-06   2.48838e-06 DIIS
   @DF-RHF iter   7:   -95.25534049774237   -3.97182e-07   5.63130e-07 DIIS
   @DF-RHF iter   8:   -95.25534052046859   -2.27262e-08   1.34568e-07 DIIS
   @DF-RHF iter   9:   -95.25534052200392   -1.53533e-09   3.23321e-08 DIIS
   @DF-RHF iter  10:   -95.25534052209274   -8.88178e-11   8.07290e-09 DIIS
  Energy and wave function converged.


  ==> Post-Iterations <==

    Orbital Energies [Eh]
    ---------------------

    Doubly Occupied:                                                      

       1A    -15.540546     2A    -11.240347     3A     -1.172280  
       4A     -0.895835     5A     -0.662083     6A     -0.604812  
       7A     -0.555409     8A     -0.516186     9A     -0.394514  

    Virtual:                                                              

      10A      0.029419    11A      0.042839    12A      0.043841  
      13A      0.049203    14A      0.069058    15A      0.098666  
      16A      0.125914    17A      0.126954    18A      0.139841  
      19A      0.141223    20A      0.156639    21A      0.167708  
      22A      0.203489    23A      0.226146    24A      0.237606  
      25A      0.256507    26A      0.272735    27A      0.282878  
      28A      0.288775    29A      0.295901    30A      0.332595  
      31A      0.337976    32A      0.343474    33A      0.345589  
      34A      0.376731    35A      0.389301    36A      0.396033  
      37A      0.402063    38A      0.405052    39A      0.437156  
      40A      0.443372    41A      0.444940    42A      0.454235  
      43A      0.467231    44A      0.490028    45A      0.495584  
      46A      0.501180    47A      0.503663    48A      0.532295  
      49A      0.582906    50A      0.606821    51A      0.613203  
      52A      0.639969    53A      0.652634    54A      0.761622  
      55A      0.796373    56A      0.800431    57A      0.803333  
      58A      0.828980    59A      0.849179    60A      0.863842  
      61A      0.883721    62A      0.905660    63A      0.917375  
      64A      0.937933    65A      0.938691    66A      0.953726  
      67A      0.967680    68A      0.973171    69A      0.975529  
      70A      0.992185    71A      1.012230    72A      1.060990  
      73A      1.069005    74A      1.082330    75A      1.083902  
      76A      1.093950    77A      1.107186    78A      1.111714  
      79A      1.137461    80A      1.155543    81A      1.190456  
      82A      1.199233    83A      1.221421    84A      1.258232  
      85A      1.259258    86A      1.288907    87A      1.293980  
      88A      1.308900    89A      1.344290    90A      1.384765  
      91A      1.413488    92A      1.443579    93A      1.452058  
      94A      1.469136    95A      1.498787    96A      1.605065  
      97A      1.613009    98A      1.647308    99A      1.649423  
     100A      1.666599   101A      1.677469   102A      1.703664  
     103A      1.726282   104A      1.779580   105A      1.835726  
     106A      1.848954   107A      1.931867   108A      1.943570  
     109A      2.000882   110A      2.004693   111A      2.020989  
     112A      2.028804   113A      2.042695   114A      2.075386  
     115A      2.081543   116A      2.197404   117A      2.209623  
     118A      2.224360   119A      2.240603   120A      2.281357  
     121A      2.312418   122A      2.402028   123A      2.439231  
     124A      2.444489   125A      2.478586   126A      2.535516  
     127A      2.560224   128A      2.595196   129A      2.691401  
     130A      2.907586   131A      3.116967   132A      3.370057  
     133A      3.381440   134A      3.413649   135A      3.578807  
     136A      3.600267   137A      3.605063   138A      3.611327  
     139A      3.643374   140A      3.695531   141A      3.753460  
     142A      3.850038   143A      3.873208   144A      3.878563  
     145A      3.914602   146A      3.959166   147A      4.008758  
     148A      4.081334   149A      4.086319   150A      4.108689  
     151A      4.116067   152A      4.149516   153A      4.206141  
     154A      4.215104   155A      4.275737   156A      4.307898  
     157A      4.321063   158A      4.365779   159A      4.413759  
     160A      4.444481   161A      4.477126   162A      4.593333  
     163A      4.596821   164A      4.627325   165A      4.683403  
     166A      4.723693   167A      4.755108   168A      4.795050  
     169A      4.809980   170A      4.889870   171A      4.890256  
     172A      4.993239   173A      4.995010   174A      5.038380  
     175A      5.050839   176A      5.104295   177A      5.126241  
     178A      5.146149   179A      5.195517   180A      5.227723  
     181A      5.237498   182A      5.361205   183A      5.488359  
     184A      5.544567   185A      5.562615   186A      5.568538  
     187A      5.767877   188A      5.803247   189A      5.869490  
     190A      5.914653   191A      5.972494   192A      5.996088  
     193A      6.113087   194A      6.129608   195A      6.175305  
     196A      6.246880   197A      6.409255   198A      6.543348  
     199A      6.562002   200A      6.694947   201A      6.745377  
     202A      6.797684   203A      7.029946   204A      7.085331  
     205A      7.793700   206A     16.860843   207A     17.988605  

    Final Occupation by Irrep:
              A 
    DOCC [     9 ]

  @DF-RHF Final Energy:   -95.25534052209274

   => Energetics <=

    Nuclear Repulsion Energy =             42.1072637075670215
    One-Electron Energy =                -211.5611846022558211
    Two-Electron Energy =                  74.1985803725960551
    Total Energy =                        -95.2553405220927374

Computation Completed


Properties will be evaluated at   0.000000,   0.000000,   0.000000 [a0]

Properties computed using the SCF density matrix

  Nuclear Dipole Moment: [e a0]
     X:   -14.0565      Y:   -11.4860      Z:   128.9328

  Electronic Dipole Moment: [e a0]
     X:    13.7006      Y:    11.8605      Z:  -129.1853

  Dipole Moment: [e a0]
     X:    -0.3559      Y:     0.3745      Z:    -0.2525     Total:     0.5750

  Dipole Moment: [D]
     X:    -0.9046      Y:     0.9520      Z:    -0.6418     Total:     1.4616


*** tstop() called on node94.bme.utexas.edu at Thu Apr 23 19:02:14 2020
Module time:
	user time   =      13.49 seconds =       0.22 minutes
	system time =       0.43 seconds =       0.01 minutes
	total time  =          3 seconds =       0.05 minutes
Total time:
	user time   =      13.49 seconds =       0.22 minutes
	system time =       0.43 seconds =       0.01 minutes
	total time  =          3 seconds =       0.05 minutes

*** tstart() called on node94.bme.utexas.edu
*** at Thu Apr 23 19:02:14 2020


  //>>>>>>>>>>>>>>>>>>>>>>>>>>>>>>>>>>>//
  //               DFMP2               //
  //<<<<<<<<<<<<<<<<<<<<<<<<<<<<<<<<<<<//

   => Loading Basis Set <=

    Name: (AUG-CC-PVTZ AUX)
    Role: RIFIT
    Keyword: DF_BASIS_MP2
    atoms 1        entry N          line   206 file /home/liuchw/anaconda3/envs/psi4env/share/psi4/basis/aug-cc-pvtz-ri.gbs 
    atoms 2-3, 5-7 entry H          line    30 file /home/liuchw/anaconda3/envs/psi4env/share/psi4/basis/aug-cc-pvtz-ri.gbs 
    atoms 4        entry C          line   148 file /home/liuchw/anaconda3/envs/psi4env/share/psi4/basis/aug-cc-pvtz-ri.gbs 

	 --------------------------------------------------------
	                          DF-MP2                         
	      2nd-Order Density-Fitted Moller-Plesset Theory     
	              RMP2 Wavefunction,   8 Threads             
	                                                         
	        Rob Parrish, Justin Turney, Andy Simmonett,      
	           Ed Hohenstein, and C. David Sherrill          
	 --------------------------------------------------------

   => Auxiliary Basis Set <=

  Basis Set: (AUG-CC-PVTZ AUX)
    Blend: AUG-CC-PVTZ-RI
    Number of shells: 126
    Number of basis function: 442
    Number of Cartesian functions: 547
    Spherical Harmonics?: true
    Max angular momentum: 4

	 --------------------------------------------------------
	                 NBF =   207, NAUX =   442
	 --------------------------------------------------------
	   CLASS    FOCC     OCC    AOCC    AVIR     VIR    FVIR
	   PAIRS       0       9       9     198     198       0
	 --------------------------------------------------------

	-----------------------------------------------------------
	 ==================> DF-MP2 Energies <==================== 
	-----------------------------------------------------------
	 Reference Energy          =     -95.2553405220927374 [Eh]
	 Singles Energy            =      -0.0000000000000000 [Eh]
	 Same-Spin Energy          =      -0.0954239219058488 [Eh]
	 Opposite-Spin Energy      =      -0.3517039482980722 [Eh]
	 Correlation Energy        =      -0.4471278702039209 [Eh]
	 Total Energy              =     -95.7024683922966517 [Eh]
	-----------------------------------------------------------
	 ================> DF-SCS-MP2 Energies <================== 
	-----------------------------------------------------------
	 SCS Same-Spin Scale       =       0.3333333333333333 [-]
	 SCS Opposite-Spin Scale   =       1.2000000000000000 [-]
	 SCS Same-Spin Energy      =      -0.0318079739686163 [Eh]
	 SCS Opposite-Spin Energy  =      -0.4220447379576866 [Eh]
	 SCS Correlation Energy    =      -0.4538527119263028 [Eh]
	 SCS Total Energy          =     -95.7091932340190397 [Eh]
	-----------------------------------------------------------


*** tstop() called on node94.bme.utexas.edu at Thu Apr 23 19:02:14 2020
Module time:
	user time   =       5.54 seconds =       0.09 minutes
	system time =       0.18 seconds =       0.00 minutes
	total time  =          0 seconds =       0.00 minutes
Total time:
	user time   =      19.04 seconds =       0.32 minutes
	system time =       0.61 seconds =       0.01 minutes
	total time  =          3 seconds =       0.05 minutes

  //>>>>>>>>>>>>>>>>>>>>>>>>>>>>>>>>>>>>//
  // CBS Computation: MP2 / AUG-CC-PVQZ //
  //<<<<<<<<<<<<<<<<<<<<<<<<<<<<<<<<<<<<//


Scratch directory: /scratch/liuchw/

*** tstart() called on node94.bme.utexas.edu
*** at Thu Apr 23 19:02:14 2020

   => Loading Basis Set <=

    Name: AUG-CC-PVQZ
    Role: ORBITAL
    Keyword: BASIS
    atoms 1        entry N          line   363 file /home/liuchw/anaconda3/envs/psi4env/share/psi4/basis/aug-cc-pvqz.gbs 
    atoms 2-3, 5-7 entry H          line    40 file /home/liuchw/anaconda3/envs/psi4env/share/psi4/basis/aug-cc-pvqz.gbs 
    atoms 4        entry C          line   303 file /home/liuchw/anaconda3/envs/psi4env/share/psi4/basis/aug-cc-pvqz.gbs 


         ---------------------------------------------------------
                                   SCF
               by Justin Turney, Rob Parrish, Andy Simmonett
                          and Daniel G. A. Smith
                              RHF Reference
                        8 Threads,  19073 MiB Core
         ---------------------------------------------------------

  ==> Geometry <==

    Molecular point group: c1
    Full point group: C1

    Geometry (in Angstrom), charge = 0, multiplicity = 1:

       Center              X                  Y                   Z               Mass       
    ------------   -----------------  -----------------  -----------------  -----------------
         N            0.319682558888    -0.167342504884     3.674508773664    14.003074004430
         H            0.454302558888    -0.123302504884     2.671438773664     1.007825032230
         H            0.461172558888     0.777807495116     4.006978773664     1.007825032230
         C           -1.056417441112    -0.573722504884     3.951948773664    12.000000000000
         H           -1.214287441112    -0.602272504884     5.028498773664     1.007825032230
         H           -1.827717441112     0.066657495116     3.511828773664     1.007825032230
         H           -1.211107441112    -1.583292504884     3.576318773664     1.007825032230

  Running in c1 symmetry.

  Rotational constants: A =      0.83153  B =      0.03648  C =      0.03528 [cm^-1]
  Rotational constants: A =  24928.66296  B =   1093.63057  C =   1057.67779 [MHz]
  Nuclear repulsion =   42.107263707567022

  Charge       = 0
  Multiplicity = 1
  Electrons    = 18
  Nalpha       = 9
  Nbeta        = 9

  ==> Algorithm <==

  SCF Algorithm Type is DF.
  DIIS enabled.
  MOM disabled.
  Fractional occupation disabled.
  Guess Type is SAD.
  Energy threshold   = 1.00e-07
  Density threshold  = 1.00e-08
  Integral threshold = 0.00e+00

  ==> Primary Basis <==

  Basis Set: AUG-CC-PVQZ
    Blend: AUG-CC-PVQZ
    Number of shells: 110
    Number of basis function: 390
    Number of Cartesian functions: 485
    Spherical Harmonics?: true
    Max angular momentum: 4

   => Loading Basis Set <=

    Name: (AUG-CC-PVQZ AUX)
    Role: JKFIT
    Keyword: DF_BASIS_SCF
    atoms 1        entry N          line   248 file /home/liuchw/anaconda3/envs/psi4env/share/psi4/basis/aug-cc-pvqz-jkfit.gbs 
    atoms 2-3, 5-7 entry H          line    70 file /home/liuchw/anaconda3/envs/psi4env/share/psi4/basis/aug-cc-pvqz-jkfit.gbs 
    atoms 4        entry C          line   178 file /home/liuchw/anaconda3/envs/psi4env/share/psi4/basis/aug-cc-pvqz-jkfit.gbs 

  ==> Pre-Iterations <==

   -------------------------------------------------------
    Irrep   Nso     Nmo     Nalpha   Nbeta   Ndocc  Nsocc
   -------------------------------------------------------
     A        390     390       0       0       0       0
   -------------------------------------------------------
    Total     390     390       9       9       9       0
   -------------------------------------------------------

  ==> Integral Setup <==

  DFHelper Memory: AOs need 0.801 GiB; user supplied 13.970 GiB. Using in-core AOs.

  ==> MemDFJK: Density-Fitted J/K Matrices <==

    J tasked:                   Yes
    K tasked:                   Yes
    wK tasked:                   No
    OpenMP threads:               8
    Memory [MiB]:             14305
    Algorithm:                 Core
    Schwarz Cutoff:           1E-12
    Mask sparsity (%):       0.1394
    Fitting Condition:        1E-10

   => Auxiliary Basis Set <=

  Basis Set: (AUG-CC-PVQZ AUX)
    Blend: AUG-CC-PVQZ-JKFIT
    Number of shells: 158
    Number of basis function: 664
    Number of Cartesian functions: 901
    Spherical Harmonics?: true
    Max angular momentum: 5

  Minimum eigenvalue in the overlap matrix is 1.0737995192E-05.
  Using Symmetric Orthogonalization.

  SCF Guess: Superposition of Atomic Densities via on-the-fly atomic UHF.

  ==> Iterations <==

                           Total Energy        Delta E     RMS |[F,P]|

   @DF-RHF iter SAD:   -94.63362259250439   -9.46336e+01   0.00000e+00 
   @DF-RHF iter   1:   -95.14415912164590   -5.10537e-01   1.21123e-03 DIIS
   @DF-RHF iter   2:   -95.23248805466824   -8.83289e-02   6.58281e-04 DIIS
   @DF-RHF iter   3:   -95.26003087597870   -2.75428e-02   9.36364e-05 DIIS
   @DF-RHF iter   4:   -95.26123776448242   -1.20689e-03   2.71893e-05 DIIS
   @DF-RHF iter   5:   -95.26131804142595   -8.02769e-05   6.74134e-06 DIIS
   @DF-RHF iter   6:   -95.26132431002036   -6.26859e-06   1.38352e-06 DIIS
   @DF-RHF iter   7:   -95.26132473737346   -4.27353e-07   3.12815e-07 DIIS
   @DF-RHF iter   8:   -95.26132476140131   -2.40279e-08   7.59498e-08 DIIS
   @DF-RHF iter   9:   -95.26132476307077   -1.66946e-09   1.79488e-08 DIIS
   @DF-RHF iter  10:   -95.26132476316431   -9.35358e-11   4.46033e-09 DIIS
  Energy and wave function converged.


  ==> Post-Iterations <==

    Orbital Energies [Eh]
    ---------------------

    Doubly Occupied:                                                      

       1A    -15.538746     2A    -11.239380     3A     -1.171917  
       4A     -0.895737     5A     -0.662179     6A     -0.604941  
       7A     -0.555546     8A     -0.516365     9A     -0.394759  

    Virtual:                                                              

      10A      0.026067    11A      0.038610    12A      0.039428  
      13A      0.044406    14A      0.062630    15A      0.086347  
      16A      0.106461    17A      0.106959    18A      0.118994  
      19A      0.121057    20A      0.136236    21A      0.144375  
      22A      0.171645    23A      0.193846    24A      0.202254  
      25A      0.214200    26A      0.226681    27A      0.233588  
      28A      0.239798    29A      0.247779    30A      0.267726  
      31A      0.273956    32A      0.278404    33A      0.280558  
      34A      0.311732    35A      0.320487    36A      0.325697  
      37A      0.326224    38A      0.331084    39A      0.348359  
      40A      0.354511    41A      0.358779    42A      0.379232  
      43A      0.380011    44A      0.391509    45A      0.392194  
      46A      0.407639    47A      0.414138    48A      0.431564  
      49A      0.449637    50A      0.467309    51A      0.502257  
      52A      0.516362    53A      0.520542    54A      0.573887  
      55A      0.580661    56A      0.598243    57A      0.614967  
      58A      0.630638    59A      0.655574    60A      0.674827  
      61A      0.694768    62A      0.705070    63A      0.706767  
      64A      0.712008    65A      0.725173    66A      0.733122  
      67A      0.734339    68A      0.751878    69A      0.752550  
      70A      0.766446    71A      0.785703    72A      0.790485  
      73A      0.798345    74A      0.804918    75A      0.807369  
      76A      0.808029    77A      0.830576    78A      0.832978  
      79A      0.852154    80A      0.862537    81A      0.870057  
      82A      0.891942    83A      0.910409    84A      0.924181  
      85A      0.956026    86A      0.960403    87A      0.982906  
      88A      0.987820    89A      0.996615    90A      1.004946  
      91A      1.014518    92A      1.025351    93A      1.050694  
      94A      1.120371    95A      1.131880    96A      1.156712  
      97A      1.166362    98A      1.185364    99A      1.200180  
     100A      1.201602   101A      1.226381   102A      1.263782  
     103A      1.290321   104A      1.338550   105A      1.363421  
     106A      1.373259   107A      1.388831   108A      1.389743  
     109A      1.459087   110A      1.468310   111A      1.474754  
     112A      1.493913   113A      1.527899   114A      1.529306  
     115A      1.533930   116A      1.536286   117A      1.547865  
     118A      1.583626   119A      1.584767   120A      1.594060  
     121A      1.647002   122A      1.650073   123A      1.688677  
     124A      1.699921   125A      1.709654   126A      1.754279  
     127A      1.771210   128A      1.781073   129A      1.800702  
     130A      1.839080   131A      1.844762   132A      1.849424  
     133A      1.873129   134A      1.889683   135A      1.897413  
     136A      1.933215   137A      1.940876   138A      1.953621  
     139A      1.959322   140A      1.981522   141A      1.997613  
     142A      2.008763   143A      2.018701   144A      2.040115  
     145A      2.043069   146A      2.057630   147A      2.079103  
     148A      2.084902   149A      2.108591   150A      2.132237  
     151A      2.143449   152A      2.167272   153A      2.174356  
     154A      2.191232   155A      2.210265   156A      2.211110  
     157A      2.222810   158A      2.252427   159A      2.256997  
     160A      2.264784   161A      2.293520   162A      2.313759  
     163A      2.318600   164A      2.343107   165A      2.381836  
     166A      2.427276   167A      2.435886   168A      2.478981  
     169A      2.508061   170A      2.525541   171A      2.560427  
     172A      2.585977   173A      2.622950   174A      2.626789  
     175A      2.684996   176A      2.727107   177A      2.746274  
     178A      2.758194   179A      2.801313   180A      2.803984  
     181A      2.825840   182A      2.829091   183A      2.856293  
     184A      2.873665   185A      2.908526   186A      2.914827  
     187A      2.953982   188A      2.999066   189A      3.017453  
     190A      3.058569   191A      3.071445   192A      3.110171  
     193A      3.119239   194A      3.144401   195A      3.156649  
     196A      3.178238   197A      3.204536   198A      3.228352  
     199A      3.240049   200A      3.244887   201A      3.251271  
     202A      3.337097   203A      3.372071   204A      3.419508  
     205A      3.424645   206A      3.473697   207A      3.490228  
     208A      3.555365   209A      3.575037   210A      3.594776  
     211A      3.628941   212A      3.739468   213A      3.740742  
     214A      3.766249   215A      3.778869   216A      3.793112  
     217A      3.813855   218A      3.839642   219A      3.921464  
     220A      3.951716   221A      4.004602   222A      4.007943  
     223A      4.050912   224A      4.071881   225A      4.107658  
     226A      4.115281   227A      4.139332   228A      4.155831  
     229A      4.194566   230A      4.209979   231A      4.243614  
     232A      4.278324   233A      4.285284   234A      4.353845  
     235A      4.452217   236A      4.457282   237A      4.460783  
     238A      4.499025   239A      4.502717   240A      4.576776  
     241A      4.599094   242A      4.629489   243A      4.639937  
     244A      4.671675   245A      4.770702   246A      4.789559  
     247A      4.833993   248A      4.850463   249A      4.857578  
     250A      4.986068   251A      5.077862   252A      5.092182  
     253A      5.147780   254A      5.220242   255A      5.292174  
     256A      5.355552   257A      5.404780   258A      5.429560  
     259A      5.596718   260A      5.649529   261A      6.189345  
     262A      6.240455   263A      6.295120   264A      6.458058  
     265A      6.463489   266A      6.504514   267A      6.709349  
     268A      6.741015   269A      6.753704   270A      6.796840  
     271A      6.827054   272A      6.883968   273A      6.931339  
     274A      6.950192   275A      6.962271   276A      6.988312  
     277A      6.995519   278A      7.009775   279A      7.013206  
     280A      7.109919   281A      7.154584   282A      7.160584  
     283A      7.215324   284A      7.252693   285A      7.335506  
     286A      7.367955   287A      7.418265   288A      7.456534  
     289A      7.469842   290A      7.530611   291A      7.607715  
     292A      7.678667   293A      7.691796   294A      7.708674  
     295A      7.729801   296A      7.760127   297A      7.767619  
     298A      7.829712   299A      7.879042   300A      7.945125  
     301A      7.972957   302A      8.000326   303A      8.018009  
     304A      8.078357   305A      8.091616   306A      8.150340  
     307A      8.156525   308A      8.284979   309A      8.388862  
     310A      8.401053   311A      8.457266   312A      8.503220  
     313A      8.522424   314A      8.557434   315A      8.587302  
     316A      8.667718   317A      8.683855   318A      8.697991  
     319A      8.715936   320A      8.741767   321A      8.819883  
     322A      8.826930   323A      8.941310   324A      8.975992  
     325A      8.978835   326A      9.058719   327A      9.083999  
     328A      9.101330   329A      9.132365   330A      9.204453  
     331A      9.251163   332A      9.271441   333A      9.276612  
     334A      9.319615   335A      9.368030   336A      9.388862  
     337A      9.424322   338A      9.451862   339A      9.455817  
     340A      9.557038   341A      9.610239   342A      9.630661  
     343A      9.657719   344A      9.712370   345A      9.745084  
     346A      9.817598   347A      9.869081   348A      9.871125  
     349A      9.952170   350A      9.995669   351A     10.069223  
     352A     10.102942   353A     10.136729   354A     10.139463  
     355A     10.186674   356A     10.218809   357A     10.228605  
     358A     10.360113   359A     10.477395   360A     10.481849  
     361A     10.529758   362A     10.592700   363A     10.618719  
     364A     10.695172   365A     10.760481   366A     10.766528  
     367A     10.912633   368A     10.915804   369A     10.976024  
     370A     11.046940   371A     11.186841   372A     11.252208  
     373A     11.304290   374A     11.450263   375A     11.498965  
     376A     11.565965   377A     11.585408   378A     12.200244  
     379A     12.346873   380A     12.410618   381A     12.628108  
     382A     12.660645   383A     13.218430   384A     13.239939  
     385A     13.341146   386A     13.632026   387A     14.982856  
     388A     15.208124   389A     29.095325   390A     36.329387  

    Final Occupation by Irrep:
              A 
    DOCC [     9 ]

  @DF-RHF Final Energy:   -95.26132476316431

   => Energetics <=

    Nuclear Repulsion Energy =             42.1072637075670215
    One-Electron Energy =                -211.5780369088154202
    Two-Electron Energy =                  74.2094484380840811
    Total Energy =                        -95.2613247631643105

Computation Completed


Properties will be evaluated at   0.000000,   0.000000,   0.000000 [a0]

Properties computed using the SCF density matrix

  Nuclear Dipole Moment: [e a0]
     X:   -14.0565      Y:   -11.4860      Z:   128.9328

  Electronic Dipole Moment: [e a0]
     X:    13.7005      Y:    11.8603      Z:  -129.1851

  Dipole Moment: [e a0]
     X:    -0.3560      Y:     0.3743      Z:    -0.2523     Total:     0.5748

  Dipole Moment: [D]
     X:    -0.9047      Y:     0.9513      Z:    -0.6413     Total:     1.4611


*** tstop() called on node94.bme.utexas.edu at Thu Apr 23 19:02:19 2020
Module time:
	user time   =      31.52 seconds =       0.53 minutes
	system time =       0.84 seconds =       0.01 minutes
	total time  =          5 seconds =       0.08 minutes
Total time:
	user time   =      50.60 seconds =       0.84 minutes
	system time =       1.45 seconds =       0.02 minutes
	total time  =          8 seconds =       0.13 minutes

*** tstart() called on node94.bme.utexas.edu
*** at Thu Apr 23 19:02:19 2020


  //>>>>>>>>>>>>>>>>>>>>>>>>>>>>>>>>>>>//
  //               DFMP2               //
  //<<<<<<<<<<<<<<<<<<<<<<<<<<<<<<<<<<<//

   => Loading Basis Set <=

    Name: (AUG-CC-PVQZ AUX)
    Role: RIFIT
    Keyword: DF_BASIS_MP2
    atoms 1        entry N          line   258 file /home/liuchw/anaconda3/envs/psi4env/share/psi4/basis/aug-cc-pvqz-ri.gbs 
    atoms 2-3, 5-7 entry H          line    30 file /home/liuchw/anaconda3/envs/psi4env/share/psi4/basis/aug-cc-pvqz-ri.gbs 
    atoms 4        entry C          line   184 file /home/liuchw/anaconda3/envs/psi4env/share/psi4/basis/aug-cc-pvqz-ri.gbs 

	 --------------------------------------------------------
	                          DF-MP2                         
	      2nd-Order Density-Fitted Moller-Plesset Theory     
	              RMP2 Wavefunction,   8 Threads             
	                                                         
	        Rob Parrish, Justin Turney, Andy Simmonett,      
	           Ed Hohenstein, and C. David Sherrill          
	 --------------------------------------------------------

   => Auxiliary Basis Set <=

  Basis Set: (AUG-CC-PVQZ AUX)
    Blend: AUG-CC-PVQZ-RI
    Number of shells: 172
    Number of basis function: 736
    Number of Cartesian functions: 999
    Spherical Harmonics?: true
    Max angular momentum: 5

	 --------------------------------------------------------
	                 NBF =   390, NAUX =   736
	 --------------------------------------------------------
	   CLASS    FOCC     OCC    AOCC    AVIR     VIR    FVIR
	   PAIRS       0       9       9     381     381       0
	 --------------------------------------------------------

	-----------------------------------------------------------
	 ==================> DF-MP2 Energies <==================== 
	-----------------------------------------------------------
	 Reference Energy          =     -95.2613247631643105 [Eh]
	 Singles Energy            =      -0.0000000000000000 [Eh]
	 Same-Spin Energy          =      -0.1011562741189415 [Eh]
	 Opposite-Spin Energy      =      -0.3925424759080697 [Eh]
	 Correlation Energy        =      -0.4936987500270112 [Eh]
	 Total Energy              =     -95.7550235131913183 [Eh]
	-----------------------------------------------------------
	 ================> DF-SCS-MP2 Energies <================== 
	-----------------------------------------------------------
	 SCS Same-Spin Scale       =       0.3333333333333333 [-]
	 SCS Opposite-Spin Scale   =       1.2000000000000000 [-]
	 SCS Same-Spin Energy      =      -0.0337187580396472 [Eh]
	 SCS Opposite-Spin Energy  =      -0.4710509710896836 [Eh]
	 SCS Correlation Energy    =      -0.5047697291293307 [Eh]
	 SCS Total Energy          =     -95.7660944922936466 [Eh]
	-----------------------------------------------------------


*** tstop() called on node94.bme.utexas.edu at Thu Apr 23 19:02:21 2020
Module time:
	user time   =      12.76 seconds =       0.21 minutes
	system time =       0.36 seconds =       0.01 minutes
	total time  =          2 seconds =       0.03 minutes
Total time:
	user time   =      63.36 seconds =       1.06 minutes
	system time =       1.81 seconds =       0.03 minutes
	total time  =         10 seconds =       0.17 minutes

  //>>>>>>>>>>>>>>>>>>>>>>>>>>>>>>>>>>>//
  //  CBS Results: mp2/aug-cc-pv[tq]z  //
  //<<<<<<<<<<<<<<<<<<<<<<<<<<<<<<<<<<<//


   ==> HF <==

   HI-zeta (4) Energy:               -95.261324763164


   ==> Helgaker 2-point correlated extrapolation for method: MP2 <==

   LO-zeta (3) Energy:               -95.702468392297
   HI-zeta (4) Energy:               -95.755023513191
   Alpha (exponent) Value:             3.000000000000
   Extrapolated Energy:              -95.793374547358

   @Extrapolated MP2/(T,Q):          -95.793374547358



   ==> Helgaker 2-point correlated extrapolation for method: HF <==

   LO-zeta (3) Energy:               -95.255340522093
   HI-zeta (4) Energy:               -95.261324763164
   Alpha (exponent) Value:             3.000000000000
   Extrapolated Energy:              -95.265691641784

   @Extrapolated HF/(T,Q):           -95.265691641784


   ==> Components <==

  ---------------------------------------------------------------------------------------------------------
                          Method / Basis                      Rqd      Energy [Eh]   Variable
  ---------------------------------------------------------------------------------------------------------
                              hf / aug-cc-pvtz                  *     -95.25534052   HF TOTAL ENERGY
                             mp2 / aug-cc-pvtz                  *     -95.70246839   MP2 TOTAL ENERGY
                              hf / aug-cc-pvqz                  *     -95.26132476   HF TOTAL ENERGY
                             mp2 / aug-cc-pvqz                  *     -95.75502351   MP2 TOTAL ENERGY
  ---------------------------------------------------------------------------------------------------------

   ==> Stages <==

  ---------------------------------------------------------------------------------------------------------
      Stage               Method / Basis                       Wt      Energy [Eh]   Scheme
  ---------------------------------------------------------------------------------------------------------
        scf                   hf / aug-cc-pvqz                  1     -95.26132476   xtpl_highest_1
       corl                  mp2 / aug-cc-pv[tq]z               1     -95.79337455   corl_xtpl_helgaker_2
       corl                   hf / aug-cc-pv[tq]z              -1     -95.26569164   corl_xtpl_helgaker_2
  ---------------------------------------------------------------------------------------------------------

   ==> CBS <==

  ---------------------------------------------------------------------------------------------------------
      Stage               Method / Basis                               Energy [Eh]   Scheme
  ---------------------------------------------------------------------------------------------------------
        scf                   hf / aug-cc-pvqz                        -95.26132476   xtpl_highest_1
       corl                  mp2 / aug-cc-pv[tq]z                      -0.52768291   corl_xtpl_helgaker_2
      total                  CBS                                      -95.78900767   
  ---------------------------------------------------------------------------------------------------------
   => Loading Basis Set <=

    Name: DEF2-SVP
    Role: ORBITAL
    Keyword: BASIS
    atoms 1        entry N          line   110 file /home/liuchw/anaconda3/envs/psi4env/share/psi4/basis/def2-svp.gbs 
    atoms 2-3, 5-7 entry H          line    15 file /home/liuchw/anaconda3/envs/psi4env/share/psi4/basis/def2-svp.gbs 
    atoms 4        entry C          line    90 file /home/liuchw/anaconda3/envs/psi4env/share/psi4/basis/def2-svp.gbs 


       N-Body: Complex Energy (fragments = (2,), basis = (2,):   -95.78900766873790)

       N-Body: Computing complex (2/4) with fragments (2,) in the basis of fragments (1, 2).


Scratch directory: /scratch/liuchw/

  //>>>>>>>>>>>>>>>>>>>>>>>>>>>>>>>>>>>//
  //   CBS Setup: mp2/aug-cc-pv[tq]z   //
  //<<<<<<<<<<<<<<<<<<<<<<<<<<<<<<<<<<<//

    Naive listing of computations required.
             hf / aug-cc-pvqz              for  HF TOTAL ENERGY
            mp2 / aug-cc-pvtz              for  MP2 TOTAL ENERGY
            mp2 / aug-cc-pvqz              for  MP2 TOTAL ENERGY
             hf / aug-cc-pvtz              for  HF TOTAL ENERGY
             hf / aug-cc-pvqz              for  HF TOTAL ENERGY

    Enlightened listing of computations required.
            mp2 / aug-cc-pvtz              for  MP2 TOTAL ENERGY
            mp2 / aug-cc-pvqz              for  MP2 TOTAL ENERGY

    Full listing of computations to be obtained (required and bonus).
             hf / aug-cc-pvtz              for  HF TOTAL ENERGY
            mp2 / aug-cc-pvtz              for  MP2 TOTAL ENERGY
             hf / aug-cc-pvqz              for  HF TOTAL ENERGY
            mp2 / aug-cc-pvqz              for  MP2 TOTAL ENERGY

  //>>>>>>>>>>>>>>>>>>>>>>>>>>>>>>>>>>>>//
  // CBS Computation: MP2 / AUG-CC-PVTZ //
  //<<<<<<<<<<<<<<<<<<<<<<<<<<<<<<<<<<<<//


Scratch directory: /scratch/liuchw/

*** tstart() called on node94.bme.utexas.edu
*** at Thu Apr 23 19:02:23 2020

   => Loading Basis Set <=

    Name: AUG-CC-PVTZ
    Role: ORBITAL
    Keyword: BASIS
    atoms 1, 3, 5, 7, 9, 11, 16            entry C          line   239 file /home/liuchw/anaconda3/envs/psi4env/share/psi4/basis/aug-cc-pvtz.gbs 
    atoms 2, 4, 6, 8, 10, 12, 14-15, 17-19 entry H          line    40 file /home/liuchw/anaconda3/envs/psi4env/share/psi4/basis/aug-cc-pvtz.gbs 
    atoms 13                               entry N          line   285 file /home/liuchw/anaconda3/envs/psi4env/share/psi4/basis/aug-cc-pvtz.gbs 


         ---------------------------------------------------------
                                   SCF
               by Justin Turney, Rob Parrish, Andy Simmonett
                          and Daniel G. A. Smith
                              RHF Reference
                        8 Threads,  19073 MiB Core
         ---------------------------------------------------------

  ==> Geometry <==

    Molecular point group: c1
    Full point group: C1

    Geometry (in Angstrom), charge = 0, multiplicity = 1:

       Center              X                  Y                   Z               Mass       
    ------------   -----------------  -----------------  -----------------  -----------------
      Gh(C)           0.908122558888     1.302087495116    -1.603131226336    12.000000000000
      Gh(H)           1.497752558888     2.205747495116    -1.675451226336     1.007825032230
      Gh(C)           1.533992558888     0.056927495116    -1.641071226336    12.000000000000
      Gh(H)           2.608942558888    -0.005682504884    -1.739561226336     1.007825032230
      Gh(C)           0.773822558888    -1.108152504884    -1.546571226336    12.000000000000
      Gh(H)           1.259722558888    -2.073772504884    -1.570351226336     1.007825032230
      Gh(C)          -0.611747441112    -1.027622504884    -1.416291226336    12.000000000000
      Gh(H)          -1.200897441112    -1.931452504884    -1.342631226336     1.007825032230
      Gh(C)          -1.237607441112     0.217467495116    -1.379591226336    12.000000000000
      Gh(H)          -2.312427441112     0.279497495116    -1.278131226336     1.007825032230
      Gh(C)          -0.477657441112     1.382197495116    -1.471741226336    12.000000000000
      Gh(H)          -0.962937441112     2.348207495116    -1.442241226336     1.007825032230
         N            0.319682558888    -0.167342504884     3.674508773664    14.003074004430
         H            0.454302558888    -0.123302504884     2.671438773664     1.007825032230
         H            0.461172558888     0.777807495116     4.006978773664     1.007825032230
         C           -1.056417441112    -0.573722504884     3.951948773664    12.000000000000
         H           -1.214287441112    -0.602272504884     5.028498773664     1.007825032230
         H           -1.827717441112     0.066657495116     3.511828773664     1.007825032230
         H           -1.211107441112    -1.583292504884     3.576318773664     1.007825032230

  Running in c1 symmetry.

  Rotational constants: A =      0.08780  B =      0.02288  C =      0.02255 [cm^-1]
  Rotational constants: A =   2632.28977  B =    686.01564  C =    676.01614 [MHz]
  Nuclear repulsion =   42.107263707567022

  Charge       = 0
  Multiplicity = 1
  Electrons    = 18
  Nalpha       = 9
  Nbeta        = 9

  ==> Algorithm <==

  SCF Algorithm Type is DF.
  DIIS enabled.
  MOM disabled.
  Fractional occupation disabled.
  Guess Type is SAD.
  Energy threshold   = 1.00e-07
  Density threshold  = 1.00e-08
  Integral threshold = 0.00e+00

  ==> Primary Basis <==

  Basis Set: AUG-CC-PVTZ
    Blend: AUG-CC-PVTZ
    Number of shells: 211
    Number of basis function: 621
    Number of Cartesian functions: 715
    Spherical Harmonics?: true
    Max angular momentum: 3

   => Loading Basis Set <=

    Name: (AUG-CC-PVTZ AUX)
    Role: JKFIT
    Keyword: DF_BASIS_SCF
    atoms 1, 3, 5, 7, 9, 11, 16            entry C          line   162 file /home/liuchw/anaconda3/envs/psi4env/share/psi4/basis/aug-cc-pvtz-jkfit.gbs 
    atoms 2, 4, 6, 8, 10, 12, 14-15, 17-19 entry H          line    70 file /home/liuchw/anaconda3/envs/psi4env/share/psi4/basis/aug-cc-pvtz-jkfit.gbs 
    atoms 13                               entry N          line   224 file /home/liuchw/anaconda3/envs/psi4env/share/psi4/basis/aug-cc-pvtz-jkfit.gbs 

  ==> Pre-Iterations <==

   -------------------------------------------------------
    Irrep   Nso     Nmo     Nalpha   Nbeta   Ndocc  Nsocc
   -------------------------------------------------------
     A        621     621       0       0       0       0
   -------------------------------------------------------
    Total     621     621       9       9       9       0
   -------------------------------------------------------

  ==> Integral Setup <==

  DFHelper Memory: AOs need 3.524 GiB; user supplied 13.970 GiB. Using in-core AOs.

  ==> MemDFJK: Density-Fitted J/K Matrices <==

    J tasked:                   Yes
    K tasked:                   Yes
    wK tasked:                   No
    OpenMP threads:               8
    Memory [MiB]:             14305
    Algorithm:                 Core
    Schwarz Cutoff:           1E-12
    Mask sparsity (%):      11.2898
    Fitting Condition:        1E-10

   => Auxiliary Basis Set <=

  Basis Set: (AUG-CC-PVTZ AUX)
    Blend: AUG-CC-PVTZ-JKFIT
    Number of shells: 394
    Number of basis function: 1338
    Number of Cartesian functions: 1653
    Spherical Harmonics?: true
    Max angular momentum: 4

  Minimum eigenvalue in the overlap matrix is 3.0761591683E-07.
  Using Symmetric Orthogonalization.

  SCF Guess: Superposition of Atomic Densities via on-the-fly atomic UHF.

  ==> Iterations <==

                           Total Energy        Delta E     RMS |[F,P]|

   @DF-RHF iter SAD:   -94.62764990848585   -9.46276e+01   0.00000e+00 
   @DF-RHF iter   1:   -95.13851689010262   -5.10867e-01   7.59015e-04 DIIS
   @DF-RHF iter   2:   -95.22666596266878   -8.81491e-02   4.11948e-04 DIIS
   @DF-RHF iter   3:   -95.25407077088076   -2.74048e-02   5.82833e-05 DIIS
   @DF-RHF iter   4:   -95.25527023725951   -1.19947e-03   1.70039e-05 DIIS
   @DF-RHF iter   5:   -95.25534855591663   -7.83187e-05   4.12237e-06 DIIS
   @DF-RHF iter   6:   -95.25535469536371   -6.13945e-06   8.29757e-07 DIIS
   @DF-RHF iter   7:   -95.25535509316018   -3.97796e-07   1.87880e-07 DIIS
   @DF-RHF iter   8:   -95.25535511596274   -2.28026e-08   4.48771e-08 DIIS
   @DF-RHF iter   9:   -95.25535511750061   -1.53787e-09   1.07764e-08 DIIS
   @DF-RHF iter  10:   -95.25535511758940   -8.87894e-11   2.69341e-09 DIIS
  Energy and wave function converged.


  ==> Post-Iterations <==

    Orbital Energies [Eh]
    ---------------------

    Doubly Occupied:                                                      

       1A    -15.540549     2A    -11.240354     3A     -1.172280  
       4A     -0.895835     5A     -0.662084     6A     -0.604812  
       7A     -0.555409     8A     -0.516187     9A     -0.394513  

    Virtual:                                                              

      10A      0.016243    11A      0.029668    12A      0.030126  
      13A      0.036538    14A      0.047184    15A      0.047331  
      16A      0.049862    17A      0.054869    18A      0.057411  
      19A      0.065111    20A      0.067437    21A      0.085261  
      22A      0.091934    23A      0.093421    24A      0.097106  
      25A      0.100614    26A      0.105237    27A      0.113427  
      28A      0.122442    29A      0.122792    30A      0.126239  
      31A      0.127676    32A      0.135165    33A      0.140382  
      34A      0.143753    35A      0.145182    36A      0.147505  
      37A      0.153588    38A      0.156053    39A      0.157441  
      40A      0.158254    41A      0.164238    42A      0.168040  
      43A      0.170890    44A      0.187109    45A      0.194208  
      46A      0.195046    47A      0.196629    48A      0.216777  
      49A      0.226345    50A      0.232258    51A      0.232838  
      52A      0.235931    53A      0.240557    54A      0.251134  
      55A      0.269421    56A      0.273326    57A      0.281438  
      58A      0.284650    59A      0.285804    60A      0.288714  
      61A      0.292778    62A      0.297089    63A      0.303180  
      64A      0.308313    65A      0.315523    66A      0.317029  
      67A      0.323783    68A      0.326328    69A      0.328051  
      70A      0.338259    71A      0.344954    72A      0.347530  
      73A      0.352485    74A      0.356056    75A      0.362354  
      76A      0.364375    77A      0.369789    78A      0.374562  
      79A      0.380033    80A      0.383227    81A      0.388461  
      82A      0.393626    83A      0.397113    84A      0.400500  
      85A      0.404625    86A      0.407999    87A      0.409346  
      88A      0.417193    89A      0.418476    90A      0.427961  
      91A      0.428748    92A      0.429427    93A      0.433232  
      94A      0.435824    95A      0.445400    96A      0.449464  
      97A      0.450176    98A      0.457411    99A      0.465759  
     100A      0.469370   101A      0.474844   102A      0.484169  
     103A      0.489220   104A      0.492691   105A      0.493764  
     106A      0.510788   107A      0.514443   108A      0.518102  
     109A      0.522043   110A      0.525195   111A      0.536190  
     112A      0.549841   113A      0.553852   114A      0.558148  
     115A      0.565703   116A      0.572831   117A      0.580806  
     118A      0.591276   119A      0.595373   120A      0.600285  
     121A      0.604914   122A      0.607228   123A      0.618945  
     124A      0.621458   125A      0.627375   126A      0.630586  
     127A      0.634852   128A      0.646027   129A      0.659786  
     130A      0.664300   131A      0.671263   132A      0.679168  
     133A      0.680003   134A      0.682684   135A      0.695358  
     136A      0.697066   137A      0.701666   138A      0.707276  
     139A      0.712767   140A      0.720912   141A      0.723205  
     142A      0.725455   143A      0.737074   144A      0.744398  
     145A      0.747171   146A      0.751265   147A      0.754815  
     148A      0.757836   149A      0.775340   150A      0.785540  
     151A      0.786570   152A      0.793963   153A      0.801847  
     154A      0.810818   155A      0.814840   156A      0.828579  
     157A      0.834554   158A      0.842337   159A      0.858083  
     160A      0.866286   161A      0.873495   162A      0.881491  
     163A      0.885355   164A      0.890880   165A      0.898135  
     166A      0.907344   167A      0.908806   168A      0.920177  
     169A      0.925190   170A      0.947048   171A      0.961740  
     172A      0.962572   173A      0.969376   174A      0.979968  
     175A      0.983920   176A      0.997261   177A      1.002764  
     178A      1.015244   179A      1.018896   180A      1.019916  
     181A      1.036441   182A      1.037771   183A      1.042874  
     184A      1.053358   185A      1.061462   186A      1.062456  
     187A      1.071097   188A      1.074846   189A      1.076942  
     190A      1.081140   191A      1.085666   192A      1.087524  
     193A      1.097473   194A      1.104402   195A      1.109071  
     196A      1.116863   197A      1.120238   198A      1.121625  
     199A      1.129648   200A      1.138295   201A      1.144438  
     202A      1.152531   203A      1.154943   204A      1.158361  
     205A      1.169629   206A      1.170916   207A      1.174265  
     208A      1.179681   209A      1.184320   210A      1.185877  
     211A      1.187971   212A      1.205696   213A      1.214988  
     214A      1.230490   215A      1.237994   216A      1.244243  
     217A      1.250211   218A      1.266593   219A      1.270921  
     220A      1.280767   221A      1.284392   222A      1.289243  
     223A      1.292535   224A      1.298038   225A      1.300811  
     226A      1.303783   227A      1.307122   228A      1.308983  
     229A      1.309837   230A      1.311620   231A      1.314429  
     232A      1.315120   233A      1.317666   234A      1.324127  
     235A      1.329245   236A      1.331121   237A      1.339160  
     238A      1.345250   239A      1.358334   240A      1.372692  
     241A      1.384497   242A      1.385461   243A      1.413679  
     244A      1.419445   245A      1.437145   246A      1.442766  
     247A      1.447585   248A      1.464223   249A      1.467558  
     250A      1.476577   251A      1.486286   252A      1.489439  
     253A      1.503370   254A      1.512716   255A      1.514216  
     256A      1.518688   257A      1.539615   258A      1.541756  
     259A      1.545810   260A      1.554186   261A      1.554921  
     262A      1.562407   263A      1.565412   264A      1.566604  
     265A      1.577011   266A      1.587829   267A      1.601252  
     268A      1.632202   269A      1.634996   270A      1.643310  
     271A      1.645336   272A      1.661156   273A      1.668250  
     274A      1.669579   275A      1.673130   276A      1.682883  
     277A      1.688467   278A      1.691514   279A      1.695720  
     280A      1.696520   281A      1.719102   282A      1.725548  
     283A      1.739693   284A      1.758022   285A      1.806876  
     286A      1.832655   287A      1.845302   288A      1.851195  
     289A      1.851849   290A      1.855212   291A      1.870347  
     292A      1.887259   293A      1.888097   294A      1.893643  
     295A      1.896706   296A      1.900152   297A      1.948943  
     298A      1.966934   299A      1.984006   300A      2.010072  
     301A      2.013586   302A      2.018822   303A      2.021624  
     304A      2.032407   305A      2.037406   306A      2.056726  
     307A      2.068680   308A      2.087752   309A      2.106951  
     310A      2.107268   311A      2.132459   312A      2.152741  
     313A      2.155037   314A      2.156661   315A      2.162549  
     316A      2.164070   317A      2.174161   318A      2.176697  
     319A      2.200519   320A      2.201320   321A      2.218077  
     322A      2.221765   323A      2.229577   324A      2.232820  
     325A      2.244309   326A      2.252598   327A      2.263682  
     328A      2.292348   329A      2.300709   330A      2.323921  
     331A      2.326128   332A      2.327650   333A      2.332893  
     334A      2.334315   335A      2.337925   336A      2.340433  
     337A      2.346110   338A      2.349844   339A      2.372247  
     340A      2.376519   341A      2.383074   342A      2.397062  
     343A      2.409941   344A      2.443823   345A      2.459771  
     346A      2.468924   347A      2.477214   348A      2.485976  
     349A      2.503762   350A      2.504231   351A      2.516403  
     352A      2.521945   353A      2.528844   354A      2.537980  
     355A      2.546077   356A      2.548220   357A      2.556366  
     358A      2.572644   359A      2.601266   360A      2.615800  
     361A      2.619270   362A      2.629032   363A      2.679353  
     364A      2.714553   365A      2.737931   366A      2.738985  
     367A      2.778829   368A      2.831132   369A      2.832196  
     370A      2.861636   371A      2.877612   372A      2.881059  
     373A      2.881761   374A      2.925829   375A      2.936664  
     376A      3.033745   377A      3.097266   378A      3.127688  
     379A      3.129282   380A      3.132858   381A      3.284075  
     382A      3.284593   383A      3.383942   384A      3.406380  
     385A      3.422070   386A      3.489032   387A      3.490985  
     388A      3.581609   389A      3.591388   390A      3.611936  
     391A      3.626706   392A      3.644991   393A      3.652840  
     394A      3.710881   395A      3.760134   396A      3.785697  
     397A      3.805863   398A      3.816918   399A      3.856219  
     400A      3.860770   401A      3.881080   402A      3.881712  
     403A      3.910867   404A      3.925912   405A      3.939331  
     406A      3.971412   407A      3.986545   408A      3.992623  
     409A      4.004211   410A      4.008369   411A      4.016931  
     412A      4.032505   413A      4.039045   414A      4.052918  
     415A      4.061569   416A      4.064803   417A      4.089300  
     418A      4.091238   419A      4.093056   420A      4.100958  
     421A      4.120217   422A      4.126181   423A      4.131521  
     424A      4.136191   425A      4.163945   426A      4.174312  
     427A      4.176220   428A      4.208413   429A      4.210607  
     430A      4.211124   431A      4.220167   432A      4.236033  
     433A      4.268526   434A      4.281579   435A      4.289003  
     436A      4.290146   437A      4.290892   438A      4.306264  
     439A      4.316342   440A      4.325921   441A      4.335374  
     442A      4.347188   443A      4.355081   444A      4.367715  
     445A      4.384938   446A      4.412304   447A      4.440813  
     448A      4.473165   449A      4.476296   450A      4.490443  
     451A      4.491461   452A      4.503804   453A      4.523455  
     454A      4.556902   455A      4.559498   456A      4.561733  
     457A      4.563280   458A      4.575154   459A      4.577253  
     460A      4.579674   461A      4.580367   462A      4.606938  
     463A      4.619384   464A      4.632174   465A      4.633747  
     466A      4.641535   467A      4.654524   468A      4.690592  
     469A      4.705949   470A      4.707318   471A      4.744668  
     472A      4.770524   473A      4.781185   474A      4.792206  
     475A      4.793304   476A      4.814371   477A      4.823625  
     478A      4.888190   479A      4.901521   480A      4.903299  
     481A      4.934130   482A      4.969682   483A      4.971281  
     484A      4.972552   485A      4.974890   486A      5.004640  
     487A      5.016070   488A      5.045159   489A      5.055713  
     490A      5.058013   491A      5.058768   492A      5.101553  
     493A      5.106356   494A      5.107494   495A      5.114112  
     496A      5.128223   497A      5.137037   498A      5.144449  
     499A      5.157075   500A      5.162757   501A      5.174310  
     502A      5.175085   503A      5.208394   504A      5.209754  
     505A      5.212835   506A      5.215128   507A      5.239025  
     508A      5.258877   509A      5.271144   510A      5.272171  
     511A      5.368143   512A      5.405254   513A      5.413536  
     514A      5.414523   515A      5.448362   516A      5.449103  
     517A      5.483426   518A      5.484744   519A      5.500478  
     520A      5.504911   521A      5.526433   522A      5.551433  
     523A      5.566788   524A      5.578402   525A      5.626096  
     526A      5.627241   527A      5.658146   528A      5.661680  
     529A      5.663065   530A      5.690504   531A      5.724410  
     532A      5.729168   533A      5.733177   534A      5.747066  
     535A      5.767644   536A      5.778668   537A      5.790057  
     538A      5.790717   539A      5.792201   540A      5.793453  
     541A      5.817301   542A      5.877950   543A      5.891411  
     544A      5.928575   545A      5.958940   546A      5.959499  
     547A      5.982625   548A      5.999864   549A      6.003168  
     550A      6.003549   551A      6.117661   552A      6.132329  
     553A      6.133174   554A      6.134359   555A      6.171153  
     556A      6.184546   557A      6.191943   558A      6.192151  
     559A      6.192655   560A      6.210028   561A      6.253936  
     562A      6.322024   563A      6.421552   564A      6.429737  
     565A      6.430290   566A      6.463566   567A      6.520062  
     568A      6.552681   569A      6.579962   570A      6.706734  
     571A      6.708184   572A      6.768254   573A      6.771797  
     574A      6.783786   575A      6.820747   576A      6.885176  
     577A      6.888122   578A      6.983236   579A      7.040436  
     580A      7.059222   581A      7.060734   582A      7.092474  
     583A      7.113837   584A      7.116589   585A      7.152001  
     586A      7.152504   587A      7.394455   588A      7.468915  
     589A      7.470556   590A      7.573072   591A      7.651607  
     592A      7.652284   593A      7.782103   594A      7.811334  
     595A      7.889418   596A      7.999325   597A      8.195232  
     598A      8.195504   599A      8.210026   600A      8.327736  
     601A      8.328147   602A      8.957137   603A      8.958002  
     604A      9.350032   605A      9.357059   606A      9.364525  
     607A     10.045213   608A     10.046860   609A     10.984249  
     610A     11.037206   611A     11.210312   612A     11.324177  
     613A     11.331345   614A     17.022136   615A     18.122480  
     616A     49.669910   617A     49.676363   618A     50.561662  
     619A     55.393841   620A     55.435200   621A     56.621521  

    Final Occupation by Irrep:
              A 
    DOCC [     9 ]

  @DF-RHF Final Energy:   -95.25535511758940

   => Energetics <=

    Nuclear Repulsion Energy =             42.1072637075670215
    One-Electron Energy =                -211.5611897170575446
    Two-Electron Energy =                  74.1985708919011131
    Total Energy =                        -95.2553551175894029

Computation Completed


Properties will be evaluated at   0.000000,   0.000000,   0.000000 [a0]

Properties computed using the SCF density matrix

  Nuclear Dipole Moment: [e a0]
     X:   -14.0565      Y:   -11.4860      Z:   128.9328

  Electronic Dipole Moment: [e a0]
     X:    13.7004      Y:    11.8606      Z:  -129.1853

  Dipole Moment: [e a0]
     X:    -0.3560      Y:     0.3746      Z:    -0.2525     Total:     0.5752

  Dipole Moment: [D]
     X:    -0.9049      Y:     0.9520      Z:    -0.6418     Total:     1.4619


*** tstop() called on node94.bme.utexas.edu at Thu Apr 23 19:02:37 2020
Module time:
	user time   =     100.35 seconds =       1.67 minutes
	system time =       2.08 seconds =       0.03 minutes
	total time  =         14 seconds =       0.23 minutes
Total time:
	user time   =     166.30 seconds =       2.77 minutes
	system time =       3.95 seconds =       0.07 minutes
	total time  =         26 seconds =       0.43 minutes

*** tstart() called on node94.bme.utexas.edu
*** at Thu Apr 23 19:02:37 2020


  //>>>>>>>>>>>>>>>>>>>>>>>>>>>>>>>>>>>//
  //               DFMP2               //
  //<<<<<<<<<<<<<<<<<<<<<<<<<<<<<<<<<<<//

   => Loading Basis Set <=

    Name: (AUG-CC-PVTZ AUX)
    Role: RIFIT
    Keyword: DF_BASIS_MP2
    atoms 1, 3, 5, 7, 9, 11, 16            entry C          line   148 file /home/liuchw/anaconda3/envs/psi4env/share/psi4/basis/aug-cc-pvtz-ri.gbs 
    atoms 2, 4, 6, 8, 10, 12, 14-15, 17-19 entry H          line    30 file /home/liuchw/anaconda3/envs/psi4env/share/psi4/basis/aug-cc-pvtz-ri.gbs 
    atoms 13                               entry N          line   206 file /home/liuchw/anaconda3/envs/psi4env/share/psi4/basis/aug-cc-pvtz-ri.gbs 

	 --------------------------------------------------------
	                          DF-MP2                         
	      2nd-Order Density-Fitted Moller-Plesset Theory     
	              RMP2 Wavefunction,   8 Threads             
	                                                         
	        Rob Parrish, Justin Turney, Andy Simmonett,      
	           Ed Hohenstein, and C. David Sherrill          
	 --------------------------------------------------------

   => Auxiliary Basis Set <=

  Basis Set: (AUG-CC-PVTZ AUX)
    Blend: AUG-CC-PVTZ-RI
    Number of shells: 378
    Number of basis function: 1354
    Number of Cartesian functions: 1693
    Spherical Harmonics?: true
    Max angular momentum: 4

	 --------------------------------------------------------
	                 NBF =   621, NAUX =  1354
	 --------------------------------------------------------
	   CLASS    FOCC     OCC    AOCC    AVIR     VIR    FVIR
	   PAIRS       0       9       9     612     612       0
	 --------------------------------------------------------

	-----------------------------------------------------------
	 ==================> DF-MP2 Energies <==================== 
	-----------------------------------------------------------
	 Reference Energy          =     -95.2553551175894029 [Eh]
	 Singles Energy            =      -0.0000000000000000 [Eh]
	 Same-Spin Energy          =      -0.0954445773173517 [Eh]
	 Opposite-Spin Energy      =      -0.3519167021664548 [Eh]
	 Correlation Energy        =      -0.4473612794838064 [Eh]
	 Total Energy              =     -95.7027163970732033 [Eh]
	-----------------------------------------------------------
	 ================> DF-SCS-MP2 Energies <================== 
	-----------------------------------------------------------
	 SCS Same-Spin Scale       =       0.3333333333333333 [-]
	 SCS Opposite-Spin Scale   =       1.2000000000000000 [-]
	 SCS Same-Spin Energy      =      -0.0318148591057839 [Eh]
	 SCS Opposite-Spin Energy  =      -0.4223000425997457 [Eh]
	 SCS Correlation Energy    =      -0.4541149017055296 [Eh]
	 SCS Total Energy          =     -95.7094700192949261 [Eh]
	-----------------------------------------------------------


*** tstop() called on node94.bme.utexas.edu at Thu Apr 23 19:02:45 2020
Module time:
	user time   =      47.72 seconds =       0.80 minutes
	system time =       1.06 seconds =       0.02 minutes
	total time  =          8 seconds =       0.13 minutes
Total time:
	user time   =     214.03 seconds =       3.57 minutes
	system time =       5.02 seconds =       0.08 minutes
	total time  =         34 seconds =       0.57 minutes

  //>>>>>>>>>>>>>>>>>>>>>>>>>>>>>>>>>>>>//
  // CBS Computation: MP2 / AUG-CC-PVQZ //
  //<<<<<<<<<<<<<<<<<<<<<<<<<<<<<<<<<<<<//


Scratch directory: /scratch/liuchw/

*** tstart() called on node94.bme.utexas.edu
*** at Thu Apr 23 19:02:45 2020

   => Loading Basis Set <=

    Name: AUG-CC-PVQZ
    Role: ORBITAL
    Keyword: BASIS
    atoms 1, 3, 5, 7, 9, 11, 16            entry C          line   303 file /home/liuchw/anaconda3/envs/psi4env/share/psi4/basis/aug-cc-pvqz.gbs 
    atoms 2, 4, 6, 8, 10, 12, 14-15, 17-19 entry H          line    40 file /home/liuchw/anaconda3/envs/psi4env/share/psi4/basis/aug-cc-pvqz.gbs 
    atoms 13                               entry N          line   363 file /home/liuchw/anaconda3/envs/psi4env/share/psi4/basis/aug-cc-pvqz.gbs 


         ---------------------------------------------------------
                                   SCF
               by Justin Turney, Rob Parrish, Andy Simmonett
                          and Daniel G. A. Smith
                              RHF Reference
                        8 Threads,  19073 MiB Core
         ---------------------------------------------------------

  ==> Geometry <==

    Molecular point group: c1
    Full point group: C1

    Geometry (in Angstrom), charge = 0, multiplicity = 1:

       Center              X                  Y                   Z               Mass       
    ------------   -----------------  -----------------  -----------------  -----------------
      Gh(C)           0.908122558888     1.302087495116    -1.603131226336    12.000000000000
      Gh(H)           1.497752558888     2.205747495116    -1.675451226336     1.007825032230
      Gh(C)           1.533992558888     0.056927495116    -1.641071226336    12.000000000000
      Gh(H)           2.608942558888    -0.005682504884    -1.739561226336     1.007825032230
      Gh(C)           0.773822558888    -1.108152504884    -1.546571226336    12.000000000000
      Gh(H)           1.259722558888    -2.073772504884    -1.570351226336     1.007825032230
      Gh(C)          -0.611747441112    -1.027622504884    -1.416291226336    12.000000000000
      Gh(H)          -1.200897441112    -1.931452504884    -1.342631226336     1.007825032230
      Gh(C)          -1.237607441112     0.217467495116    -1.379591226336    12.000000000000
      Gh(H)          -2.312427441112     0.279497495116    -1.278131226336     1.007825032230
      Gh(C)          -0.477657441112     1.382197495116    -1.471741226336    12.000000000000
      Gh(H)          -0.962937441112     2.348207495116    -1.442241226336     1.007825032230
         N            0.319682558888    -0.167342504884     3.674508773664    14.003074004430
         H            0.454302558888    -0.123302504884     2.671438773664     1.007825032230
         H            0.461172558888     0.777807495116     4.006978773664     1.007825032230
         C           -1.056417441112    -0.573722504884     3.951948773664    12.000000000000
         H           -1.214287441112    -0.602272504884     5.028498773664     1.007825032230
         H           -1.827717441112     0.066657495116     3.511828773664     1.007825032230
         H           -1.211107441112    -1.583292504884     3.576318773664     1.007825032230

  Running in c1 symmetry.

  Rotational constants: A =      0.08780  B =      0.02288  C =      0.02255 [cm^-1]
  Rotational constants: A =   2632.28977  B =    686.01564  C =    676.01614 [MHz]
  Nuclear repulsion =   42.107263707567022

  Charge       = 0
  Multiplicity = 1
  Electrons    = 18
  Nalpha       = 9
  Nbeta        = 9

  ==> Algorithm <==

  SCF Algorithm Type is DF.
  DIIS enabled.
  MOM disabled.
  Fractional occupation disabled.
  Guess Type is SAD.
  Energy threshold   = 1.00e-07
  Density threshold  = 1.00e-08
  Integral threshold = 0.00e+00

  ==> Primary Basis <==

  Basis Set: AUG-CC-PVQZ
    Blend: AUG-CC-PVQZ
    Number of shells: 314
    Number of basis function: 1146
    Number of Cartesian functions: 1445
    Spherical Harmonics?: true
    Max angular momentum: 4

   => Loading Basis Set <=

    Name: (AUG-CC-PVQZ AUX)
    Role: JKFIT
    Keyword: DF_BASIS_SCF
    atoms 1, 3, 5, 7, 9, 11, 16            entry C          line   178 file /home/liuchw/anaconda3/envs/psi4env/share/psi4/basis/aug-cc-pvqz-jkfit.gbs 
    atoms 2, 4, 6, 8, 10, 12, 14-15, 17-19 entry H          line    70 file /home/liuchw/anaconda3/envs/psi4env/share/psi4/basis/aug-cc-pvqz-jkfit.gbs 
    atoms 13                               entry N          line   248 file /home/liuchw/anaconda3/envs/psi4env/share/psi4/basis/aug-cc-pvqz-jkfit.gbs 

  ==> Pre-Iterations <==

   -------------------------------------------------------
    Irrep   Nso     Nmo     Nalpha   Nbeta   Ndocc  Nsocc
   -------------------------------------------------------
     A       1146    1146       0       0       0       0
   -------------------------------------------------------
    Total    1146    1146       9       9       9       0
   -------------------------------------------------------

  ==> Integral Setup <==

  ==> DiskDFJK: Density-Fitted J/K Matrices <==

    J tasked:                  Yes
    K tasked:                  Yes
    wK tasked:                  No
    OpenMP threads:              8
    Integrals threads:           8
    Memory [MiB]:            14305
    Algorithm:                Core
    Integral Cache:           NONE
    Schwarz Cutoff:          1E-12
    Fitting Condition:       1E-10

   => Auxiliary Basis Set <=

  Basis Set: (AUG-CC-PVQZ AUX)
    Blend: AUG-CC-PVQZ-JKFIT
    Number of shells: 470
    Number of basis function: 1972
    Number of Cartesian functions: 2695
    Spherical Harmonics?: true
    Max angular momentum: 5

  Minimum eigenvalue in the overlap matrix is 2.5561950663E-07.
  Using Symmetric Orthogonalization.

  SCF Guess: Superposition of Atomic Densities via on-the-fly atomic UHF.

  ==> Iterations <==

                           Total Energy        Delta E     RMS |[F,P]|

   @DF-RHF iter SAD:   -94.63362258393352   -9.46336e+01   0.00000e+00 
   @DF-RHF iter   1:   -95.14416329533711   -5.10541e-01   4.12201e-04 DIIS
   @DF-RHF iter   2:   -95.23249363570508   -8.83303e-02   2.24023e-04 DIIS
   @DF-RHF iter   3:   -95.26003665880990   -2.75430e-02   3.18663e-05 DIIS
   @DF-RHF iter   4:   -95.26124362200314   -1.20696e-03   9.25304e-06 DIIS
   @DF-RHF iter   5:   -95.26132390589552   -8.02839e-05   2.29427e-06 DIIS
   @DF-RHF iter   6:   -95.26133017549574   -6.26960e-06   4.70889e-07 DIIS
   @DF-RHF iter   7:   -95.26133060305318   -4.27557e-07   1.06480e-07 DIIS
   @DF-RHF iter   8:   -95.26133062710558   -2.40524e-08   2.58511e-08 DIIS
   @DF-RHF iter   9:   -95.26133062877496   -1.66938e-09   6.10852e-09 DIIS
  Energy and wave function converged.


  ==> Post-Iterations <==

    Orbital Energies [Eh]
    ---------------------

    Doubly Occupied:                                                      

       1A    -15.538745     2A    -11.239379     3A     -1.171915  
       4A     -0.895736     5A     -0.662179     6A     -0.604940  
       7A     -0.555546     8A     -0.516365     9A     -0.394758  

    Virtual:                                                              

      10A      0.014821    11A      0.026413    12A      0.026837  
      13A      0.032814    14A      0.041831    15A      0.042013  
      16A      0.045240    17A      0.049524    18A      0.052050  
      19A      0.059103    20A      0.060959    21A      0.075188  
      22A      0.080875    23A      0.081979    24A      0.084366  
      25A      0.087201    26A      0.091407    27A      0.098140  
      28A      0.107607    29A      0.108408    30A      0.108626  
      31A      0.111479    32A      0.116871    33A      0.122197  
      34A      0.124424    35A      0.128973    36A      0.129514  
      37A      0.134848    38A      0.135469    39A      0.137917  
      40A      0.138377    41A      0.141741    42A      0.146115  
      43A      0.147699    44A      0.162426    45A      0.167125  
      46A      0.169223    47A      0.171447    48A      0.187804  
      49A      0.195138    50A      0.197905    51A      0.203098  
      52A      0.204388    53A      0.209488    54A      0.214487  
      55A      0.218730    56A      0.223590    57A      0.226643  
      58A      0.233571    59A      0.237479    60A      0.243675  
      61A      0.248383    62A      0.252871    63A      0.256407  
      64A      0.261863    65A      0.267917    66A      0.270087  
      67A      0.272989    68A      0.276141    69A      0.276499  
      70A      0.281161    71A      0.283884    72A      0.287505  
      73A      0.290218    74A      0.295324    75A      0.301337  
      76A      0.307158    77A      0.309113    78A      0.313236  
      79A      0.317822    80A      0.320931    81A      0.324321  
      82A      0.327324    83A      0.330240    84A      0.332197  
      85A      0.334477    86A      0.339738    87A      0.346932  
      88A      0.349178    89A      0.350605    90A      0.351350  
      91A      0.356811    92A      0.360244    93A      0.363513  
      94A      0.367514    95A      0.369521    96A      0.372259  
      97A      0.377611    98A      0.383771    99A      0.389691  
     100A      0.393170   101A      0.394746   102A      0.399692  
     103A      0.402552   104A      0.408317   105A      0.412239  
     106A      0.419004   107A      0.426621   108A      0.430467  
     109A      0.432176   110A      0.437593   111A      0.438467  
     112A      0.446357   113A      0.451301   114A      0.452790  
     115A      0.456708   116A      0.463104   117A      0.472582  
     118A      0.474830   119A      0.475541   120A      0.477633  
     121A      0.484266   122A      0.486074   123A      0.489994  
     124A      0.493160   125A      0.499876   126A      0.504466  
     127A      0.510333   128A      0.511453   129A      0.519746  
     130A      0.527216   131A      0.534065   132A      0.537756  
     133A      0.540948   134A      0.543157   135A      0.546285  
     136A      0.547158   137A      0.559416   138A      0.563139  
     139A      0.568059   140A      0.570414   141A      0.572124  
     142A      0.574999   143A      0.578162   144A      0.581161  
     145A      0.585121   146A      0.586693   147A      0.589329  
     148A      0.595173   149A      0.597917   150A      0.611788  
     151A      0.620856   152A      0.623791   153A      0.634536  
     154A      0.635317   155A      0.641717   156A      0.648873  
[...]
     685A      4.309985   686A      4.314880   687A      4.323013  
     688A      4.358255   689A      4.378052   690A      4.379258  
     691A      4.379481   692A      4.383024   693A      4.391539  
     694A      4.397537   695A      4.406044   696A      4.409546  
     697A      4.426198   698A      4.428369   699A      4.447073  
     700A      4.448639   701A      4.473173   702A      4.486085  
     703A      4.498153   704A      4.503934   705A      4.517729  
     706A      4.521264   707A      4.528362   708A      4.532295  
     709A      4.535616   710A      4.558202   711A      4.577759  
     712A      4.581976   713A      4.583988   714A      4.586630  
     715A      4.600448   716A      4.633507   717A      4.643959  
     718A      4.651612   719A      4.652409   720A      4.655509  
     721A      4.661520   722A      4.667757   723A      4.705423  
     724A      4.801944   725A      4.812807   726A      4.823416  
     727A      4.838598   728A      4.856738   729A      4.868597  
     730A      4.869615   731A      4.881841   732A      4.904852  
     733A      4.940867   734A      4.942391   735A      4.944320  
     736A      4.947168   737A      4.980585   738A      4.985370  
     739A      4.992781   740A      5.001631   741A      5.013531  
     742A      5.023071   743A      5.051691   744A      5.096685  
     745A      5.097382   746A      5.106138   747A      5.107635  
     748A      5.110755   749A      5.120328   750A      5.144655  
     751A      5.180224   752A      5.249369   753A      5.331511  
     754A      5.382175   755A      5.392246   756A      5.394192  
     757A      5.398848   758A      5.425827   759A      5.427379  
     760A      5.430084   761A      5.462185   762A      5.606309  
     763A      5.607068   764A      5.630292   765A      5.666613  
     766A      5.668342   767A      5.697834   768A      5.718455  
     769A      5.725031   770A      5.741767   771A      5.786724  
     772A      5.824552   773A      5.857323   774A      5.860560  
     775A      5.931441   776A      5.959668   777A      5.998466  
     778A      6.008297   779A      6.065532   780A      6.066099  
     781A      6.079645   782A      6.119132   783A      6.120900  
     784A      6.136855   785A      6.141469   786A      6.202738  
     787A      6.253150   788A      6.262319   789A      6.262747  
     790A      6.283545   791A      6.293898   792A      6.298737  
     793A      6.306797   794A      6.310526   795A      6.315870  
     796A      6.368402   797A      6.371314   798A      6.391529  
     799A      6.392933   800A      6.396885   801A      6.400863  
     802A      6.402529   803A      6.447786   804A      6.448023  
     805A      6.468795   806A      6.480297   807A      6.496434  
     808A      6.499326   809A      6.525217   810A      6.554718  
     811A      6.590270   812A      6.609408   813A      6.610332  
     814A      6.654574   815A      6.668045   816A      6.670026  
     817A      6.671633   818A      6.690858   819A      6.693047  
     820A      6.702055   821A      6.723809   822A      6.745673  
     823A      6.750563   824A      6.757656   825A      6.773907  
     826A      6.800722   827A      6.803060   828A      6.807842  
     829A      6.812002   830A      6.827214   831A      6.845548  
     832A      6.853090   833A      6.854426   834A      6.897583  
     835A      6.904004   836A      6.911560   837A      6.928367  
     838A      6.929674   839A      6.948462   840A      6.952469  
     841A      6.954120   842A      6.955220   843A      6.964087  
     844A      6.971892   845A      6.972262   846A      6.976187  
     847A      6.992044   848A      7.003161   849A      7.009122  
     850A      7.019981   851A      7.020599   852A      7.023832  
     853A      7.030200   854A      7.092578   855A      7.105773  
     856A      7.106502   857A      7.109138   858A      7.112970  
     859A      7.113802   860A      7.129175   861A      7.145818  
     862A      7.146686   863A      7.167726   864A      7.186528  
     865A      7.190266   866A      7.192007   867A      7.207751  
     868A      7.208966   869A      7.227424   870A      7.235869  
     871A      7.252584   872A      7.253733   873A      7.268099  
     874A      7.269096   875A      7.276384   876A      7.306035  
     877A      7.306491   878A      7.353092   879A      7.383661  
     880A      7.384860   881A      7.395002   882A      7.405495  
     883A      7.406069   884A      7.410589   885A      7.416523  
     886A      7.417018   887A      7.434220   888A      7.454842  
     889A      7.479935   890A      7.489493   891A      7.523685  
     892A      7.525791   893A      7.557592   894A      7.570944  
     895A      7.573185   896A      7.584245   897A      7.584689  
     898A      7.609736   899A      7.625217   900A      7.629825  
     901A      7.663619   902A      7.665056   903A      7.704628  
     904A      7.707476   905A      7.711430   906A      7.728801  
     907A      7.740597   908A      7.743386   909A      7.745141  
     910A      7.756579   911A      7.781547   912A      7.783505  
     913A      7.794059   914A      7.833640   915A      7.837946  
     916A      7.841688   917A      7.853206   918A      7.870284  
     919A      7.884576   920A      7.906598   921A      7.944071  
     922A      7.946308   923A      7.946989   924A      7.964835  
     925A      7.969570   926A      7.970691   927A      7.991818  
     928A      8.015712   929A      8.016732   930A      8.027649  
     931A      8.031940   932A      8.036667   933A      8.058352  
     934A      8.059105   935A      8.090839   936A      8.099970  
     937A      8.116695   938A      8.166748   939A      8.179872  
     940A      8.181942   941A      8.242729   942A      8.266884  
     943A      8.267252   944A      8.296258   945A      8.304160  
     946A      8.306804   947A      8.309508   948A      8.326816  
     949A      8.353558   950A      8.367474   951A      8.367910  
     952A      8.405167   953A      8.415053   954A      8.453992  
     955A      8.454544   956A      8.458848   957A      8.460722  
     958A      8.476387   959A      8.520107   960A      8.545162  
     961A      8.547015   962A      8.582713   963A      8.622082  
     964A      8.665090   965A      8.666051   966A      8.676993  
     967A      8.678360   968A      8.682787   969A      8.700921  
     970A      8.715431   971A      8.719147   972A      8.721695  
     973A      8.723288   974A      8.728905   975A      8.747994  
     976A      8.757127   977A      8.775883   978A      8.777802  
     979A      8.779914   980A      8.797147   981A      8.840656  
     982A      8.842928   983A      8.864381   984A      8.865169  
     985A      8.938190   986A      8.938837   987A      8.941313  
     988A      8.941529   989A      8.963183   990A      8.988947  
     991A      8.992561   992A      9.018912   993A      9.020058  
     994A      9.049193   995A      9.060393   996A      9.066421  
     997A      9.079525   998A      9.081353   999A      9.082949  
    1000A      9.122330  1001A      9.132446  1002A      9.134168  
    1003A      9.155373  1004A      9.171431  1005A      9.218563  
    1006A      9.266767  1007A      9.293931  1008A      9.296943  
    1009A      9.306119  1010A      9.319874  1011A      9.330592  
    1012A      9.333929  1013A      9.387869  1014A      9.400803  
    1015A      9.422684  1016A      9.427182  1017A      9.435904  
    1018A      9.447648  1019A      9.459143  1020A      9.459909  
    1021A      9.475735  1022A      9.486875  1023A      9.511931  
    1024A      9.513473  1025A      9.547000  1026A      9.548030  
    1027A      9.592255  1028A      9.597378  1029A      9.601842  
    1030A      9.613171  1031A      9.616261  1032A      9.629205  
    1033A      9.631212  1034A      9.637405  1035A      9.656693  
    1036A      9.675490  1037A      9.720223  1038A      9.723140  
    1039A      9.735454  1040A      9.759316  1041A      9.830669  
    1042A      9.834206  1043A      9.855071  1044A      9.883925  
    1045A      9.886284  1046A      9.887839  1047A      9.890356  
    1048A      9.894750  1049A      9.973786  1050A     10.013901  
    1051A     10.038026  1052A     10.040728  1053A     10.048765  
    1054A     10.051327  1055A     10.098307  1056A     10.110799  
    1057A     10.118520  1058A     10.128947  1059A     10.129220  
    1060A     10.153661  1061A     10.162127  1062A     10.200946  
    1063A     10.235942  1064A     10.245989  1065A     10.250308  
    1066A     10.263710  1067A     10.264292  1068A     10.323914  
    1069A     10.329975  1070A     10.330937  1071A     10.332998  
    1072A     10.375425  1073A     10.399025  1074A     10.401010  
    1075A     10.483636  1076A     10.484145  1077A     10.487169  
    1078A     10.498912  1079A     10.548424  1080A     10.571883  
    1081A     10.573173  1082A     10.601300  1083A     10.605614  
    1084A     10.640095  1085A     10.707762  1086A     10.725343  
    1087A     10.725951  1088A     10.777848  1089A     10.780096  
    1090A     10.817339  1091A     10.820638  1092A     10.824915  
    1093A     10.825448  1094A     10.832367  1095A     10.852774  
    1096A     10.912907  1097A     10.936441  1098A     10.941943  
    1099A     11.004424  1100A     11.062369  1101A     11.067005  
    1102A     11.088940  1103A     11.120696  1104A     11.120966  
    1105A     11.206178  1106A     11.272611  1107A     11.336431  
    1108A     11.371073  1109A     11.463923  1110A     11.491968  
    1111A     11.493372  1112A     11.519976  1113A     11.522910  
    1114A     11.577046  1115A     11.601129  1116A     11.708752  
    1117A     11.713414  1118A     11.761163  1119A     11.764946  
    1120A     11.792455  1121A     12.216118  1122A     12.360030  
    1123A     12.419196  1124A     12.507776  1125A     12.642615  
    1126A     12.684875  1127A     13.133871  1128A     13.245091  
    1129A     13.274016  1130A     13.340754  1131A     13.341514  
    1132A     13.381556  1133A     13.475873  1134A     13.478162  
    1135A     13.662217  1136A     13.726537  1137A     15.039470  
    1138A     15.246227  1139A     26.201259  1140A     26.201840  
    1141A     26.692358  1142A     26.791835  1143A     27.216935  
    1144A     27.220357  1145A     29.122683  1146A     36.363329  

    Final Occupation by Irrep:
              A 
    DOCC [    30 ]

  @DF-RHF Final Energy:  -326.05636487035525

   => Energetics <=

    Nuclear Repulsion Energy =            317.2721374128950629
    One-Electron Energy =               -1068.3568744985966532
    Two-Electron Energy =                 425.0283722153463373
    Total Energy =                       -326.0563648703552531

Computation Completed


Properties will be evaluated at   0.000000,   0.000000,   0.000000 [a0]

Properties computed using the SCF density matrix

  Nuclear Dipole Moment: [e a0]
     X:    -2.2954      Y:    -0.6012      Z:     9.1266

  Electronic Dipole Moment: [e a0]
     X:     1.9601      Y:     0.9680      Z:    -9.4348

  Dipole Moment: [e a0]
     X:    -0.3353      Y:     0.3667      Z:    -0.3082     Total:     0.5847

  Dipole Moment: [D]
     X:    -0.8523      Y:     0.9321      Z:    -0.7834     Total:     1.4863


*** tstop() called on node94.bme.utexas.edu at Thu Apr 23 19:13:10 2020
Module time:
	user time   =    1071.79 seconds =      17.86 minutes
	system time =      12.88 seconds =       0.21 minutes
	total time  =        150 seconds =       2.50 minutes
Total time:
	user time   =    4355.67 seconds =      72.59 minutes
	system time =      78.29 seconds =       1.30 minutes
	total time  =        659 seconds =      10.98 minutes

*** tstart() called on node94.bme.utexas.edu
*** at Thu Apr 23 19:13:10 2020


  //>>>>>>>>>>>>>>>>>>>>>>>>>>>>>>>>>>>//
  //               DFMP2               //
  //<<<<<<<<<<<<<<<<<<<<<<<<<<<<<<<<<<<//

   => Loading Basis Set <=

    Name: (AUG-CC-PVQZ AUX)
    Role: RIFIT
    Keyword: DF_BASIS_MP2
    atoms 1, 3, 5, 7, 9, 11, 16            entry C          line   184 file /home/liuchw/anaconda3/envs/psi4env/share/psi4/basis/aug-cc-pvqz-ri.gbs 
    atoms 2, 4, 6, 8, 10, 12, 14-15, 17-19 entry H          line    30 file /home/liuchw/anaconda3/envs/psi4env/share/psi4/basis/aug-cc-pvqz-ri.gbs 
    atoms 13                               entry N          line   258 file /home/liuchw/anaconda3/envs/psi4env/share/psi4/basis/aug-cc-pvqz-ri.gbs 

	 --------------------------------------------------------
	                          DF-MP2                         
	      2nd-Order Density-Fitted Moller-Plesset Theory     
	              RMP2 Wavefunction,   8 Threads             
	                                                         
	        Rob Parrish, Justin Turney, Andy Simmonett,      
	           Ed Hohenstein, and C. David Sherrill          
	 --------------------------------------------------------

   => Auxiliary Basis Set <=

  Basis Set: (AUG-CC-PVQZ AUX)
    Blend: AUG-CC-PVQZ-RI
    Number of shells: 508
    Number of basis function: 2224
    Number of Cartesian functions: 3051
    Spherical Harmonics?: true
    Max angular momentum: 5

	 --------------------------------------------------------
	                 NBF =  1146, NAUX =  2224
	 --------------------------------------------------------
	   CLASS    FOCC     OCC    AOCC    AVIR     VIR    FVIR
	   PAIRS       0      30      30    1116    1116       0
	 --------------------------------------------------------

	-----------------------------------------------------------
	 ==================> DF-MP2 Energies <==================== 
	-----------------------------------------------------------
	 Reference Energy          =    -326.0563648703552531 [Eh]
	 Singles Energy            =      -0.0000000000000000 [Eh]
	 Same-Spin Energy          =      -0.3714712470976377 [Eh]
	 Opposite-Spin Energy      =      -1.3111869002282528 [Eh]
	 Correlation Energy        =      -1.6826581473258906 [Eh]
	 Total Energy              =    -327.7390230176811201 [Eh]
	-----------------------------------------------------------
	 ================> DF-SCS-MP2 Energies <================== 
	-----------------------------------------------------------
	 SCS Same-Spin Scale       =       0.3333333333333333 [-]
	 SCS Opposite-Spin Scale   =       1.2000000000000000 [-]
	 SCS Same-Spin Energy      =      -0.1238237490325459 [Eh]
	 SCS Opposite-Spin Energy  =      -1.5734242802739034 [Eh]
	 SCS Correlation Energy    =      -1.6972480293064494 [Eh]
	 SCS Total Energy          =    -327.7536128996616753 [Eh]
	-----------------------------------------------------------


*** tstop() called on node94.bme.utexas.edu at Thu Apr 23 19:14:14 2020
Module time:
	user time   =     341.60 seconds =       5.69 minutes
	system time =      13.54 seconds =       0.23 minutes
	total time  =         64 seconds =       1.07 minutes
Total time:
	user time   =    4697.27 seconds =      78.29 minutes
	system time =      91.83 seconds =       1.53 minutes
	total time  =        723 seconds =      12.05 minutes

  //>>>>>>>>>>>>>>>>>>>>>>>>>>>>>>>>>>>//
  //  CBS Results: mp2/aug-cc-pv[tq]z  //
  //<<<<<<<<<<<<<<<<<<<<<<<<<<<<<<<<<<<//


   ==> HF <==

   HI-zeta (4) Energy:               -326.056364870355


   ==> Helgaker 2-point correlated extrapolation for method: MP2 <==

   LO-zeta (3) Energy:               -327.559331007106
   HI-zeta (4) Energy:               -327.739023017681
   Alpha (exponent) Value:             3.000000000000
   Extrapolated Energy:              -327.870149619993

   @Extrapolated MP2/(T,Q):          -327.870149619993



   ==> Helgaker 2-point correlated extrapolation for method: HF <==

   LO-zeta (3) Energy:               -326.037249978642
   HI-zeta (4) Energy:               -326.056364870355
   Alpha (exponent) Value:             3.000000000000
   Extrapolated Energy:              -326.070313575119

   @Extrapolated HF/(T,Q):           -326.070313575119


   ==> Components <==

  ---------------------------------------------------------------------------------------------------------
                          Method / Basis                      Rqd      Energy [Eh]   Variable
  ---------------------------------------------------------------------------------------------------------
                              hf / aug-cc-pvtz                  *    -326.03724998   HF TOTAL ENERGY
                             mp2 / aug-cc-pvtz                  *    -327.55933101   MP2 TOTAL ENERGY
                              hf / aug-cc-pvqz                  *    -326.05636487   HF TOTAL ENERGY
                             mp2 / aug-cc-pvqz                  *    -327.73902302   MP2 TOTAL ENERGY
  ---------------------------------------------------------------------------------------------------------

   ==> Stages <==

  ---------------------------------------------------------------------------------------------------------
      Stage               Method / Basis                       Wt      Energy [Eh]   Scheme
  ---------------------------------------------------------------------------------------------------------
        scf                   hf / aug-cc-pvqz                  1    -326.05636487   xtpl_highest_1
       corl                  mp2 / aug-cc-pv[tq]z               1    -327.87014962   corl_xtpl_helgaker_2
       corl                   hf / aug-cc-pv[tq]z              -1    -326.07031358   corl_xtpl_helgaker_2
  ---------------------------------------------------------------------------------------------------------

   ==> CBS <==

  ---------------------------------------------------------------------------------------------------------
      Stage               Method / Basis                               Energy [Eh]   Scheme
  ---------------------------------------------------------------------------------------------------------
        scf                   hf / aug-cc-pvqz                       -326.05636487   xtpl_highest_1
       corl                  mp2 / aug-cc-pv[tq]z                      -1.79983604   corl_xtpl_helgaker_2
      total                  CBS                                     -327.85620092   
  ---------------------------------------------------------------------------------------------------------
   => Loading Basis Set <=

    Name: DEF2-SVP
    Role: ORBITAL
    Keyword: BASIS
    atoms 1, 3, 5, 7, 9, 11, 16            entry C          line    90 file /home/liuchw/anaconda3/envs/psi4env/share/psi4/basis/def2-svp.gbs 
    atoms 2, 4, 6, 8, 10, 12, 14-15, 17-19 entry H          line    15 file /home/liuchw/anaconda3/envs/psi4env/share/psi4/basis/def2-svp.gbs 
    atoms 13                               entry N          line   110 file /home/liuchw/anaconda3/envs/psi4env/share/psi4/basis/def2-svp.gbs 


       N-Body: Complex Energy (fragments = (1, 2), basis = (1, 2):  -327.85620091522907)

   ==> N-Body: Counterpoise Corrected (CP) energies <==

   n-Body     Total Energy [Eh]       I.E. [kcal/mol]      Delta [kcal/mol]
        1     -327.854994857681        0.000000000000        0.000000000000
        2     -327.856287748461       -0.811301212836       -0.811301212836

   => Loading Basis Set <=

    Name: DEF2-SVP
    Role: ORBITAL
    Keyword: BASIS
    atoms 1, 3, 5, 7, 9, 11, 16            entry C          line    90 file /home/liuchw/anaconda3/envs/psi4env/share/psi4/basis/def2-svp.gbs 
    atoms 2, 4, 6, 8, 10, 12, 14-15, 17-19 entry H          line    15 file /home/liuchw/anaconda3/envs/psi4env/share/psi4/basis/def2-svp.gbs 
    atoms 13                               entry N          line   110 file /home/liuchw/anaconda3/envs/psi4env/share/psi4/basis/def2-svp.gbs 


    Psi4 stopped on: Thursday, 23 April 2020 07:14PM
    Psi4 wall time for execution: 0:12:04.21

*** Psi4 exiting successfully. Buy a developer a beer!
