
    -----------------------------------------------------------------------
          Psi4: An Open-Source Ab Initio Electronic Structure Package
                               Psi4 1.4a2.dev224 

                         Git: Rev {master} e453b16 


    R. M. Parrish, L. A. Burns, D. G. A. Smith, A. C. Simmonett,
    A. E. DePrince III, E. G. Hohenstein, U. Bozkaya, A. Yu. Sokolov,
    R. Di Remigio, R. M. Richard, J. F. Gonthier, A. M. James,
    H. R. McAlexander, A. Kumar, M. Saitow, X. Wang, B. P. Pritchard,
    P. Verma, H. F. Schaefer III, K. Patkowski, R. A. King, E. F. Valeev,
    F. A. Evangelista, J. M. Turney, T. D. Crawford, and C. D. Sherrill,
    J. Chem. Theory Comput. 13(7) pp 3185--3197 (2017).
    (doi: 10.1021/acs.jctc.7b00174)


                         Additional Contributions by
    P. Kraus, H. Kruse, M. H. Lechner, M. C. Schieber, R. A. Shaw,
    A. Alenaizan, R. Galvelis, Z. L. Glick, S. Lehtola, and J. P. Misiewicz

    -----------------------------------------------------------------------


    Psi4 started on: Saturday, 11 April 2020 06:41PM

    Process ID: 49526
    Host:       node43.bme.utexas.edu
    PSIDATADIR: /home/liuchw/anaconda3/envs/psi4env/share/psi4
    Memory:     500.0 MiB
    Threads:    8
    
  ==> Input File <==

--------------------------------------------------------------------------
#Generated by lconvert.py for cbs job

memory 40 GB

molecule  {
0 1
  N       -0.9412110     0.7900410     0.0117190
  C       -0.9227550    -0.5523780     0.0353790
  H        0.0572410    -1.0155880     0.0513550
  C       -2.0765190    -1.3330180     0.0392900
  H       -1.9965290    -2.4105860     0.0588770
  C       -3.3163130    -0.7033400     0.0175990
  H       -4.2315750    -1.2790840     0.0197940
  C       -3.3488950     0.6870190    -0.0070860
  H       -4.2854440     1.2261050    -0.0246590
  C       -2.1431040     1.3826340    -0.0088900
  H       -2.1381000     2.4656530    -0.0277830
--
0 1
  N        1.7274010    -0.9713650     0.0453980
  C        2.9291800    -1.5645420     0.0474780
  H        2.9239560    -2.6475040     0.0693670
  C        4.1351160    -0.8695830     0.0234770
  H        5.0715540    -1.4091180     0.0265710
  C        4.1027980     0.5207210    -0.0042700
  H        5.0181730     1.0959720    -0.0234520
  C        2.8631180     1.1510080    -0.0067470
  H        2.7833450     2.2285660    -0.0278360
  C        1.7092040     0.3709980     0.0184460
  H        0.7292940     0.8346600     0.0167840
units angstrom
no_reorient
symmetry c1
}

set {
scf_type DF
mp2_type DF
e_convergence 7
reference rhf
}

energy('mp2/aug-cc-pv[tq]z', bsse_type='cp')
--------------------------------------------------------------------------

  Memory set to  37.253 GiB by Python driver.

Scratch directory: /scratch//


   ===> N-Body Interaction Abacus <===
        BSSE Treatment:                     cp
        Number of 1-body computations:     4
        Number of 2-body computations:     1

   ==> N-Body: Now computing 1-body complexes <==


       N-Body: Computing complex (1/4) with fragments (2,) in the basis of fragments (2,).


Scratch directory: /scratch//

  //>>>>>>>>>>>>>>>>>>>>>>>>>>>>>>>>>>>//
  //   CBS Setup: mp2/aug-cc-pv[tq]z   //
  //<<<<<<<<<<<<<<<<<<<<<<<<<<<<<<<<<<<//

    Naive listing of computations required.
             hf / aug-cc-pvqz              for  HF TOTAL ENERGY
            mp2 / aug-cc-pvtz              for  MP2 TOTAL ENERGY
            mp2 / aug-cc-pvqz              for  MP2 TOTAL ENERGY
             hf / aug-cc-pvtz              for  HF TOTAL ENERGY
             hf / aug-cc-pvqz              for  HF TOTAL ENERGY

    Enlightened listing of computations required.
            mp2 / aug-cc-pvtz              for  MP2 TOTAL ENERGY
            mp2 / aug-cc-pvqz              for  MP2 TOTAL ENERGY

    Full listing of computations to be obtained (required and bonus).
             hf / aug-cc-pvtz              for  HF TOTAL ENERGY
            mp2 / aug-cc-pvtz              for  MP2 TOTAL ENERGY
             hf / aug-cc-pvqz              for  HF TOTAL ENERGY
            mp2 / aug-cc-pvqz              for  MP2 TOTAL ENERGY

  //>>>>>>>>>>>>>>>>>>>>>>>>>>>>>>>>>>>>//
  // CBS Computation: MP2 / AUG-CC-PVTZ //
  //<<<<<<<<<<<<<<<<<<<<<<<<<<<<<<<<<<<<//


Scratch directory: /scratch//

*** tstart() called on node43.bme.utexas.edu
*** at Sat Apr 11 18:41:41 2020

   => Loading Basis Set <=

    Name: AUG-CC-PVTZ
    Role: ORBITAL
    Keyword: BASIS
    atoms 1              entry N          line   285 file /home/liuchw/anaconda3/envs/psi4env/share/psi4/basis/aug-cc-pvtz.gbs 
    atoms 2, 4, 6, 8, 10 entry C          line   239 file /home/liuchw/anaconda3/envs/psi4env/share/psi4/basis/aug-cc-pvtz.gbs 
    atoms 3, 5, 7, 9, 11 entry H          line    40 file /home/liuchw/anaconda3/envs/psi4env/share/psi4/basis/aug-cc-pvtz.gbs 


         ---------------------------------------------------------
                                   SCF
               by Justin Turney, Rob Parrish, Andy Simmonett
                          and Daniel G. A. Smith
                              RHF Reference
                        8 Threads,  38146 MiB Core
         ---------------------------------------------------------

  ==> Geometry <==

    Molecular point group: c1
    Full point group: C1

    Geometry (in Angstrom), charge = 0, multiplicity = 1:

       Center              X                  Y                   Z               Mass       
    ------------   -----------------  -----------------  -----------------  -----------------
         N            1.334233048138    -0.880382477042     0.027711046526    14.003074004430
         C            2.536012048138    -1.473559477042     0.029791046526    12.000000000000
         H            2.530788048138    -2.556521477042     0.051680046526     1.007825032230
         C            3.741948048138    -0.778600477042     0.005790046526    12.000000000000
         H            4.678386048138    -1.318135477042     0.008884046526     1.007825032230
         C            3.709630048138     0.611703522958    -0.021956953474    12.000000000000
         H            4.625005048138     1.186954522958    -0.041138953474     1.007825032230
         C            2.469950048138     1.241990522958    -0.024433953474    12.000000000000
         H            2.390177048138     2.319548522958    -0.045522953474     1.007825032230
         C            1.316036048138     0.461980522958     0.000759046526    12.000000000000
         H            0.336126048138     0.925642522958    -0.000902953474     1.007825032230

  Running in c1 symmetry.

  Rotational constants: A =      0.19960  B =      0.02874  C =      0.02512 [cm^-1]
  Rotational constants: A =   5983.72748  B =    861.57073  C =    753.14209 [MHz]
  Nuclear repulsion =  206.168599156442610

  Charge       = 0
  Multiplicity = 1
  Electrons    = 42
  Nalpha       = 21
  Nbeta        = 21

  ==> Algorithm <==

  SCF Algorithm Type is DF.
  DIIS enabled.
  MOM disabled.
  Fractional occupation disabled.
  Guess Type is SAD.
  Energy threshold   = 1.00e-07
  Density threshold  = 1.00e-08
  Integral threshold = 0.00e+00

  ==> Primary Basis <==

  Basis Set: AUG-CC-PVTZ
    Blend: AUG-CC-PVTZ
    Number of shells: 129
    Number of basis function: 391
    Number of Cartesian functions: 455
    Spherical Harmonics?: true
    Max angular momentum: 3

   => Loading Basis Set <=

    Name: (AUG-CC-PVTZ AUX)
    Role: JKFIT
    Keyword: DF_BASIS_SCF
    atoms 1              entry N          line   224 file /home/liuchw/anaconda3/envs/psi4env/share/psi4/basis/aug-cc-pvtz-jkfit.gbs 
    atoms 2, 4, 6, 8, 10 entry C          line   162 file /home/liuchw/anaconda3/envs/psi4env/share/psi4/basis/aug-cc-pvtz-jkfit.gbs 
    atoms 3, 5, 7, 9, 11 entry H          line    70 file /home/liuchw/anaconda3/envs/psi4env/share/psi4/basis/aug-cc-pvtz-jkfit.gbs 

  ==> Pre-Iterations <==

   -------------------------------------------------------
    Irrep   Nso     Nmo     Nalpha   Nbeta   Ndocc  Nsocc
   -------------------------------------------------------
     A        391     391       0       0       0       0
   -------------------------------------------------------
    Total     391     391      21      21      21       0
   -------------------------------------------------------

  ==> Integral Setup <==

  DFHelper Memory: AOs need 1.009 GiB; user supplied 27.940 GiB. Using in-core AOs.

  ==> MemDFJK: Density-Fitted J/K Matrices <==

    J tasked:                   Yes
    K tasked:                   Yes
    wK tasked:                   No
    OpenMP threads:               8
    Memory [MiB]:             28610
    Algorithm:                 Core
    Schwarz Cutoff:           1E-12
    Mask sparsity (%):       0.9131
    Fitting Condition:        1E-10

   => Auxiliary Basis Set <=

  Basis Set: (AUG-CC-PVTZ AUX)
    Blend: AUG-CC-PVTZ-JKFIT
    Number of shells: 250
    Number of basis function: 854
    Number of Cartesian functions: 1061
    Spherical Harmonics?: true
    Max angular momentum: 4

  Minimum eigenvalue in the overlap matrix is 2.3317005851E-06.
  Using Symmetric Orthogonalization.

  SCF Guess: Superposition of Atomic Densities via on-the-fly atomic UHF.

  ==> Iterations <==

                           Total Energy        Delta E     RMS |[F,P]|

   @DF-RHF iter SAD:  -246.15178701618007   -2.46152e+02   0.00000e+00 
   @DF-RHF iter   1:  -246.63299547420695   -4.81208e-01   1.26123e-03 DIIS
   @DF-RHF iter   2:  -246.75301573210101   -1.20020e-01   5.78972e-04 DIIS
   @DF-RHF iter   3:  -246.77705003837019   -2.40343e-02   1.11846e-04 DIIS
   @DF-RHF iter   4:  -246.77843237591011   -1.38234e-03   3.26355e-05 DIIS
   @DF-RHF iter   5:  -246.77851192793085   -7.95520e-05   1.07059e-05 DIIS
   @DF-RHF iter   6:  -246.77852241068081   -1.04827e-05   2.45949e-06 DIIS
   @DF-RHF iter   7:  -246.77852317039338   -7.59713e-07   8.67168e-07 DIIS
   @DF-RHF iter   8:  -246.77852326858886   -9.81955e-08   3.68265e-07 DIIS
   @DF-RHF iter   9:  -246.77852329856154   -2.99727e-08   1.07556e-07 DIIS
   @DF-RHF iter  10:  -246.77852330247151   -3.90997e-09   3.99184e-08 DIIS
   @DF-RHF iter  11:  -246.77852330319070   -7.19183e-10   2.40094e-08 DIIS
   @DF-RHF iter  12:  -246.77852330337873   -1.88038e-10   7.61201e-09 DIIS
  Energy and wave function converged.


  ==> Post-Iterations <==

    Orbital Energies [Eh]
    ---------------------

    Doubly Occupied:                                                      

       1A    -15.567495     2A    -11.276119     3A    -11.275347  
       4A    -11.260668     5A    -11.242682     6A    -11.242610  
       7A     -1.256100     8A     -1.089996     9A     -1.034109  
      10A     -0.859821    11A     -0.855964    12A     -0.722202  
      13A     -0.660700    14A     -0.654678    15A     -0.598939  
      16A     -0.577617    17A     -0.541117    18A     -0.520652  
      19A     -0.419378    20A     -0.384032    21A     -0.348241  

    Virtual:                                                              

      22A      0.026133    23A      0.033276    24A      0.037751  
      25A      0.048793    26A      0.053333    27A      0.077857  
      28A      0.090958    29A      0.100291    30A      0.101999  
      31A      0.104035    32A      0.108711    33A      0.109274  
      34A      0.110362    35A      0.116596    36A      0.118724  
      37A      0.129016    38A      0.130957    39A      0.141801  
      40A      0.148429    41A      0.150831    42A      0.152082  
      43A      0.157329    44A      0.158481    45A      0.196813  
      46A      0.223460    47A      0.241055    48A      0.242687  
      49A      0.243729    50A      0.254313    51A      0.256647  
      52A      0.269944    53A      0.272346    54A      0.285193  
      55A      0.291308    56A      0.292327    57A      0.303982  
      58A      0.306033    59A      0.321956    60A      0.326911  
      61A      0.334258    62A      0.339731    63A      0.341470  
      64A      0.352301    65A      0.354062    66A      0.373524  
      67A      0.384758    68A      0.400188    69A      0.409375  
      70A      0.419567    71A      0.428989    72A      0.432831  
      73A      0.432973    74A      0.439595    75A      0.441385  
      76A      0.451601    77A      0.460254    78A      0.464787  
      79A      0.471167    80A      0.475834    81A      0.480335  
      82A      0.490548    83A      0.493909    84A      0.496938  
      85A      0.510312    86A      0.523252    87A      0.535183  
      88A      0.541380    89A      0.541966    90A      0.543990  
      91A      0.561083    92A      0.589366    93A      0.615155  
      94A      0.615865    95A      0.621281    96A      0.625150  
      97A      0.634792    98A      0.649147    99A      0.651404  
     100A      0.651774   101A      0.671959   102A      0.695959  
     103A      0.710272   104A      0.713544   105A      0.732385  
     106A      0.740081   107A      0.767679   108A      0.770889  
     109A      0.775079   110A      0.779240   111A      0.794167  
     112A      0.800718   113A      0.816260   114A      0.834054  
     115A      0.836256   116A      0.845659   117A      0.849295  
     118A      0.863421   119A      0.882374   120A      0.883172  
     121A      0.885747   122A      0.887737   123A      0.902635  
     124A      0.925214   125A      0.931291   126A      0.937035  
     127A      0.949395   128A      0.952652   129A      0.955311  
     130A      0.959331   131A      0.985730   132A      0.989380  
     133A      1.005997   134A      1.007291   135A      1.014493  
     136A      1.041620   137A      1.044135   138A      1.063627  
     139A      1.070170   140A      1.071987   141A      1.074968  
     142A      1.081184   143A      1.086568   144A      1.088492  
     145A      1.111191   146A      1.112600   147A      1.140725  
     148A      1.152436   149A      1.168316   150A      1.170494  
     151A      1.175653   152A      1.185016   153A      1.186467  
     154A      1.186780   155A      1.194608   156A      1.197537  
     157A      1.209591   158A      1.222032   159A      1.226880  
     160A      1.239691   161A      1.266991   162A      1.273897  
     163A      1.281646   164A      1.287639   165A      1.291938  
     166A      1.297204   167A      1.351072   168A      1.374188  
     169A      1.402880   170A      1.423873   171A      1.443505  
     172A      1.446695   173A      1.460167   174A      1.496090  
     175A      1.504278   176A      1.510497   177A      1.519227  
     178A      1.536725   179A      1.540177   180A      1.587149  
     181A      1.596928   182A      1.627686   183A      1.630535  
     184A      1.668130   185A      1.687083   186A      1.693247  
     187A      1.708595   188A      1.713108   189A      1.716944  
     190A      1.742425   191A      1.757865   192A      1.779111  
     193A      1.786358   194A      1.802866   195A      1.826493  
     196A      1.834473   197A      1.846292   198A      1.855230  
     199A      1.873277   200A      1.882332   201A      1.888373  
     202A      1.913450   203A      1.949081   204A      1.959191  
     205A      1.961649   206A      1.963549   207A      2.013526  
     208A      2.023427   209A      2.025408   210A      2.038383  
     211A      2.039517   212A      2.040409   213A      2.069745  
     214A      2.083960   215A      2.094909   216A      2.130110  
     217A      2.145426   218A      2.156601   219A      2.161621  
     220A      2.162121   221A      2.214805   222A      2.216817  
     223A      2.249044   224A      2.252135   225A      2.295153  
     226A      2.314263   227A      2.359075   228A      2.375322  
     229A      2.384949   230A      2.407719   231A      2.429604  
     232A      2.434638   233A      2.448786   234A      2.510229  
     235A      2.535707   236A      2.541409   237A      2.584567  
     238A      2.648531   239A      2.657641   240A      2.671024  
     241A      2.674498   242A      2.806389   243A      2.809798  
     244A      2.817443   245A      2.913324   246A      2.922832  
     247A      2.973994   248A      2.985279   249A      3.047899  
     250A      3.048417   251A      3.135784   252A      3.158916  
     253A      3.161387   254A      3.247838   255A      3.259841  
     256A      3.303119   257A      3.310544   258A      3.317606  
     259A      3.346258   260A      3.356668   261A      3.385834  
     262A      3.406544   263A      3.408138   264A      3.430019  
     265A      3.432052   266A      3.452445   267A      3.474666  
     268A      3.494541   269A      3.533837   270A      3.541945  
     271A      3.551148   272A      3.564276   273A      3.564713  
     274A      3.579814   275A      3.637334   276A      3.653060  
     277A      3.685775   278A      3.703245   279A      3.710940  
     280A      3.730789   281A      3.762563   282A      3.772860  
     283A      3.773604   284A      3.820035   285A      3.838426  
     286A      3.858793   287A      3.863688   288A      3.874863  
     289A      3.894977   290A      3.921208   291A      3.923383  
     292A      3.953363   293A      3.973314   294A      3.990385  
     295A      3.995851   296A      4.034224   297A      4.043175  
     298A      4.066491   299A      4.088784   300A      4.098446  
     301A      4.127538   302A      4.128431   303A      4.136059  
     304A      4.144339   305A      4.169723   306A      4.205189  
     307A      4.224181   308A      4.225101   309A      4.227690  
     310A      4.265509   311A      4.272502   312A      4.330539  
     313A      4.370614   314A      4.380556   315A      4.411641  
     316A      4.427592   317A      4.438276   318A      4.440130  
     319A      4.465393   320A      4.517141   321A      4.519478  
     322A      4.523136   323A      4.560846   324A      4.646613  
     325A      4.658069   326A      4.693992   327A      4.745449  
     328A      4.754824   329A      4.788649   330A      4.837764  
     331A      4.870491   332A      4.887633   333A      4.898963  
     334A      4.935115   335A      4.957551   336A      4.967406  
     337A      4.988055   338A      5.024647   339A      5.037697  
     340A      5.061367   341A      5.077895   342A      5.106265  
     343A      5.119606   344A      5.138404   345A      5.145236  
     346A      5.195651   347A      5.222837   348A      5.226363  
     349A      5.232036   350A      5.329309   351A      5.385176  
     352A      5.393837   353A      5.401682   354A      5.428331  
     355A      5.444548   356A      5.474151   357A      5.516374  
     358A      5.526636   359A      5.588161   360A      5.604337  
     361A      5.654201   362A      5.779802   363A      5.793407  
     364A      5.812394   365A      5.851362   366A      5.866962  
     367A      5.906424   368A      5.908050   369A      5.974346  
     370A      6.079483   371A      6.117549   372A      6.195433  
     373A      6.226210   374A      6.302851   375A      6.392457  
     376A      6.508187   377A      6.666416   378A      6.679558  
     379A      6.680992   380A      6.738601   381A      6.818402  
     382A      6.879614   383A      7.074259   384A      7.090455  
     385A      7.479077   386A     15.475971   387A     16.278449  
     388A     18.249955   389A     18.560842   390A     19.184040  
     391A     19.256449  

    Final Occupation by Irrep:
              A 
    DOCC [    21 ]

  @DF-RHF Final Energy:  -246.77852330337873

   => Energetics <=

    Nuclear Repulsion Energy =            206.1685991564426104
    One-Electron Energy =                -741.1173103572310765
    Two-Electron Energy =                 288.1701878974097326
    Total Energy =                       -246.7785233033787335

Computation Completed


Properties will be evaluated at   0.000000,   0.000000,   0.000000 [a0]

Properties computed using the SCF density matrix

  Nuclear Dipole Moment: [e a0]
     X:   201.3344      Y:    -9.8721      Z:     0.2016

  Electronic Dipole Moment: [e a0]
     X:  -200.5603      Y:    10.3610      Z:    -0.2179

  Dipole Moment: [e a0]
     X:     0.7741      Y:     0.4889      Z:    -0.0164     Total:     0.9157

  Dipole Moment: [D]
     X:     1.9675      Y:     1.2426      Z:    -0.0416     Total:     2.3274


*** tstop() called on node43.bme.utexas.edu at Sat Apr 11 18:41:47 2020
Module time:
	user time   =      43.20 seconds =       0.72 minutes
	system time =       1.84 seconds =       0.03 minutes
	total time  =          6 seconds =       0.10 minutes
Total time:
	user time   =      43.20 seconds =       0.72 minutes
	system time =       1.84 seconds =       0.03 minutes
	total time  =          6 seconds =       0.10 minutes

*** tstart() called on node43.bme.utexas.edu
*** at Sat Apr 11 18:41:47 2020


  //>>>>>>>>>>>>>>>>>>>>>>>>>>>>>>>>>>>//
  //               DFMP2               //
  //<<<<<<<<<<<<<<<<<<<<<<<<<<<<<<<<<<<//

   => Loading Basis Set <=

    Name: (AUG-CC-PVTZ AUX)
    Role: RIFIT
    Keyword: DF_BASIS_MP2
    atoms 1              entry N          line   206 file /home/liuchw/anaconda3/envs/psi4env/share/psi4/basis/aug-cc-pvtz-ri.gbs 
    atoms 2, 4, 6, 8, 10 entry C          line   148 file /home/liuchw/anaconda3/envs/psi4env/share/psi4/basis/aug-cc-pvtz-ri.gbs 
    atoms 3, 5, 7, 9, 11 entry H          line    30 file /home/liuchw/anaconda3/envs/psi4env/share/psi4/basis/aug-cc-pvtz-ri.gbs 

	 --------------------------------------------------------
	                          DF-MP2                         
	      2nd-Order Density-Fitted Moller-Plesset Theory     
	              RMP2 Wavefunction,   8 Threads             
	                                                         
	        Rob Parrish, Justin Turney, Andy Simmonett,      
	           Ed Hohenstein, and C. David Sherrill          
	 --------------------------------------------------------

   => Auxiliary Basis Set <=

  Basis Set: (AUG-CC-PVTZ AUX)
    Blend: AUG-CC-PVTZ-RI
    Number of shells: 238
    Number of basis function: 866
    Number of Cartesian functions: 1091
    Spherical Harmonics?: true
    Max angular momentum: 4

	 --------------------------------------------------------
	                 NBF =   391, NAUX =   866
	 --------------------------------------------------------
	   CLASS    FOCC     OCC    AOCC    AVIR     VIR    FVIR
	   PAIRS       0      21      21     370     370       0
	 --------------------------------------------------------

	-----------------------------------------------------------
	 ==================> DF-MP2 Energies <==================== 
	-----------------------------------------------------------
	 Reference Energy          =    -246.7785233033787335 [Eh]
	 Singles Energy            =      -0.0000000000000000 [Eh]
	 Same-Spin Energy          =      -0.2688251325828641 [Eh]
	 Opposite-Spin Energy      =      -0.8389104113938121 [Eh]
	 Correlation Energy        =      -1.1077355439766761 [Eh]
	 Total Energy              =    -247.8862588473554069 [Eh]
	-----------------------------------------------------------
	 ================> DF-SCS-MP2 Energies <================== 
	-----------------------------------------------------------
	 SCS Same-Spin Scale       =       0.3333333333333333 [-]
	 SCS Opposite-Spin Scale   =       1.2000000000000000 [-]
	 SCS Same-Spin Energy      =      -0.0896083775276214 [Eh]
	 SCS Opposite-Spin Energy  =      -1.0066924936725745 [Eh]
	 SCS Correlation Energy    =      -1.0963008712001958 [Eh]
	 SCS Total Energy          =    -247.8748241745789187 [Eh]
	-----------------------------------------------------------


*** tstop() called on node43.bme.utexas.edu at Sat Apr 11 18:41:50 2020
Module time:
	user time   =      18.20 seconds =       0.30 minutes
	system time =       0.72 seconds =       0.01 minutes
	total time  =          3 seconds =       0.05 minutes
Total time:
	user time   =      61.41 seconds =       1.02 minutes
	system time =       2.56 seconds =       0.04 minutes
	total time  =          9 seconds =       0.15 minutes

  //>>>>>>>>>>>>>>>>>>>>>>>>>>>>>>>>>>>>//
  // CBS Computation: MP2 / AUG-CC-PVQZ //
  //<<<<<<<<<<<<<<<<<<<<<<<<<<<<<<<<<<<<//


Scratch directory: /scratch//

*** tstart() called on node43.bme.utexas.edu
*** at Sat Apr 11 18:41:50 2020

   => Loading Basis Set <=

    Name: AUG-CC-PVQZ
    Role: ORBITAL
    Keyword: BASIS
    atoms 1              entry N          line   363 file /home/liuchw/anaconda3/envs/psi4env/share/psi4/basis/aug-cc-pvqz.gbs 
    atoms 2, 4, 6, 8, 10 entry C          line   303 file /home/liuchw/anaconda3/envs/psi4env/share/psi4/basis/aug-cc-pvqz.gbs 
    atoms 3, 5, 7, 9, 11 entry H          line    40 file /home/liuchw/anaconda3/envs/psi4env/share/psi4/basis/aug-cc-pvqz.gbs 


         ---------------------------------------------------------
                                   SCF
               by Justin Turney, Rob Parrish, Andy Simmonett
                          and Daniel G. A. Smith
                              RHF Reference
                        8 Threads,  38146 MiB Core
         ---------------------------------------------------------

  ==> Geometry <==

    Molecular point group: c1
    Full point group: C1

    Geometry (in Angstrom), charge = 0, multiplicity = 1:

       Center              X                  Y                   Z               Mass       
    ------------   -----------------  -----------------  -----------------  -----------------
         N            1.334233048138    -0.880382477042     0.027711046526    14.003074004430
         C            2.536012048138    -1.473559477042     0.029791046526    12.000000000000
         H            2.530788048138    -2.556521477042     0.051680046526     1.007825032230
         C            3.741948048138    -0.778600477042     0.005790046526    12.000000000000
         H            4.678386048138    -1.318135477042     0.008884046526     1.007825032230
         C            3.709630048138     0.611703522958    -0.021956953474    12.000000000000
         H            4.625005048138     1.186954522958    -0.041138953474     1.007825032230
         C            2.469950048138     1.241990522958    -0.024433953474    12.000000000000
         H            2.390177048138     2.319548522958    -0.045522953474     1.007825032230
         C            1.316036048138     0.461980522958     0.000759046526    12.000000000000
         H            0.336126048138     0.925642522958    -0.000902953474     1.007825032230

  Running in c1 symmetry.

  Rotational constants: A =      0.19960  B =      0.02874  C =      0.02512 [cm^-1]
  Rotational constants: A =   5983.72748  B =    861.57073  C =    753.14209 [MHz]
  Nuclear repulsion =  206.168599156442610

  Charge       = 0
  Multiplicity = 1
  Electrons    = 42
  Nalpha       = 21
  Nbeta        = 21

  ==> Algorithm <==

  SCF Algorithm Type is DF.
  DIIS enabled.
  MOM disabled.
  Fractional occupation disabled.
  Guess Type is SAD.
  Energy threshold   = 1.00e-07
  Density threshold  = 1.00e-08
  Integral threshold = 0.00e+00

  ==> Primary Basis <==

  Basis Set: AUG-CC-PVQZ
    Blend: AUG-CC-PVQZ
    Number of shells: 190
    Number of basis function: 710
    Number of Cartesian functions: 905
    Spherical Harmonics?: true
    Max angular momentum: 4

   => Loading Basis Set <=

    Name: (AUG-CC-PVQZ AUX)
    Role: JKFIT
    Keyword: DF_BASIS_SCF
    atoms 1              entry N          line   248 file /home/liuchw/anaconda3/envs/psi4env/share/psi4/basis/aug-cc-pvqz-jkfit.gbs 
    atoms 2, 4, 6, 8, 10 entry C          line   178 file /home/liuchw/anaconda3/envs/psi4env/share/psi4/basis/aug-cc-pvqz-jkfit.gbs 
    atoms 3, 5, 7, 9, 11 entry H          line    70 file /home/liuchw/anaconda3/envs/psi4env/share/psi4/basis/aug-cc-pvqz-jkfit.gbs 

  ==> Pre-Iterations <==

   -------------------------------------------------------
    Irrep   Nso     Nmo     Nalpha   Nbeta   Ndocc  Nsocc
   -------------------------------------------------------
     A        710     710       0       0       0       0
   -------------------------------------------------------
    Total     710     710      21      21      21       0
   -------------------------------------------------------

  ==> Integral Setup <==

  DFHelper Memory: AOs need 4.662 GiB; user supplied 27.940 GiB. Using in-core AOs.

  ==> MemDFJK: Density-Fitted J/K Matrices <==

    J tasked:                   Yes
    K tasked:                   Yes
    wK tasked:                   No
    OpenMP threads:               8
    Memory [MiB]:             28610
    Algorithm:                 Core
    Schwarz Cutoff:           1E-12
    Mask sparsity (%):       2.8288
    Fitting Condition:        1E-10

   => Auxiliary Basis Set <=

  Basis Set: (AUG-CC-PVQZ AUX)
    Blend: AUG-CC-PVQZ-JKFIT
    Number of shells: 294
    Number of basis function: 1232
    Number of Cartesian functions: 1693
    Spherical Harmonics?: true
    Max angular momentum: 5

  Minimum eigenvalue in the overlap matrix is 6.9094701198E-07.
  Using Symmetric Orthogonalization.

  SCF Guess: Superposition of Atomic Densities via on-the-fly atomic UHF.

  ==> Iterations <==

                           Total Energy        Delta E     RMS |[F,P]|

   @DF-RHF iter SAD:  -246.16184800824817   -2.46162e+02   0.00000e+00 
   @DF-RHF iter   1:  -246.64653065479234   -4.84683e-01   6.98893e-04 DIIS
   @DF-RHF iter   2:  -246.76691764899169   -1.20387e-01   3.21342e-04 DIIS
   @DF-RHF iter   3:  -246.79117100942233   -2.42534e-02   6.25921e-05 DIIS
   @DF-RHF iter   4:  -246.79256979938972   -1.39879e-03   1.78919e-05 DIIS
   @DF-RHF iter   5:  -246.79264920998548   -7.94106e-05   6.11570e-06 DIIS
   @DF-RHF iter   6:  -246.79266022532866   -1.10153e-05   1.38826e-06 DIIS
   @DF-RHF iter   7:  -246.79266101300280   -7.87674e-07   4.80464e-07 DIIS
   @DF-RHF iter   8:  -246.79266111175522   -9.87524e-08   2.07058e-07 DIIS
   @DF-RHF iter   9:  -246.79266114222000   -3.04648e-08   6.05433e-08 DIIS
   @DF-RHF iter  10:  -246.79266114624656   -4.02656e-09   2.23835e-08 DIIS
   @DF-RHF iter  11:  -246.79266114698316   -7.36605e-10   1.34909e-08 DIIS
   @DF-RHF iter  12:  -246.79266114717711   -1.93950e-10   4.28140e-09 DIIS
  Energy and wave function converged.


  ==> Post-Iterations <==

    Orbital Energies [Eh]
    ---------------------

    Doubly Occupied:                                                      

       1A    -15.565317     2A    -11.275068     3A    -11.274294  
       4A    -11.259607     5A    -11.241552     6A    -11.241478  
       7A     -1.255527     8A     -1.089590     9A     -1.033771  
      10A     -0.859614    11A     -0.855765    12A     -0.722238  
      13A     -0.660670    14A     -0.654662    15A     -0.598957  
      16A     -0.577659    17A     -0.541217    18A     -0.520705  
      19A     -0.419525    20A     -0.384117    21A     -0.348329  

    Virtual:                                                              

      22A      0.023010    23A      0.028856    24A      0.033236  
      25A      0.043043    26A      0.047151    27A      0.065982  
      28A      0.081762    29A      0.087677    30A      0.088965  
      31A      0.091260    32A      0.095109    33A      0.095916  
      34A      0.097130    35A      0.099898    36A      0.102417  
      37A      0.113006    38A      0.114949    39A      0.124446  
      40A      0.127451    41A      0.128212    42A      0.132057  
      43A      0.133590    44A      0.136955    45A      0.170362  
      46A      0.186557    47A      0.205022    48A      0.210292  
      49A      0.211631    50A      0.215795    51A      0.221491  
      52A      0.228782    53A      0.237075    54A      0.244820  
      55A      0.245482    56A      0.253897    57A      0.254208  
      58A      0.254236    59A      0.266484    60A      0.280525  
      61A      0.286013    62A      0.289984    63A      0.293877  
      64A      0.296190    65A      0.300180    66A      0.300975  
      67A      0.309474    68A      0.318640    69A      0.318780  
      70A      0.319851    71A      0.338335    72A      0.350183  
      73A      0.351114    74A      0.362359    75A      0.364960  
      76A      0.368726    77A      0.368955    78A      0.384125  
      79A      0.386075    80A      0.399980    81A      0.400785  
      82A      0.419638    83A      0.423455    84A      0.424856  
      85A      0.427404    86A      0.429905    87A      0.435166  
      88A      0.437179    89A      0.440290    90A      0.456029  
      91A      0.459147    92A      0.467437    93A      0.470331  
      94A      0.471168    95A      0.490512    96A      0.491031  
      97A      0.505833    98A      0.506668    99A      0.512787  
     100A      0.518066   101A      0.518689   102A      0.530533  
     103A      0.541921   104A      0.566862   105A      0.567306  
     106A      0.572434   107A      0.580398   108A      0.582315  
     109A      0.587379   110A      0.602891   111A      0.610093  
     112A      0.611686   113A      0.623445   114A      0.645254  
     115A      0.656316   116A      0.659223   117A      0.662948  
     118A      0.667912   119A      0.669640   120A      0.675109  
     121A      0.702732   122A      0.704899   123A      0.706875  
     124A      0.719453   125A      0.731288   126A      0.734959  
     127A      0.736128   128A      0.744259   129A      0.748814  
     130A      0.758077   131A      0.765220   132A      0.778109  
     133A      0.780814   134A      0.787305   135A      0.791085  
     136A      0.797772   137A      0.801247   138A      0.801514  
     139A      0.809581   140A      0.823115   141A      0.834021  
     142A      0.840071   143A      0.843206   144A      0.849458  
     145A      0.854851   146A      0.859933   147A      0.891737  
     148A      0.892675   149A      0.899087   150A      0.903095  
     151A      0.920103   152A      0.926628   153A      0.933189  
     154A      0.937188   155A      0.950903   156A      0.951134  
     157A      0.953530   158A      0.962136   159A      0.963546  
     160A      0.966575   161A      0.977430   162A      0.988334  
     163A      0.989624   164A      1.001525   165A      1.022985  
     166A      1.027582   167A      1.046428   168A      1.057860  
     169A      1.082354   170A      1.090353   171A      1.092015  
     172A      1.110537   173A      1.123979   174A      1.131135  
     175A      1.142136   176A      1.162256   177A      1.166284  
     178A      1.179131   179A      1.181740   180A      1.182330  
     181A      1.194005   182A      1.212840   183A      1.228138  
     184A      1.230063   185A      1.230745   186A      1.248809  
     187A      1.259251   188A      1.260980   189A      1.299413  
     190A      1.301243   191A      1.317352   192A      1.318066  
     193A      1.330267   194A      1.330439   195A      1.355418  
     196A      1.365396   197A      1.370708   198A      1.381399  
     199A      1.383961   200A      1.388948   201A      1.396142  
     202A      1.402926   203A      1.419391   204A      1.421097  
     205A      1.425727   206A      1.434144   207A      1.459705  
     208A      1.471339   209A      1.494878   210A      1.516002  
     211A      1.526838   212A      1.542621   213A      1.546467  
     214A      1.548216   215A      1.548239   216A      1.552815  
     217A      1.556248   218A      1.571690   219A      1.579725  
     220A      1.583302   221A      1.587625   222A      1.601435  
     223A      1.608279   224A      1.613694   225A      1.621353  
     226A      1.626287   227A      1.644540   228A      1.670385  
     229A      1.672914   230A      1.698847   231A      1.720046  
     232A      1.729051   233A      1.734225   234A      1.739247  
     235A      1.748594   236A      1.773169   237A      1.780320  
     238A      1.797865   239A      1.835706   240A      1.836531  
     241A      1.836811   242A      1.851195   243A      1.855153  
     244A      1.862747   245A      1.909254   246A      1.910273  
     247A      1.921931   248A      1.932858   249A      1.937325  
     250A      1.937376   251A      1.973832   252A      1.974599  
     253A      1.976700   254A      1.990357   255A      1.994530  
     256A      2.002933   257A      2.007491   258A      2.010745  
     259A      2.014565   260A      2.038874   261A      2.048476  
     262A      2.060151   263A      2.068048   264A      2.075206  
     265A      2.081638   266A      2.084291   267A      2.092170  
     268A      2.099597   269A      2.122223   270A      2.126703  
     271A      2.151292   272A      2.151820   273A      2.153793  
     274A      2.167612   275A      2.190631   276A      2.196829  
     277A      2.230404   278A      2.238028   279A      2.241190  
     280A      2.250651   281A      2.254341   282A      2.259280  
     283A      2.275371   284A      2.278278   285A      2.279247  
     286A      2.294134   287A      2.304015   288A      2.304075  
     289A      2.315443   290A      2.338260   291A      2.339403  
     292A      2.343328   293A      2.366606   294A      2.376486  
     295A      2.383103   296A      2.385709   297A      2.387490  
     298A      2.414160   299A      2.416510   300A      2.423806  
     301A      2.424627   302A      2.447975   303A      2.458064  
     304A      2.468584   305A      2.468722   306A      2.469476  
     307A      2.484400   308A      2.508694   309A      2.509475  
     310A      2.516050   311A      2.528505   312A      2.559866  
     313A      2.560641   314A      2.568630   315A      2.573960  
     316A      2.576149   317A      2.587495   318A      2.594769  
     319A      2.595494   320A      2.612161   321A      2.627322  
     322A      2.630952   323A      2.633033   324A      2.708223  
     325A      2.708376   326A      2.709322   327A      2.726639  
     328A      2.759439   329A      2.763424   330A      2.770288  
     331A      2.772411   332A      2.784502   333A      2.802289  
     334A      2.804575   335A      2.804792   336A      2.819036  
     337A      2.838333   338A      2.857943   339A      2.881290  
     340A      2.903850   341A      2.905653   342A      2.929868  
     343A      2.942844   344A      2.965331   345A      2.995632  
     346A      3.006112   347A      3.018078   348A      3.027993  
     349A      3.028012   350A      3.029855   351A      3.071389  
     352A      3.077197   353A      3.097202   354A      3.134451  
     355A      3.137158   356A      3.138810   357A      3.147660  
     358A      3.167633   359A      3.211354   360A      3.214254  
     361A      3.229108   362A      3.234479   363A      3.269630  
     364A      3.274118   365A      3.297804   366A      3.302027  
     367A      3.311499   368A      3.313150   369A      3.340045  
     370A      3.351980   371A      3.360332   372A      3.374063  
     373A      3.379277   374A      3.390380   375A      3.445880  
     376A      3.453513   377A      3.465402   378A      3.502956  
     379A      3.524926   380A      3.527696   381A      3.547189  
     382A      3.571908   383A      3.603609   384A      3.604706  
     385A      3.628560   386A      3.654371   387A      3.666881  
     388A      3.676989   389A      3.679484   390A      3.712716  
     391A      3.719597   392A      3.725749   393A      3.747205  
     394A      3.747648   395A      3.796139   396A      3.820432  
     397A      3.834085   398A      3.855426   399A      3.878362  
     400A      3.888082   401A      3.894817   402A      3.919541  
     403A      3.925118   404A      3.929501   405A      3.933384  
     406A      3.961324   407A      3.966698   408A      3.973838  
     409A      4.013596   410A      4.030450   411A      4.032884  
     412A      4.045875   413A      4.051796   414A      4.084637  
     415A      4.124661   416A      4.141047   417A      4.143665  
     418A      4.153190   419A      4.155651   420A      4.191776  
     421A      4.201843   422A      4.251425   423A      4.267118  
     424A      4.269646   425A      4.323239   426A      4.324378  
     427A      4.338766   428A      4.370589   429A      4.376799  
     430A      4.401796   431A      4.405063   432A      4.435482  
     433A      4.437147   434A      4.465757   435A      4.470883  
     436A      4.493388   437A      4.502786   438A      4.509014  
     439A      4.549764   440A      4.566742   441A      4.567280  
     442A      4.577240   443A      4.608048   444A      4.617690  
     445A      4.668396   446A      4.691066   447A      4.698215  
     448A      4.720718   449A      4.743885   450A      4.788214  
     451A      4.824394   452A      4.854653   453A      4.882066  
     454A      4.897296   455A      4.907435   456A      4.930942  
     457A      4.973250   458A      4.997727   459A      5.001328  
     460A      5.026076   461A      5.035066   462A      5.068540  
     463A      5.116739   464A      5.146932   465A      5.199427  
     466A      5.216876   467A      5.239210   468A      5.299495  
     469A      5.373343   470A      5.407768   471A      5.429846  
     472A      5.446535   473A      5.471218   474A      5.544279  
     475A      5.618396   476A      5.699969   477A      5.738690  
     478A      5.797811   479A      5.799860   480A      5.827378  
     481A      5.847007   482A      5.889635   483A      5.916944  
     484A      5.987129   485A      6.008399   486A      6.043561  
     487A      6.050828   488A      6.078560   489A      6.099557  
     490A      6.121546   491A      6.131460   492A      6.153944  
     493A      6.156351   494A      6.184570   495A      6.215329  
     496A      6.306219   497A      6.309226   498A      6.324184  
     499A      6.378295   500A      6.384117   501A      6.413951  
     502A      6.428169   503A      6.465261   504A      6.471706  
     505A      6.513844   506A      6.545089   507A      6.584515  
     508A      6.587737   509A      6.592361   510A      6.600213  
     511A      6.614938   512A      6.636883   513A      6.638783  
     514A      6.649902   515A      6.651328   516A      6.668174  
     517A      6.683306   518A      6.710421   519A      6.750066  
     520A      6.775680   521A      6.793957   522A      6.801867  
     523A      6.820837   524A      6.854208   525A      6.862231  
     526A      6.888562   527A      6.900251   528A      6.903725  
     529A      6.935591   530A      6.955563   531A      6.978926  
     532A      6.998642   533A      7.021405   534A      7.023024  
     535A      7.032944   536A      7.053193   537A      7.063308  
     538A      7.080626   539A      7.090290   540A      7.122853  
     541A      7.147205   542A      7.148819   543A      7.166420  
     544A      7.184686   545A      7.198269   546A      7.215853  
     547A      7.217369   548A      7.242110   549A      7.285108  
     550A      7.289914   551A      7.325092   552A      7.326149  
     553A      7.342721   554A      7.387729   555A      7.395728  
     556A      7.396214   557A      7.405186   558A      7.436948  
     559A      7.464518   560A      7.503529   561A      7.519025  
     562A      7.569340   563A      7.580567   564A      7.588804  
     565A      7.630224   566A      7.637660   567A      7.643107  
     568A      7.679045   569A      7.715495   570A      7.744147  
     571A      7.770654   572A      7.773740   573A      7.779970  
     574A      7.809735   575A      7.838798   576A      7.857420  
     577A      7.875956   578A      7.925305   579A      7.943048  
     580A      7.999881   581A      8.005325   582A      8.015637  
     583A      8.027608   584A      8.062677   585A      8.070204  
     586A      8.094200   587A      8.145850   588A      8.146943  
     589A      8.151664   590A      8.277337   591A      8.302166  
     592A      8.320747   593A      8.355212   594A      8.362949  
     595A      8.377801   596A      8.457233   597A      8.488923  
     598A      8.522107   599A      8.541670   600A      8.617341  
     601A      8.619054   602A      8.639138   603A      8.665059  
     604A      8.697181   605A      8.698322   606A      8.706912  
     607A      8.717769   608A      8.809625   609A      8.819771  
     610A      8.857576   611A      8.871890   612A      8.890469  
     613A      8.890936   614A      8.938670   615A      8.941524  
     616A      8.955824   617A      8.957935   618A      8.962296  
     619A      9.038530   620A      9.049482   621A      9.078620  
     622A      9.118406   623A      9.140869   624A      9.172294  
     625A      9.194848   626A      9.201281   627A      9.217936  
     628A      9.255436   629A      9.327229   630A      9.355535  
     631A      9.392498   632A      9.398399   633A      9.415428  
     634A      9.445613   635A      9.499439   636A      9.548736  
     637A      9.552074   638A      9.553478   639A      9.592301  
     640A      9.595996   641A      9.608260   642A      9.648399  
     643A      9.701819   644A      9.721582   645A      9.722076  
     646A      9.738345   647A      9.793071   648A      9.866170  
     649A      9.901322   650A      9.959981   651A      9.962203  
     652A      9.963733   653A      9.982050   654A     10.009216  
     655A     10.015923   656A     10.027205   657A     10.090964  
     658A     10.216225   659A     10.231148   660A     10.233427  
     661A     10.241585   662A     10.290022   663A     10.316591  
     664A     10.327945   665A     10.380502   666A     10.391024  
     667A     10.464972   668A     10.476647   669A     10.494505  
     670A     10.505535   671A     10.509198   672A     10.576084  
     673A     10.636954   674A     10.647246   675A     10.717600  
     676A     10.763789   677A     10.765558   678A     10.776131  
     679A     10.794518   680A     10.845046   681A     10.876617  
     682A     11.049624   683A     11.067255   684A     11.191865  
     685A     11.197590   686A     11.364933   687A     11.373184  
     688A     11.441958   689A     11.454212   690A     11.561675  
     691A     11.636490   692A     11.666184   693A     11.693841  
     694A     11.767126   695A     11.897596   696A     12.289488  
     697A     12.489179   698A     12.725438   699A     12.840478  
     700A     13.199900   701A     13.366071   702A     13.377402  
     703A     13.514286   704A     13.570847   705A     26.158981  
     706A     26.283767   707A     26.512387   708A     26.940531  
     709A     27.178412   710A     34.200855  

    Final Occupation by Irrep:
              A 
    DOCC [    21 ]

  @DF-RHF Final Energy:  -246.79266114717711

   => Energetics <=

    Nuclear Repulsion Energy =            206.1685991564426104
    One-Electron Energy =                -741.1631905132168185
    Two-Electron Energy =                 288.2019302095970943
    Total Energy =                       -246.7926611471771139

Computation Completed


Properties will be evaluated at   0.000000,   0.000000,   0.000000 [a0]

Properties computed using the SCF density matrix

  Nuclear Dipole Moment: [e a0]
     X:   201.3344      Y:    -9.8721      Z:     0.2016

  Electronic Dipole Moment: [e a0]
     X:  -200.5610      Y:    10.3606      Z:    -0.2179

  Dipole Moment: [e a0]
     X:     0.7734      Y:     0.4885      Z:    -0.0163     Total:     0.9149

  Dipole Moment: [D]
     X:     1.9658      Y:     1.2415      Z:    -0.0415     Total:     2.3254


*** tstop() called on node43.bme.utexas.edu at Sat Apr 11 18:42:15 2020
Module time:
	user time   =     169.52 seconds =       2.83 minutes
	system time =       4.26 seconds =       0.07 minutes
	total time  =         25 seconds =       0.42 minutes
Total time:
	user time   =     230.98 seconds =       3.85 minutes
	system time =       6.83 seconds =       0.11 minutes
	total time  =         34 seconds =       0.57 minutes

*** tstart() called on node43.bme.utexas.edu
*** at Sat Apr 11 18:42:15 2020


  //>>>>>>>>>>>>>>>>>>>>>>>>>>>>>>>>>>>//
  //               DFMP2               //
  //<<<<<<<<<<<<<<<<<<<<<<<<<<<<<<<<<<<//

   => Loading Basis Set <=

    Name: (AUG-CC-PVQZ AUX)
    Role: RIFIT
    Keyword: DF_BASIS_MP2
    atoms 1              entry N          line   258 file /home/liuchw/anaconda3/envs/psi4env/share/psi4/basis/aug-cc-pvqz-ri.gbs 
    atoms 2, 4, 6, 8, 10 entry C          line   184 file /home/liuchw/anaconda3/envs/psi4env/share/psi4/basis/aug-cc-pvqz-ri.gbs 
    atoms 3, 5, 7, 9, 11 entry H          line    30 file /home/liuchw/anaconda3/envs/psi4env/share/psi4/basis/aug-cc-pvqz-ri.gbs 

	 --------------------------------------------------------
	                          DF-MP2                         
	      2nd-Order Density-Fitted Moller-Plesset Theory     
	              RMP2 Wavefunction,   8 Threads             
	                                                         
	        Rob Parrish, Justin Turney, Andy Simmonett,      
	           Ed Hohenstein, and C. David Sherrill          
	 --------------------------------------------------------

   => Auxiliary Basis Set <=

  Basis Set: (AUG-CC-PVQZ AUX)
    Blend: AUG-CC-PVQZ-RI
    Number of shells: 316
    Number of basis function: 1408
    Number of Cartesian functions: 1947
    Spherical Harmonics?: true
    Max angular momentum: 5

	 --------------------------------------------------------
	                 NBF =   710, NAUX =  1408
	 --------------------------------------------------------
	   CLASS    FOCC     OCC    AOCC    AVIR     VIR    FVIR
	   PAIRS       0      21      21     689     689       0
	 --------------------------------------------------------

	-----------------------------------------------------------
	 ==================> DF-MP2 Energies <==================== 
	-----------------------------------------------------------
	 Reference Energy          =    -246.7926611471771139 [Eh]
	 Singles Energy            =      -0.0000000000000000 [Eh]
	 Same-Spin Energy          =      -0.2841964358626862 [Eh]
	 Opposite-Spin Energy      =      -0.9424873572546477 [Eh]
	 Correlation Energy        =      -1.2266837931173340 [Eh]
	 Total Energy              =    -248.0193449402944452 [Eh]
	-----------------------------------------------------------
	 ================> DF-SCS-MP2 Energies <================== 
	-----------------------------------------------------------
	 SCS Same-Spin Scale       =       0.3333333333333333 [-]
	 SCS Opposite-Spin Scale   =       1.2000000000000000 [-]
	 SCS Same-Spin Energy      =      -0.0947321452875620 [Eh]
	 SCS Opposite-Spin Energy  =      -1.1309848287055773 [Eh]
	 SCS Correlation Energy    =      -1.2257169739931393 [Eh]
	 SCS Total Energy          =    -248.0183781211702581 [Eh]
	-----------------------------------------------------------


*** tstop() called on node43.bme.utexas.edu at Sat Apr 11 18:42:28 2020
Module time:
	user time   =      72.40 seconds =       1.21 minutes
	system time =       1.96 seconds =       0.03 minutes
	total time  =         13 seconds =       0.22 minutes
Total time:
	user time   =     303.39 seconds =       5.06 minutes
	system time =       8.79 seconds =       0.15 minutes
	total time  =         47 seconds =       0.78 minutes

  //>>>>>>>>>>>>>>>>>>>>>>>>>>>>>>>>>>>//
  //  CBS Results: mp2/aug-cc-pv[tq]z  //
  //<<<<<<<<<<<<<<<<<<<<<<<<<<<<<<<<<<<//


   ==> HF <==

   HI-zeta (4) Energy:               -246.792661147177


   ==> Helgaker 2-point correlated extrapolation for method: MP2 <==

   LO-zeta (3) Energy:               -247.886258847355
   HI-zeta (4) Energy:               -248.019344940294
   Alpha (exponent) Value:             3.000000000000
   Extrapolated Energy:              -248.116461818926

   @Extrapolated MP2/(T,Q):          -248.116461818926



   ==> Helgaker 2-point correlated extrapolation for method: HF <==

   LO-zeta (3) Energy:               -246.778523303379
   HI-zeta (4) Energy:               -246.792661147177
   Alpha (exponent) Value:             3.000000000000
   Extrapolated Energy:              -246.802977952111

   @Extrapolated HF/(T,Q):           -246.802977952111


   ==> Components <==

  ---------------------------------------------------------------------------------------------------------
                          Method / Basis                      Rqd      Energy [Eh]   Variable
  ---------------------------------------------------------------------------------------------------------
                              hf / aug-cc-pvtz                  *    -246.77852330   HF TOTAL ENERGY
                             mp2 / aug-cc-pvtz                  *    -247.88625885   MP2 TOTAL ENERGY
                              hf / aug-cc-pvqz                  *    -246.79266115   HF TOTAL ENERGY
                             mp2 / aug-cc-pvqz                  *    -248.01934494   MP2 TOTAL ENERGY
  ---------------------------------------------------------------------------------------------------------

   ==> Stages <==

  ---------------------------------------------------------------------------------------------------------
      Stage               Method / Basis                       Wt      Energy [Eh]   Scheme
  ---------------------------------------------------------------------------------------------------------
        scf                   hf / aug-cc-pvqz                  1    -246.79266115   xtpl_highest_1
       corl                  mp2 / aug-cc-pv[tq]z               1    -248.11646182   corl_xtpl_helgaker_2
       corl                   hf / aug-cc-pv[tq]z              -1    -246.80297795   corl_xtpl_helgaker_2
  ---------------------------------------------------------------------------------------------------------

   ==> CBS <==

  ---------------------------------------------------------------------------------------------------------
      Stage               Method / Basis                               Energy [Eh]   Scheme
  ---------------------------------------------------------------------------------------------------------
        scf                   hf / aug-cc-pvqz                       -246.79266115   xtpl_highest_1
       corl                  mp2 / aug-cc-pv[tq]z                      -1.31348387   corl_xtpl_helgaker_2
      total                  CBS                                     -248.10614501   
  ---------------------------------------------------------------------------------------------------------
   => Loading Basis Set <=

    Name: DEF2-SVP
    Role: ORBITAL
    Keyword: BASIS
    atoms 1              entry N          line   110 file /home/liuchw/anaconda3/envs/psi4env/share/psi4/basis/def2-svp.gbs 
    atoms 2, 4, 6, 8, 10 entry C          line    90 file /home/liuchw/anaconda3/envs/psi4env/share/psi4/basis/def2-svp.gbs 
    atoms 3, 5, 7, 9, 11 entry H          line    15 file /home/liuchw/anaconda3/envs/psi4env/share/psi4/basis/def2-svp.gbs 


       N-Body: Complex Energy (fragments = (2,), basis = (2,):  -248.10614501399161)

       N-Body: Computing complex (2/4) with fragments (2,) in the basis of fragments (1, 2).


Scratch directory: /scratch//

  //>>>>>>>>>>>>>>>>>>>>>>>>>>>>>>>>>>>//
  //   CBS Setup: mp2/aug-cc-pv[tq]z   //
  //<<<<<<<<<<<<<<<<<<<<<<<<<<<<<<<<<<<//

    Naive listing of computations required.
             hf / aug-cc-pvqz              for  HF TOTAL ENERGY
            mp2 / aug-cc-pvtz              for  MP2 TOTAL ENERGY
            mp2 / aug-cc-pvqz              for  MP2 TOTAL ENERGY
             hf / aug-cc-pvtz              for  HF TOTAL ENERGY
             hf / aug-cc-pvqz              for  HF TOTAL ENERGY

    Enlightened listing of computations required.
            mp2 / aug-cc-pvtz              for  MP2 TOTAL ENERGY
            mp2 / aug-cc-pvqz              for  MP2 TOTAL ENERGY

    Full listing of computations to be obtained (required and bonus).
             hf / aug-cc-pvtz              for  HF TOTAL ENERGY
            mp2 / aug-cc-pvtz              for  MP2 TOTAL ENERGY
             hf / aug-cc-pvqz              for  HF TOTAL ENERGY
            mp2 / aug-cc-pvqz              for  MP2 TOTAL ENERGY

  //>>>>>>>>>>>>>>>>>>>>>>>>>>>>>>>>>>>>//
  // CBS Computation: MP2 / AUG-CC-PVTZ //
  //<<<<<<<<<<<<<<<<<<<<<<<<<<<<<<<<<<<<//


Scratch directory: /scratch//

*** tstart() called on node43.bme.utexas.edu
*** at Sat Apr 11 18:42:29 2020

   => Loading Basis Set <=

    Name: AUG-CC-PVTZ
    Role: ORBITAL
    Keyword: BASIS
    atoms 1, 12                              entry N          line   285 file /home/liuchw/anaconda3/envs/psi4env/share/psi4/basis/aug-cc-pvtz.gbs 
    atoms 2, 4, 6, 8, 10, 13, 15, 17, 19, 21 entry C          line   239 file /home/liuchw/anaconda3/envs/psi4env/share/psi4/basis/aug-cc-pvtz.gbs 
    atoms 3, 5, 7, 9, 11, 14, 16, 18, 20, 22 entry H          line    40 file /home/liuchw/anaconda3/envs/psi4env/share/psi4/basis/aug-cc-pvtz.gbs 


         ---------------------------------------------------------
                                   SCF
               by Justin Turney, Rob Parrish, Andy Simmonett
                          and Daniel G. A. Smith
                              RHF Reference
                        8 Threads,  38146 MiB Core
         ---------------------------------------------------------

  ==> Geometry <==

    Molecular point group: c1
    Full point group: C1

    Geometry (in Angstrom), charge = 0, multiplicity = 1:

       Center              X                  Y                   Z               Mass       
    ------------   -----------------  -----------------  -----------------  -----------------
      Gh(N)          -1.334378951862     0.881023522958    -0.005967953474    14.003074004430
      Gh(C)          -1.315922951862    -0.461395477042     0.017692046526    12.000000000000
      Gh(H)          -0.335926951862    -0.924605477042     0.033668046526     1.007825032230
      Gh(C)          -2.469686951862    -1.242035477042     0.021603046526    12.000000000000
      Gh(H)          -2.389696951862    -2.319603477042     0.041190046526     1.007825032230
      Gh(C)          -3.709480951862    -0.612357477042    -0.000087953474    12.000000000000
      Gh(H)          -4.624742951862    -1.188101477042     0.002107046526     1.007825032230
      Gh(C)          -3.742062951862     0.778001522958    -0.024772953474    12.000000000000
      Gh(H)          -4.678611951862     1.317087522958    -0.042345953474     1.007825032230
      Gh(C)          -2.536271951862     1.473616522958    -0.026576953474    12.000000000000
      Gh(H)          -2.531267951862     2.556635522958    -0.045469953474     1.007825032230
         N            1.334233048138    -0.880382477042     0.027711046526    14.003074004430
         C            2.536012048138    -1.473559477042     0.029791046526    12.000000000000
         H            2.530788048138    -2.556521477042     0.051680046526     1.007825032230
         C            3.741948048138    -0.778600477042     0.005790046526    12.000000000000
         H            4.678386048138    -1.318135477042     0.008884046526     1.007825032230
         C            3.709630048138     0.611703522958    -0.021956953474    12.000000000000
         H            4.625005048138     1.186954522958    -0.041138953474     1.007825032230
         C            2.469950048138     1.241990522958    -0.024433953474    12.000000000000
         H            2.390177048138     2.319548522958    -0.045522953474     1.007825032230
         C            1.316036048138     0.461980522958     0.000759046526    12.000000000000
         H            0.336126048138     0.925642522958    -0.000902953474     1.007825032230

  Running in c1 symmetry.

  Rotational constants: A =      0.09980  B =      0.01437  C =      0.01256 [cm^-1]
  Rotational constants: A =   2991.82064  B =    430.78543  C =    376.57172 [MHz]
  Nuclear repulsion =  206.168599156442610

  Charge       = 0
  Multiplicity = 1
  Electrons    = 42
  Nalpha       = 21
  Nbeta        = 21

  ==> Algorithm <==

  SCF Algorithm Type is DF.
  DIIS enabled.
  MOM disabled.
  Fractional occupation disabled.
  Guess Type is SAD.
  Energy threshold   = 1.00e-07
  Density threshold  = 1.00e-08
  Integral threshold = 0.00e+00

  ==> Primary Basis <==

  Basis Set: AUG-CC-PVTZ
    Blend: AUG-CC-PVTZ
    Number of shells: 258
    Number of basis function: 782
    Number of Cartesian functions: 910
    Spherical Harmonics?: true
    Max angular momentum: 3

   => Loading Basis Set <=

    Name: (AUG-CC-PVTZ AUX)
    Role: JKFIT
    Keyword: DF_BASIS_SCF
    atoms 1, 12                              entry N          line   224 file /home/liuchw/anaconda3/envs/psi4env/share/psi4/basis/aug-cc-pvtz-jkfit.gbs 
    atoms 2, 4, 6, 8, 10, 13, 15, 17, 19, 21 entry C          line   162 file /home/liuchw/anaconda3/envs/psi4env/share/psi4/basis/aug-cc-pvtz-jkfit.gbs 
    atoms 3, 5, 7, 9, 11, 14, 16, 18, 20, 22 entry H          line    70 file /home/liuchw/anaconda3/envs/psi4env/share/psi4/basis/aug-cc-pvtz-jkfit.gbs 

  ==> Pre-Iterations <==

   -------------------------------------------------------
    Irrep   Nso     Nmo     Nalpha   Nbeta   Ndocc  Nsocc
   -------------------------------------------------------
     A        782     782       0       0       0       0
   -------------------------------------------------------
    Total     782     782      21      21      21       0
   -------------------------------------------------------

  ==> Integral Setup <==

  DFHelper Memory: AOs need 7.012 GiB; user supplied 27.940 GiB. Using in-core AOs.

  ==> MemDFJK: Density-Fitted J/K Matrices <==

    J tasked:                   Yes
    K tasked:                   Yes
    wK tasked:                   No
    OpenMP threads:               8
    Memory [MiB]:             28610
    Algorithm:                 Core
    Schwarz Cutoff:           1E-12
    Mask sparsity (%):      12.2229
    Fitting Condition:        1E-10

   => Auxiliary Basis Set <=

  Basis Set: (AUG-CC-PVTZ AUX)
    Blend: AUG-CC-PVTZ-JKFIT
    Number of shells: 500
    Number of basis function: 1708
    Number of Cartesian functions: 2122
    Spherical Harmonics?: true
    Max angular momentum: 4

  Minimum eigenvalue in the overlap matrix is 7.3439604870E-07.
  Using Symmetric Orthogonalization.

  SCF Guess: Superposition of Atomic Densities via on-the-fly atomic UHF.

  ==> Iterations <==

                           Total Energy        Delta E     RMS |[F,P]|

   @DF-RHF iter SAD:  -246.15178903473350   -2.46152e+02   0.00000e+00 
   @DF-RHF iter   1:  -246.63313904800259   -4.81350e-01   6.30718e-04 DIIS
   @DF-RHF iter   2:  -246.75319265154207   -1.20054e-01   2.89612e-04 DIIS
   @DF-RHF iter   3:  -246.77724301048352   -2.40504e-02   5.59418e-05 DIIS
   @DF-RHF iter   4:  -246.77862592292939   -1.38291e-03   1.63184e-05 DIIS
   @DF-RHF iter   5:  -246.77870550857898   -7.95856e-05   5.36100e-06 DIIS
   @DF-RHF iter   6:  -246.77871601771645   -1.05091e-05   1.23133e-06 DIIS
   @DF-RHF iter   7:  -246.77871677980460   -7.62088e-07   4.33959e-07 DIIS
   @DF-RHF iter   8:  -246.77871687829560   -9.84910e-08   1.84658e-07 DIIS
   @DF-RHF iter   9:  -246.77871690848582   -3.01902e-08   5.40157e-08 DIIS
   @DF-RHF iter  10:  -246.77871691243757   -3.95175e-09   2.00391e-08 DIIS
   @DF-RHF iter  11:  -246.77871691316346   -7.25890e-10   1.20468e-08 DIIS
   @DF-RHF iter  12:  -246.77871691335210   -1.88635e-10   3.79488e-09 DIIS
  Energy and wave function converged.


  ==> Post-Iterations <==

    Orbital Energies [Eh]
    ---------------------

    Doubly Occupied:                                                      

       1A    -15.567490     2A    -11.276109     3A    -11.275335  
       4A    -11.260663     5A    -11.242663     6A    -11.242597  
       7A     -1.256089     8A     -1.089987     9A     -1.034096  
      10A     -0.859811    11A     -0.855950    12A     -0.722193  
      13A     -0.660689    14A     -0.654667    15A     -0.598924  
      16A     -0.577608    17A     -0.541115    18A     -0.520637  
      19A     -0.419386    20A     -0.384022    21A     -0.348233  

    Virtual:                                                              

      22A      0.020937    23A      0.025727    24A      0.030615  
      25A      0.038818    26A      0.039993    27A      0.053008  
      28A      0.053852    29A      0.057919    30A      0.061723  
      31A      0.070703    32A      0.077185    33A      0.082349  
      34A      0.088984    35A      0.089959    36A      0.094180  
      37A      0.100056    38A      0.100983    39A      0.105624  
      40A      0.106253    41A      0.110808    42A      0.111279  
      43A      0.115052    44A      0.116800    45A      0.118954  
      46A      0.124868    47A      0.126502    48A      0.137193  
      49A      0.139836    50A      0.140633    51A      0.144210  
      52A      0.145093    53A      0.147402    54A      0.148929  
      55A      0.157612    56A      0.159545    57A      0.167469  
      58A      0.171207    59A      0.178721    60A      0.179663  
      61A      0.181882    62A      0.186059    63A      0.193310  
      64A      0.196638    65A      0.197174    66A      0.206888  
      67A      0.215583    68A      0.226438    69A      0.236843  
      70A      0.237314    71A      0.239641    72A      0.253273  
      73A      0.254682    74A      0.256892    75A      0.265600  
      76A      0.268753    77A      0.270805    78A      0.278520  
      79A      0.282344    80A      0.289023    81A      0.293001  
      82A      0.293868    83A      0.306274    84A      0.308131  
      85A      0.308330    86A      0.311450    87A      0.319282  
      88A      0.319815    89A      0.320751    90A      0.327337  
      91A      0.328165    92A      0.332519    93A      0.342029  
      94A      0.345310    95A      0.346248    96A      0.350955  
      97A      0.357383    98A      0.359751    99A      0.364305  
     100A      0.369817   101A      0.373986   102A      0.376212  
     103A      0.380875   104A      0.387526   105A      0.391993  
     106A      0.392583   107A      0.398105   108A      0.398533  
     109A      0.403471   110A      0.410407   111A      0.412877  
     112A      0.417272   113A      0.419597   114A      0.423653  
     115A      0.429813   116A      0.432271   117A      0.435025  
     118A      0.435828   119A      0.439769   120A      0.445537  
     121A      0.446736   122A      0.454042   123A      0.464000  
     124A      0.465006   125A      0.468466   126A      0.475005  
     127A      0.476485   128A      0.480855   129A      0.486386  
     130A      0.493133   131A      0.493349   132A      0.498480  
     133A      0.502074   134A      0.504509   135A      0.516252  
     136A      0.520898   137A      0.522037   138A      0.529112  
     139A      0.533164   140A      0.535800   141A      0.546327  
     142A      0.548801   143A      0.550006   144A      0.557477  
     145A      0.562143   146A      0.569590   147A      0.570713  
     148A      0.583489   149A      0.587192   150A      0.590608  
     151A      0.594998   152A      0.605364   153A      0.609446  
     154A      0.616133   155A      0.617970   156A      0.625668  
     157A      0.632172   158A      0.638715   159A      0.639364  
     160A      0.643453   161A      0.652670   162A      0.655011  
     163A      0.656104   164A      0.666376   165A      0.671264  
     166A      0.675057   167A      0.676803   168A      0.686970  
     169A      0.691159   170A      0.699539   171A      0.709093  
     172A      0.710998   173A      0.711731   174A      0.714799  
     175A      0.726955   176A      0.730900   177A      0.740086  
     178A      0.746892   179A      0.748300   180A      0.749182  
     181A      0.753534   182A      0.761534   183A      0.764615  
     184A      0.777595   185A      0.778070   186A      0.780296  
     187A      0.795808   188A      0.799195   189A      0.802317  
     190A      0.812012   191A      0.814483   192A      0.818179  
     193A      0.821341   194A      0.835545   195A      0.836313  
     196A      0.836851   197A      0.850002   198A      0.851252  
     199A      0.857315   200A      0.860407   201A      0.868109  
     202A      0.872333   203A      0.882689   204A      0.887418  
     205A      0.890588   206A      0.901013   207A      0.902706  
     208A      0.904853   209A      0.907404   210A      0.920940  
     211A      0.923204   212A      0.924600   213A      0.932599  
     214A      0.941641   215A      0.945356   216A      0.946640  
     217A      0.959862   218A      0.969536   219A      0.976425  
     220A      0.978702   221A      0.980751   222A      0.994972  
     223A      0.999426   224A      0.999585   225A      1.010060  
     226A      1.011993   227A      1.013856   228A      1.026314  
     229A      1.032976   230A      1.034111   231A      1.035307  
     232A      1.039710   233A      1.041913   234A      1.047316  
     235A      1.051601   236A      1.057721   237A      1.064537  
     238A      1.071538   239A      1.079241   240A      1.081976  
     241A      1.085744   242A      1.090244   243A      1.093001  
     244A      1.095469   245A      1.100101   246A      1.106065  
     247A      1.114923   248A      1.126554   249A      1.131740  
     250A      1.144452   251A      1.147257   252A      1.150074  
     253A      1.152053   254A      1.162539   255A      1.167246  
     256A      1.177257   257A      1.184469   258A      1.185961  
     259A      1.187245   260A      1.193256   261A      1.195390  
     262A      1.200752   263A      1.202537   264A      1.204824  
     265A      1.212094   266A      1.214977   267A      1.223910  
     268A      1.226281   269A      1.227610   270A      1.233031  
     271A      1.237034   272A      1.243342   273A      1.254752  
     274A      1.257064   275A      1.268974   276A      1.269445  
     277A      1.281696   278A      1.284234   279A      1.290028  
     280A      1.295726   281A      1.300195   282A      1.307745  
     283A      1.308654   284A      1.319543   285A      1.332617  
     286A      1.335813   287A      1.337593   288A      1.340325  
     289A      1.363958   290A      1.367638   291A      1.369069  
     292A      1.379505   293A      1.381995   294A      1.387247  
     295A      1.393725   296A      1.396339   297A      1.398222  
     298A      1.414571   299A      1.423859   300A      1.429907  
     301A      1.435673   302A      1.447493   303A      1.449707  
     304A      1.462190   305A      1.467437   306A      1.467749  
     307A      1.470412   308A      1.481236   309A      1.488456  
     310A      1.495043   311A      1.501983   312A      1.512958  
     313A      1.514814   314A      1.522342   315A      1.528529  
     316A      1.530676   317A      1.548863   318A      1.560603  
     319A      1.560757   320A      1.566052   321A      1.570072  
     322A      1.578353   323A      1.584290   324A      1.591822  
     325A      1.605850   326A      1.611603   327A      1.613150  
     328A      1.615949   329A      1.631181   330A      1.632714  
     331A      1.653095   332A      1.661831   333A      1.668660  
     334A      1.672524   335A      1.674748   336A      1.684998  
     337A      1.689311   338A      1.703744   339A      1.706274  
     340A      1.714751   341A      1.717303   342A      1.723365  
     343A      1.730246   344A      1.745495   345A      1.746401  
     346A      1.761527   347A      1.767733   348A      1.775587  
     349A      1.780969   350A      1.786410   351A      1.792382  
     352A      1.794245   353A      1.815456   354A      1.825783  
     355A      1.829649   356A      1.834492   357A      1.853574  
     358A      1.857271   359A      1.862179   360A      1.873776  
     361A      1.892578   362A      1.900485   363A      1.906308  
     364A      1.919968   365A      1.926640   366A      1.928059  
     367A      1.932883   368A      1.951019   369A      1.960872  
     370A      1.971686   371A      1.980888   372A      1.984590  
     373A      1.987605   374A      1.995073   375A      1.999874  
     376A      2.011705   377A      2.023609   378A      2.033339  
     379A      2.038670   380A      2.045008   381A      2.048907  
     382A      2.055537   383A      2.076235   384A      2.080018  
     385A      2.092293   386A      2.108511   387A      2.109182  
     388A      2.126084   389A      2.127392   390A      2.134901  
     391A      2.140060   392A      2.152981   393A      2.160593  
     394A      2.177509   395A      2.178053   396A      2.192802  
     397A      2.208331   398A      2.218343   399A      2.221994  
     400A      2.224196   401A      2.231227   402A      2.235983  
     403A      2.250474   404A      2.252708   405A      2.255232  
     406A      2.259192   407A      2.262217   408A      2.272441  
     409A      2.286759   410A      2.296608   411A      2.308223  
     412A      2.315065   413A      2.317095   414A      2.327326  
     415A      2.344210   416A      2.350442   417A      2.359518  
     418A      2.369676   419A      2.373684   420A      2.389319  
     421A      2.396762   422A      2.410101   423A      2.416352  
     424A      2.424336   425A      2.429089   426A      2.441767  
     427A      2.449739   428A      2.456141   429A      2.462042  
     430A      2.469802   431A      2.500956   432A      2.505062  
     433A      2.511879   434A      2.522381   435A      2.534615  
     436A      2.540885   437A      2.555077   438A      2.556443  
     439A      2.575773   440A      2.591007   441A      2.601157  
     442A      2.612837   443A      2.619098   444A      2.626038  
     445A      2.630951   446A      2.665499   447A      2.670067  
     448A      2.684619   449A      2.700832   450A      2.708933  
     451A      2.737592   452A      2.764553   453A      2.767059  
     454A      2.775018   455A      2.776977   456A      2.792393  
     457A      2.821022   458A      2.826144   459A      2.850766  
     460A      2.865343   461A      2.870973   462A      2.896891  
     463A      2.915995   464A      2.921341   465A      2.939714  
     466A      2.950522   467A      2.972518   468A      2.996547  
     469A      3.015575   470A      3.035036   471A      3.039048  
     472A      3.046349   473A      3.056325   474A      3.074244  
     475A      3.099892   476A      3.115958   477A      3.125792  
     478A      3.192385   479A      3.193445   480A      3.223405  
     481A      3.237587   482A      3.244944   483A      3.282652  
     484A      3.294748   485A      3.314846   486A      3.326806  
     487A      3.339775   488A      3.351229   489A      3.363460  
     490A      3.367427   491A      3.389131   492A      3.401719  
     493A      3.423637   494A      3.450449   495A      3.451827  
     496A      3.463850   497A      3.475021   498A      3.491013  
     499A      3.515076   500A      3.517490   501A      3.540479  
     502A      3.542237   503A      3.544786   504A      3.575343  
     505A      3.609462   506A      3.619847   507A      3.625857  
     508A      3.627258   509A      3.647079   510A      3.648355  
     511A      3.670892   512A      3.691253   513A      3.699924  
     514A      3.705048   515A      3.735436   516A      3.784850  
     517A      3.791109   518A      3.796542   519A      3.810963  
     520A      3.812214   521A      3.830746   522A      3.847943  
     523A      3.899997   524A      3.903568   525A      3.914596  
     526A      3.926309   527A      3.935618   528A      3.941390  
     529A      3.944758   530A      3.966338   531A      3.979599  
     532A      3.983301   533A      3.988913   534A      4.005508  
     535A      4.017120   536A      4.021918   537A      4.034118  
     538A      4.040290   539A      4.051609   540A      4.062483  
     541A      4.077319   542A      4.077544   543A      4.099301  
     544A      4.101596   545A      4.104513   546A      4.116269  
     547A      4.131431   548A      4.135892   549A      4.143435  
     550A      4.148653   551A      4.161323   552A      4.171846  
     553A      4.183877   554A      4.185747   555A      4.196072  
     556A      4.209213   557A      4.217629   558A      4.227093  
     559A      4.239057   560A      4.246617   561A      4.249819  
     562A      4.271229   563A      4.275242   564A      4.282095  
     565A      4.304655   566A      4.308016   567A      4.314742  
     568A      4.323206   569A      4.323349   570A      4.342737  
     571A      4.369593   572A      4.372461   573A      4.376524  
     574A      4.385035   575A      4.395370   576A      4.408402  
     577A      4.419123   578A      4.426273   579A      4.443231  
     580A      4.446686   581A      4.458370   582A      4.470008  
     583A      4.490015   584A      4.494520   585A      4.508461  
     586A      4.513904   587A      4.528179   588A      4.536280  
     589A      4.539734   590A      4.568377   591A      4.570671  
     592A      4.580249   593A      4.607149   594A      4.615615  
     595A      4.628803   596A      4.645950   597A      4.677852  
     598A      4.683444   599A      4.687486   600A      4.695036  
     601A      4.704402   602A      4.715262   603A      4.739399  
     604A      4.763368   605A      4.775091   606A      4.793190  
     607A      4.805548   608A      4.830245   609A      4.845020  
     610A      4.860462   611A      4.883356   612A      4.891105  
     613A      4.915894   614A      4.928803   615A      4.931756  
     616A      4.935222   617A      4.967175   618A      4.976805  
     619A      4.978701   620A      4.982103   621A      4.993905  
     622A      5.012007   623A      5.024592   624A      5.025075  
     625A      5.045312   626A      5.053412   627A      5.062984  
     628A      5.067058   629A      5.072906   630A      5.077210  
     631A      5.086809   632A      5.115428   633A      5.126964  
     634A      5.138697   635A      5.161448   636A      5.162153  
     637A      5.177350   638A      5.189495   639A      5.190330  
     640A      5.198261   641A      5.209486   642A      5.218692  
     643A      5.230977   644A      5.235999   645A      5.237799  
     646A      5.264824   647A      5.269198   648A      5.290695  
     649A      5.310408   650A      5.323116   651A      5.324077  
     652A      5.339417   653A      5.390492   654A      5.396294  
     655A      5.432981   656A      5.444508   657A      5.460218  
     658A      5.462678   659A      5.474869   660A      5.484720  
     661A      5.497330   662A      5.498769   663A      5.507404  
     664A      5.536675   665A      5.548073   666A      5.561087  
     667A      5.588055   668A      5.610522   669A      5.624251  
     670A      5.636516   671A      5.641786   672A      5.646828  
     673A      5.659177   674A      5.692799   675A      5.711268  
     676A      5.712607   677A      5.736406   678A      5.739639  
     679A      5.747585   680A      5.783865   681A      5.791974  
     682A      5.822524   683A      5.827359   684A      5.862203  
     685A      5.890416   686A      5.893248   687A      5.908050  
     688A      5.933527   689A      5.940232   690A      5.963701  
     691A      5.967228   692A      6.006105   693A      6.025802  
     694A      6.067765   695A      6.094526   696A      6.098680  
     697A      6.115426   698A      6.124653   699A      6.144957  
     700A      6.172755   701A      6.218110   702A      6.233906  
     703A      6.238346   704A      6.286337   705A      6.302228  
     706A      6.318672   707A      6.338954   708A      6.349313  
[...]
     961A      6.003662   962A      6.036930   963A      6.045776  
     964A      6.075120   965A      6.084943   966A      6.105672  
     967A      6.114637   968A      6.133129   969A      6.136848  
     970A      6.137662   971A      6.153915   972A      6.154879  
     973A      6.156451   974A      6.191610   975A      6.203098  
     976A      6.206345   977A      6.211751   978A      6.220910  
     979A      6.226553   980A      6.233533   981A      6.234482  
     982A      6.263853   983A      6.264447   984A      6.279596  
     985A      6.281718   986A      6.289858   987A      6.296862  
     988A      6.304579   989A      6.334008   990A      6.341073  
     991A      6.366727   992A      6.416798   993A      6.420611  
     994A      6.422562   995A      6.450843   996A      6.465747  
     997A      6.487372   998A      6.492535   999A      6.506703  
    1000A      6.512058  1001A      6.520098  1002A      6.547188  
    1003A      6.551798  1004A      6.579139  1005A      6.596466  
    1006A      6.600899  1007A      6.606955  1008A      6.620547  
    1009A      6.625921  1010A      6.635093  1011A      6.635966  
    1012A      6.647967  1013A      6.652557  1014A      6.663377  
    1015A      6.664713  1016A      6.676755  1017A      6.680633  
    1018A      6.689210  1019A      6.697786  1020A      6.704060  
    1021A      6.709330  1022A      6.730874  1023A      6.745587  
    1024A      6.749544  1025A      6.761725  1026A      6.768873  
    1027A      6.771182  1028A      6.773178  1029A      6.787362  
    1030A      6.794199  1031A      6.795808  1032A      6.805266  
    1033A      6.821957  1034A      6.848510  1035A      6.855334  
    1036A      6.861687  1037A      6.872479  1038A      6.876297  
    1039A      6.891503  1040A      6.893516  1041A      6.894106  
    1042A      6.903153  1043A      6.907844  1044A      6.910492  
    1045A      6.922204  1046A      6.941725  1047A      6.947302  
    1048A      6.982157  1049A      6.988429  1050A      6.995987  
    1051A      6.999516  1052A      7.007033  1053A      7.009248  
    1054A      7.030035  1055A      7.032669  1056A      7.050229  
    1057A      7.061475  1058A      7.061611  1059A      7.066680  
    1060A      7.068379  1061A      7.073298  1062A      7.073428  
    1063A      7.078195  1064A      7.084832  1065A      7.094408  
    1066A      7.096405  1067A      7.102282  1068A      7.106464  
    1069A      7.115376  1070A      7.129074  1071A      7.145462  
    1072A      7.159266  1073A      7.171219  1074A      7.172214  
    1075A      7.178343  1076A      7.182157  1077A      7.206978  
    1078A      7.209401  1079A      7.213217  1080A      7.229171  
    1081A      7.231150  1082A      7.236554  1083A      7.252710  
    1084A      7.269791  1085A      7.277488  1086A      7.294900  
    1087A      7.306879  1088A      7.309009  1089A      7.310561  
    1090A      7.318578  1091A      7.331370  1092A      7.344491  
    1093A      7.347439  1094A      7.360834  1095A      7.363823  
    1096A      7.372822  1097A      7.384776  1098A      7.387451  
    1099A      7.406571  1100A      7.420742  1101A      7.434597  
    1102A      7.442240  1103A      7.443379  1104A      7.452122  
    1105A      7.464682  1106A      7.471706  1107A      7.482372  
    1108A      7.483523  1109A      7.501061  1110A      7.504223  
    1111A      7.508462  1112A      7.527262  1113A      7.532689  
    1114A      7.550958  1115A      7.576473  1116A      7.583203  
    1117A      7.597159  1118A      7.598970  1119A      7.610119  
    1120A      7.614628  1121A      7.631291  1122A      7.678113  
    1123A      7.679969  1124A      7.683270  1125A      7.693180  
    1126A      7.713076  1127A      7.715634  1128A      7.734054  
    1129A      7.750383  1130A      7.755766  1131A      7.780537  
    1132A      7.793188  1133A      7.794795  1134A      7.808080  
    1135A      7.819951  1136A      7.831205  1137A      7.835608  
    1138A      7.836325  1139A      7.845156  1140A      7.847730  
    1141A      7.864066  1142A      7.878243  1143A      7.902910  
    1144A      7.904278  1145A      7.907181  1146A      7.919859  
    1147A      7.931824  1148A      7.932382  1149A      7.953991  
    1150A      7.972551  1151A      8.000755  1152A      8.026645  
    1153A      8.032850  1154A      8.059118  1155A      8.065245  
    1156A      8.079290  1157A      8.093900  1158A      8.096504  
    1159A      8.097472  1160A      8.097809  1161A      8.117137  
    1162A      8.133006  1163A      8.144480  1164A      8.149869  
    1165A      8.162971  1166A      8.168625  1167A      8.174498  
    1168A      8.184815  1169A      8.192404  1170A      8.202144  
    1171A      8.216000  1172A      8.251371  1173A      8.274290  
    1174A      8.274525  1175A      8.288215  1176A      8.300778  
    1177A      8.337164  1178A      8.344978  1179A      8.351014  
    1180A      8.379058  1181A      8.411139  1182A      8.411302  
    1183A      8.429961  1184A      8.435653  1185A      8.437028  
    1186A      8.514156  1187A      8.514317  1188A      8.520672  
    1189A      8.563674  1190A      8.576628  1191A      8.580650  
    1192A      8.584961  1193A      8.614407  1194A      8.626505  
    1195A      8.661751  1196A      8.665251  1197A      8.667259  
    1198A      8.696596  1199A      8.705072  1200A      8.707483  
    1201A      8.721751  1202A      8.723806  1203A      8.752119  
    1204A      8.768113  1205A      8.770191  1206A      8.772727  
    1207A      8.801702  1208A      8.820055  1209A      8.844498  
    1210A      8.857118  1211A      8.863506  1212A      8.888958  
    1213A      8.890884  1214A      8.900467  1215A      8.901376  
    1216A      8.915430  1217A      8.934011  1218A      8.942164  
    1219A      8.943489  1220A      8.969774  1221A      8.972888  
    1222A      8.983423  1223A      8.986306  1224A      8.999143  
    1225A      9.005903  1226A      9.029441  1227A      9.033649  
    1228A      9.046980  1229A      9.074954  1230A      9.078942  
    1231A      9.088692  1232A      9.094203  1233A      9.109859  
    1234A      9.119175  1235A      9.120324  1236A      9.154159  
    1237A      9.160380  1238A      9.172247  1239A      9.180636  
    1240A      9.224680  1241A      9.228241  1242A      9.249790  
    1243A      9.266068  1244A      9.294210  1245A      9.294562  
    1246A      9.296102  1247A      9.314650  1248A      9.323661  
    1249A      9.327208  1250A      9.352116  1251A      9.361828  
    1252A      9.375754  1253A      9.377954  1254A      9.385427  
    1255A      9.391580  1256A      9.447809  1257A      9.472822  
    1258A      9.492569  1259A      9.496950  1260A      9.499973  
    1261A      9.506569  1262A      9.509860  1263A      9.531037  
    1264A      9.564329  1265A      9.578824  1266A      9.583410  
    1267A      9.584243  1268A      9.596723  1269A      9.617643  
    1270A      9.618536  1271A      9.623763  1272A      9.632035  
    1273A      9.650229  1274A      9.672100  1275A      9.679990  
    1276A      9.686755  1277A      9.694693  1278A      9.738930  
    1279A      9.742255  1280A      9.743561  1281A      9.766465  
    1282A      9.771233  1283A      9.788847  1284A      9.800252  
    1285A      9.804106  1286A      9.850655  1287A      9.852353  
    1288A      9.866852  1289A      9.867968  1290A      9.925327  
    1291A      9.936212  1292A      9.942454  1293A      9.945558  
    1294A      9.950664  1295A      9.985585  1296A      9.985999  
    1297A      9.991548  1298A     10.046630  1299A     10.047197  
    1300A     10.048219  1301A     10.053396  1302A     10.060688  
    1303A     10.083374  1304A     10.112388  1305A     10.125278  
    1306A     10.132986  1307A     10.142377  1308A     10.175391  
    1309A     10.187892  1310A     10.207818  1311A     10.211820  
    1312A     10.216956  1313A     10.252350  1314A     10.261400  
    1315A     10.306513  1316A     10.306637  1317A     10.316533  
    1318A     10.333902  1319A     10.378317  1320A     10.391593  
    1321A     10.397489  1322A     10.399833  1323A     10.409191  
    1324A     10.420190  1325A     10.433952  1326A     10.450618  
    1327A     10.462635  1328A     10.473521  1329A     10.497438  
    1330A     10.517787  1331A     10.531538  1332A     10.552271  
    1333A     10.576091  1334A     10.582589  1335A     10.600277  
    1336A     10.604771  1337A     10.608953  1338A     10.617525  
    1339A     10.630787  1340A     10.647279  1341A     10.672214  
    1342A     10.692928  1343A     10.748827  1344A     10.766748  
    1345A     10.781209  1346A     10.797055  1347A     10.803342  
    1348A     10.812635  1349A     10.815517  1350A     10.832763  
    1351A     10.836149  1352A     10.846423  1353A     10.890981  
    1354A     10.904160  1355A     10.922059  1356A     10.954653  
    1357A     10.965041  1358A     11.007768  1359A     11.072966  
    1360A     11.129926  1361A     11.192627  1362A     11.205399  
    1363A     11.215420  1364A     11.230613  1365A     11.259952  
    1366A     11.292998  1367A     11.304691  1368A     11.358103  
    1369A     11.402996  1370A     11.413227  1371A     11.415195  
    1372A     11.495018  1373A     11.520425  1374A     11.545895  
    1375A     11.547466  1376A     11.615606  1377A     11.634508  
    1378A     11.685305  1379A     11.712773  1380A     11.748794  
    1381A     11.749459  1382A     11.779653  1383A     11.826177  
    1384A     11.833311  1385A     11.878353  1386A     12.022839  
    1387A     12.181767  1388A     12.252183  1389A     12.265841  
    1390A     12.342945  1391A     12.554652  1392A     12.573684  
    1393A     12.651598  1394A     12.821788  1395A     12.934649  
    1396A     13.011389  1397A     13.065473  1398A     13.214244  
    1399A     13.337145  1400A     13.364072  1401A     13.443020  
    1402A     13.447633  1403A     13.474881  1404A     13.517853  
    1405A     13.684674  1406A     13.717743  1407A     14.133761  
    1408A     14.172542  1409A     26.389779  1410A     26.395730  
    1411A     26.512035  1412A     26.527718  1413A     26.896605  
    1414A     27.026952  1415A     27.120949  1416A     27.126974  
    1417A     27.330795  1418A     27.404375  1419A     34.605245  
    1420A     34.626987  

    Final Occupation by Irrep:
              A 
    DOCC [    42 ]

  @DF-RHF Final Energy:  -493.54397856315995

   => Energetics <=

    Nuclear Repulsion Energy =            606.4113890683971704
    One-Electron Energy =               -1871.1625320167706832
    Two-Electron Energy =                 771.2071643852134457
    Total Energy =                       -493.5439785631599534

Computation Completed


Properties will be evaluated at   0.000000,   0.000000,   0.000000 [a0]

Properties computed using the SCF density matrix

  Nuclear Dipole Moment: [e a0]
     X:     0.0002      Y:    -0.0010      Z:    -0.0355

  Electronic Dipole Moment: [e a0]
     X:     0.0003      Y:     0.0006      Z:     0.0227

  Dipole Moment: [e a0]
     X:     0.0005      Y:    -0.0004      Z:    -0.0129     Total:     0.0129

  Dipole Moment: [D]
     X:     0.0013      Y:    -0.0011      Z:    -0.0327     Total:     0.0328


*** tstop() called on node43.bme.utexas.edu at Sat Apr 11 19:04:59 2020
Module time:
	user time   =    2587.72 seconds =      43.13 minutes
	system time =      21.74 seconds =       0.36 minutes
	total time  =        344 seconds =       5.73 minutes
Total time:
	user time   =    9986.13 seconds =     166.44 minutes
	system time =     118.18 seconds =       1.97 minutes
	total time  =       1398 seconds =      23.30 minutes

*** tstart() called on node43.bme.utexas.edu
*** at Sat Apr 11 19:04:59 2020


  //>>>>>>>>>>>>>>>>>>>>>>>>>>>>>>>>>>>//
  //               DFMP2               //
  //<<<<<<<<<<<<<<<<<<<<<<<<<<<<<<<<<<<//

   => Loading Basis Set <=

    Name: (AUG-CC-PVQZ AUX)
    Role: RIFIT
    Keyword: DF_BASIS_MP2
    atoms 1, 12                              entry N          line   258 file /home/liuchw/anaconda3/envs/psi4env/share/psi4/basis/aug-cc-pvqz-ri.gbs 
    atoms 2, 4, 6, 8, 10, 13, 15, 17, 19, 21 entry C          line   184 file /home/liuchw/anaconda3/envs/psi4env/share/psi4/basis/aug-cc-pvqz-ri.gbs 
    atoms 3, 5, 7, 9, 11, 14, 16, 18, 20, 22 entry H          line    30 file /home/liuchw/anaconda3/envs/psi4env/share/psi4/basis/aug-cc-pvqz-ri.gbs 

	 --------------------------------------------------------
	                          DF-MP2                         
	      2nd-Order Density-Fitted Moller-Plesset Theory     
	              RMP2 Wavefunction,   8 Threads             
	                                                         
	        Rob Parrish, Justin Turney, Andy Simmonett,      
	           Ed Hohenstein, and C. David Sherrill          
	 --------------------------------------------------------

   => Auxiliary Basis Set <=

  Basis Set: (AUG-CC-PVQZ AUX)
    Blend: AUG-CC-PVQZ-RI
    Number of shells: 632
    Number of basis function: 2816
    Number of Cartesian functions: 3894
    Spherical Harmonics?: true
    Max angular momentum: 5

	 --------------------------------------------------------
	                 NBF =  1420, NAUX =  2816
	 --------------------------------------------------------
	   CLASS    FOCC     OCC    AOCC    AVIR     VIR    FVIR
	   PAIRS       0      42      42    1378    1378       0
	 --------------------------------------------------------

	-----------------------------------------------------------
	 ==================> DF-MP2 Energies <==================== 
	-----------------------------------------------------------
	 Reference Energy          =    -493.5439785631599534 [Eh]
	 Singles Energy            =      -0.0000000000000000 [Eh]
	 Same-Spin Energy          =      -0.5786363865144535 [Eh]
	 Opposite-Spin Energy      =      -1.8968005605990803 [Eh]
	 Correlation Energy        =      -2.4754369471135336 [Eh]
	 Total Energy              =    -496.0194155102734612 [Eh]
	-----------------------------------------------------------
	 ================> DF-SCS-MP2 Energies <================== 
	-----------------------------------------------------------
	 SCS Same-Spin Scale       =       0.3333333333333333 [-]
	 SCS Opposite-Spin Scale   =       1.2000000000000000 [-]
	 SCS Same-Spin Energy      =      -0.1928787955048178 [Eh]
	 SCS Opposite-Spin Energy  =      -2.2761606727188961 [Eh]
	 SCS Correlation Energy    =      -2.4690394682237140 [Eh]
	 SCS Total Energy          =    -496.0130180313836945 [Eh]
	-----------------------------------------------------------


*** tstop() called on node43.bme.utexas.edu at Sat Apr 11 19:07:13 2020
Module time:
	user time   =     882.39 seconds =      14.71 minutes
	system time =      10.75 seconds =       0.18 minutes
	total time  =        134 seconds =       2.23 minutes
Total time:
	user time   =   10868.52 seconds =     181.14 minutes
	system time =     128.93 seconds =       2.15 minutes
	total time  =       1532 seconds =      25.53 minutes

  //>>>>>>>>>>>>>>>>>>>>>>>>>>>>>>>>>>>//
  //  CBS Results: mp2/aug-cc-pv[tq]z  //
  //<<<<<<<<<<<<<<<<<<<<<<<<<<<<<<<<<<<//


   ==> HF <==

   HI-zeta (4) Energy:               -493.543978563160


   ==> Helgaker 2-point correlated extrapolation for method: MP2 <==

   LO-zeta (3) Energy:               -495.757092178577
   HI-zeta (4) Energy:               -496.019415510273
   Alpha (exponent) Value:             3.000000000000
   Extrapolated Energy:              -496.210840644214

   @Extrapolated MP2/(T,Q):          -496.210840644214



   ==> Helgaker 2-point correlated extrapolation for method: HF <==

   LO-zeta (3) Energy:               -493.515970723094
   HI-zeta (4) Energy:               -493.543978563160
   Alpha (exponent) Value:             3.000000000000
   Extrapolated Energy:              -493.564416716722

   @Extrapolated HF/(T,Q):           -493.564416716722


   ==> Components <==

  ---------------------------------------------------------------------------------------------------------
                          Method / Basis                      Rqd      Energy [Eh]   Variable
  ---------------------------------------------------------------------------------------------------------
                              hf / aug-cc-pvtz                  *    -493.51597072   HF TOTAL ENERGY
                             mp2 / aug-cc-pvtz                  *    -495.75709218   MP2 TOTAL ENERGY
                              hf / aug-cc-pvqz                  *    -493.54397856   HF TOTAL ENERGY
                             mp2 / aug-cc-pvqz                  *    -496.01941551   MP2 TOTAL ENERGY
  ---------------------------------------------------------------------------------------------------------

   ==> Stages <==

  ---------------------------------------------------------------------------------------------------------
      Stage               Method / Basis                       Wt      Energy [Eh]   Scheme
  ---------------------------------------------------------------------------------------------------------
        scf                   hf / aug-cc-pvqz                  1    -493.54397856   xtpl_highest_1
       corl                  mp2 / aug-cc-pv[tq]z               1    -496.21084064   corl_xtpl_helgaker_2
       corl                   hf / aug-cc-pv[tq]z              -1    -493.56441672   corl_xtpl_helgaker_2
  ---------------------------------------------------------------------------------------------------------

   ==> CBS <==

  ---------------------------------------------------------------------------------------------------------
      Stage               Method / Basis                               Energy [Eh]   Scheme
  ---------------------------------------------------------------------------------------------------------
        scf                   hf / aug-cc-pvqz                       -493.54397856   xtpl_highest_1
       corl                  mp2 / aug-cc-pv[tq]z                      -2.64642393   corl_xtpl_helgaker_2
      total                  CBS                                     -496.19040249   
  ---------------------------------------------------------------------------------------------------------
   => Loading Basis Set <=

    Name: DEF2-SVP
    Role: ORBITAL
    Keyword: BASIS
    atoms 1, 12                              entry N          line   110 file /home/liuchw/anaconda3/envs/psi4env/share/psi4/basis/def2-svp.gbs 
    atoms 2, 4, 6, 8, 10, 13, 15, 17, 19, 21 entry C          line    90 file /home/liuchw/anaconda3/envs/psi4env/share/psi4/basis/def2-svp.gbs 
    atoms 3, 5, 7, 9, 11, 14, 16, 18, 20, 22 entry H          line    15 file /home/liuchw/anaconda3/envs/psi4env/share/psi4/basis/def2-svp.gbs 


       N-Body: Complex Energy (fragments = (1, 2), basis = (1, 2):  -496.19040249065205)

   ==> N-Body: Counterpoise Corrected (CP) energies <==

   n-Body     Total Energy [Eh]       I.E. [kcal/mol]      Delta [kcal/mol]
        1     -496.212290031798        0.000000000000        0.000000000000
        2     -496.190749949243       13.516605869333       13.516605869333

   => Loading Basis Set <=

    Name: DEF2-SVP
    Role: ORBITAL
    Keyword: BASIS
    atoms 1, 12                              entry N          line   110 file /home/liuchw/anaconda3/envs/psi4env/share/psi4/basis/def2-svp.gbs 
    atoms 2, 4, 6, 8, 10, 13, 15, 17, 19, 21 entry C          line    90 file /home/liuchw/anaconda3/envs/psi4env/share/psi4/basis/def2-svp.gbs 
    atoms 3, 5, 7, 9, 11, 14, 16, 18, 20, 22 entry H          line    15 file /home/liuchw/anaconda3/envs/psi4env/share/psi4/basis/def2-svp.gbs 


    Psi4 stopped on: Saturday, 11 April 2020 07:07PM
    Psi4 wall time for execution: 0:25:33.37

*** Psi4 exiting successfully. Buy a developer a beer!
