
    -----------------------------------------------------------------------
          Psi4: An Open-Source Ab Initio Electronic Structure Package
                               Psi4 1.4a2.dev224 

                         Git: Rev {master} e453b16 


    R. M. Parrish, L. A. Burns, D. G. A. Smith, A. C. Simmonett,
    A. E. DePrince III, E. G. Hohenstein, U. Bozkaya, A. Yu. Sokolov,
    R. Di Remigio, R. M. Richard, J. F. Gonthier, A. M. James,
    H. R. McAlexander, A. Kumar, M. Saitow, X. Wang, B. P. Pritchard,
    P. Verma, H. F. Schaefer III, K. Patkowski, R. A. King, E. F. Valeev,
    F. A. Evangelista, J. M. Turney, T. D. Crawford, and C. D. Sherrill,
    J. Chem. Theory Comput. 13(7) pp 3185--3197 (2017).
    (doi: 10.1021/acs.jctc.7b00174)


                         Additional Contributions by
    P. Kraus, H. Kruse, M. H. Lechner, M. C. Schieber, R. A. Shaw,
    A. Alenaizan, R. Galvelis, Z. L. Glick, S. Lehtola, and J. P. Misiewicz

    -----------------------------------------------------------------------


    Psi4 started on: Saturday, 11 April 2020 06:45PM

    Process ID: 6407
    Host:       node37.bme.utexas.edu
    PSIDATADIR: /home/liuchw/anaconda3/envs/psi4env/share/psi4
    Memory:     500.0 MiB
    Threads:    8
    
  ==> Input File <==

--------------------------------------------------------------------------
#Generated by lconvert.py for cbs job

memory 40 GB

molecule  {
0 1
  N       -0.9412110     0.7900410     0.0117190
  C       -0.9227550    -0.5523780     0.0353790
  H        0.0572410    -1.0155880     0.0513550
  C       -2.0765190    -1.3330180     0.0392900
  H       -1.9965290    -2.4105860     0.0588770
  C       -3.3163130    -0.7033400     0.0175990
  H       -4.2315750    -1.2790840     0.0197940
  C       -3.3488950     0.6870190    -0.0070860
  H       -4.2854440     1.2261050    -0.0246590
  C       -2.1431040     1.3826340    -0.0088900
  H       -2.1381000     2.4656530    -0.0277830
--
0 1
  N        2.7162460    -0.9451690     0.0422720
  C        3.9180250    -1.5383450     0.0443520
  H        3.9128010    -2.6213070     0.0662410
  C        5.1239610    -0.8433860     0.0203500
  H        6.0603990    -1.3829210     0.0234440
  C        5.0916430     0.5469180    -0.0073960
  H        6.0070180     1.1221690    -0.0265780
  C        3.8519630     1.1772040    -0.0098730
  H        3.7721900     2.2547630    -0.0309620
  C        2.6980490     0.3971950     0.0153200
  H        1.7181390     0.8608570     0.0136570
units angstrom
no_reorient
symmetry c1
}

set {
scf_type DF
mp2_type DF
e_convergence 7
reference rhf
}

energy('mp2/aug-cc-pv[tq]z', bsse_type='cp')
--------------------------------------------------------------------------

  Memory set to  37.253 GiB by Python driver.

Scratch directory: /scratch//


   ===> N-Body Interaction Abacus <===
        BSSE Treatment:                     cp
        Number of 1-body computations:     4
        Number of 2-body computations:     1

   ==> N-Body: Now computing 1-body complexes <==


       N-Body: Computing complex (1/4) with fragments (2,) in the basis of fragments (2,).


Scratch directory: /scratch//

  //>>>>>>>>>>>>>>>>>>>>>>>>>>>>>>>>>>>//
  //   CBS Setup: mp2/aug-cc-pv[tq]z   //
  //<<<<<<<<<<<<<<<<<<<<<<<<<<<<<<<<<<<//

    Naive listing of computations required.
             hf / aug-cc-pvqz              for  HF TOTAL ENERGY
            mp2 / aug-cc-pvtz              for  MP2 TOTAL ENERGY
            mp2 / aug-cc-pvqz              for  MP2 TOTAL ENERGY
             hf / aug-cc-pvtz              for  HF TOTAL ENERGY
             hf / aug-cc-pvqz              for  HF TOTAL ENERGY

    Enlightened listing of computations required.
            mp2 / aug-cc-pvtz              for  MP2 TOTAL ENERGY
            mp2 / aug-cc-pvqz              for  MP2 TOTAL ENERGY

    Full listing of computations to be obtained (required and bonus).
             hf / aug-cc-pvtz              for  HF TOTAL ENERGY
            mp2 / aug-cc-pvtz              for  MP2 TOTAL ENERGY
             hf / aug-cc-pvqz              for  HF TOTAL ENERGY
            mp2 / aug-cc-pvqz              for  MP2 TOTAL ENERGY

  //>>>>>>>>>>>>>>>>>>>>>>>>>>>>>>>>>>>>//
  // CBS Computation: MP2 / AUG-CC-PVTZ //
  //<<<<<<<<<<<<<<<<<<<<<<<<<<<<<<<<<<<<//


Scratch directory: /scratch//

*** tstart() called on node37.bme.utexas.edu
*** at Sat Apr 11 18:46:00 2020

   => Loading Basis Set <=

    Name: AUG-CC-PVTZ
    Role: ORBITAL
    Keyword: BASIS
    atoms 1              entry N          line   285 file /home/liuchw/anaconda3/envs/psi4env/share/psi4/basis/aug-cc-pvtz.gbs 
    atoms 2, 4, 6, 8, 10 entry C          line   239 file /home/liuchw/anaconda3/envs/psi4env/share/psi4/basis/aug-cc-pvtz.gbs 
    atoms 3, 5, 7, 9, 11 entry H          line    40 file /home/liuchw/anaconda3/envs/psi4env/share/psi4/basis/aug-cc-pvtz.gbs 


         ---------------------------------------------------------
                                   SCF
               by Justin Turney, Rob Parrish, Andy Simmonett
                          and Daniel G. A. Smith
                              RHF Reference
                        8 Threads,  38146 MiB Core
         ---------------------------------------------------------

  ==> Geometry <==

    Molecular point group: c1
    Full point group: C1

    Geometry (in Angstrom), charge = 0, multiplicity = 1:

       Center              X                  Y                   Z               Mass       
    ------------   -----------------  -----------------  -----------------  -----------------
         N            1.828655548138    -0.867284812554     0.026148135185    14.003074004430
         C            3.030434548138    -1.460460812554     0.028228135185    12.000000000000
         H            3.025210548138    -2.543422812554     0.050117135185     1.007825032230
         C            4.236370548138    -0.765501812554     0.004226135185    12.000000000000
         H            5.172808548138    -1.305036812554     0.007320135185     1.007825032230
         C            4.204052548138     0.624802187446    -0.023519864815    12.000000000000
         H            5.119427548138     1.200053187446    -0.042701864815     1.007825032230
         C            2.964372548138     1.255088187446    -0.025996864815    12.000000000000
         H            2.884599548138     2.332647187446    -0.047085864815     1.007825032230
         C            1.810458548138     0.475079187446    -0.000803864815    12.000000000000
         H            0.830548548138     0.938741187446    -0.002466864815     1.007825032230

  Running in c1 symmetry.

  Rotational constants: A =      0.19969  B =      0.02102  C =      0.01902 [cm^-1]
  Rotational constants: A =   5986.55471  B =    630.07771  C =    570.08382 [MHz]
  Nuclear repulsion =  206.168603443313430

  Charge       = 0
  Multiplicity = 1
  Electrons    = 42
  Nalpha       = 21
  Nbeta        = 21

  ==> Algorithm <==

  SCF Algorithm Type is DF.
  DIIS enabled.
  MOM disabled.
  Fractional occupation disabled.
  Guess Type is SAD.
  Energy threshold   = 1.00e-07
  Density threshold  = 1.00e-08
  Integral threshold = 0.00e+00

  ==> Primary Basis <==

  Basis Set: AUG-CC-PVTZ
    Blend: AUG-CC-PVTZ
    Number of shells: 129
    Number of basis function: 391
    Number of Cartesian functions: 455
    Spherical Harmonics?: true
    Max angular momentum: 3

   => Loading Basis Set <=

    Name: (AUG-CC-PVTZ AUX)
    Role: JKFIT
    Keyword: DF_BASIS_SCF
    atoms 1              entry N          line   224 file /home/liuchw/anaconda3/envs/psi4env/share/psi4/basis/aug-cc-pvtz-jkfit.gbs 
    atoms 2, 4, 6, 8, 10 entry C          line   162 file /home/liuchw/anaconda3/envs/psi4env/share/psi4/basis/aug-cc-pvtz-jkfit.gbs 
    atoms 3, 5, 7, 9, 11 entry H          line    70 file /home/liuchw/anaconda3/envs/psi4env/share/psi4/basis/aug-cc-pvtz-jkfit.gbs 

  ==> Pre-Iterations <==

   -------------------------------------------------------
    Irrep   Nso     Nmo     Nalpha   Nbeta   Ndocc  Nsocc
   -------------------------------------------------------
     A        391     391       0       0       0       0
   -------------------------------------------------------
    Total     391     391      21      21      21       0
   -------------------------------------------------------

  ==> Integral Setup <==

  DFHelper Memory: AOs need 1.009 GiB; user supplied 27.940 GiB. Using in-core AOs.

  ==> MemDFJK: Density-Fitted J/K Matrices <==

    J tasked:                   Yes
    K tasked:                   Yes
    wK tasked:                   No
    OpenMP threads:               8
    Memory [MiB]:             28610
    Algorithm:                 Core
    Schwarz Cutoff:           1E-12
    Mask sparsity (%):       0.9131
    Fitting Condition:        1E-10

   => Auxiliary Basis Set <=

  Basis Set: (AUG-CC-PVTZ AUX)
    Blend: AUG-CC-PVTZ-JKFIT
    Number of shells: 250
    Number of basis function: 854
    Number of Cartesian functions: 1061
    Spherical Harmonics?: true
    Max angular momentum: 4

  Minimum eigenvalue in the overlap matrix is 2.3316993291E-06.
  Using Symmetric Orthogonalization.

  SCF Guess: Superposition of Atomic Densities via on-the-fly atomic UHF.

  ==> Iterations <==

                           Total Energy        Delta E     RMS |[F,P]|

   @DF-RHF iter SAD:  -246.15178732990648   -2.46152e+02   0.00000e+00 
   @DF-RHF iter   1:  -246.63299538734606   -4.81208e-01   1.26123e-03 DIIS
   @DF-RHF iter   2:  -246.75301568546161   -1.20020e-01   5.78972e-04 DIIS
   @DF-RHF iter   3:  -246.77705001105826   -2.40343e-02   1.11846e-04 DIIS
   @DF-RHF iter   4:  -246.77843234858364   -1.38234e-03   3.26354e-05 DIIS
   @DF-RHF iter   5:  -246.77851190010401   -7.95515e-05   1.07059e-05 DIIS
   @DF-RHF iter   6:  -246.77852238284706   -1.04827e-05   2.45949e-06 DIIS
   @DF-RHF iter   7:  -246.77852314256123   -7.59714e-07   8.67168e-07 DIIS
   @DF-RHF iter   8:  -246.77852324075559   -9.81944e-08   3.68265e-07 DIIS
   @DF-RHF iter   9:  -246.77852327073023   -2.99746e-08   1.07556e-07 DIIS
   @DF-RHF iter  10:  -246.77852327463964   -3.90941e-09   3.99185e-08 DIIS
   @DF-RHF iter  11:  -246.77852327535845   -7.18813e-10   2.40095e-08 DIIS
   @DF-RHF iter  12:  -246.77852327554632   -1.87867e-10   7.61210e-09 DIIS
  Energy and wave function converged.


  ==> Post-Iterations <==

    Orbital Energies [Eh]
    ---------------------

    Doubly Occupied:                                                      

       1A    -15.567495     2A    -11.276119     3A    -11.275347  
       4A    -11.260668     5A    -11.242682     6A    -11.242610  
       7A     -1.256100     8A     -1.089996     9A     -1.034109  
      10A     -0.859821    11A     -0.855964    12A     -0.722202  
      13A     -0.660700    14A     -0.654678    15A     -0.598938  
      16A     -0.577617    17A     -0.541117    18A     -0.520652  
      19A     -0.419379    20A     -0.384032    21A     -0.348241  

    Virtual:                                                              

      22A      0.026133    23A      0.033276    24A      0.037751  
      25A      0.048793    26A      0.053333    27A      0.077857  
      28A      0.090958    29A      0.100291    30A      0.101999  
      31A      0.104035    32A      0.108711    33A      0.109274  
      34A      0.110362    35A      0.116596    36A      0.118724  
      37A      0.129016    38A      0.130957    39A      0.141801  
      40A      0.148429    41A      0.150831    42A      0.152082  
      43A      0.157329    44A      0.158481    45A      0.196813  
      46A      0.223460    47A      0.241055    48A      0.242687  
      49A      0.243729    50A      0.254313    51A      0.256647  
      52A      0.269944    53A      0.272347    54A      0.285193  
      55A      0.291308    56A      0.292327    57A      0.303982  
      58A      0.306033    59A      0.321956    60A      0.326911  
      61A      0.334258    62A      0.339731    63A      0.341470  
      64A      0.352301    65A      0.354062    66A      0.373524  
      67A      0.384758    68A      0.400188    69A      0.409375  
      70A      0.419567    71A      0.428989    72A      0.432831  
      73A      0.432973    74A      0.439595    75A      0.441385  
      76A      0.451601    77A      0.460254    78A      0.464787  
      79A      0.471167    80A      0.475834    81A      0.480335  
      82A      0.490548    83A      0.493909    84A      0.496938  
      85A      0.510312    86A      0.523252    87A      0.535183  
      88A      0.541380    89A      0.541966    90A      0.543990  
      91A      0.561083    92A      0.589366    93A      0.615155  
      94A      0.615865    95A      0.621281    96A      0.625150  
      97A      0.634792    98A      0.649147    99A      0.651404  
     100A      0.651774   101A      0.671959   102A      0.695959  
     103A      0.710272   104A      0.713544   105A      0.732385  
     106A      0.740081   107A      0.767679   108A      0.770889  
     109A      0.775079   110A      0.779239   111A      0.794167  
     112A      0.800718   113A      0.816259   114A      0.834054  
     115A      0.836256   116A      0.845659   117A      0.849295  
     118A      0.863421   119A      0.882374   120A      0.883172  
     121A      0.885747   122A      0.887737   123A      0.902635  
     124A      0.925214   125A      0.931291   126A      0.937035  
     127A      0.949395   128A      0.952652   129A      0.955311  
     130A      0.959330   131A      0.985731   132A      0.989380  
     133A      1.005997   134A      1.007291   135A      1.014493  
     136A      1.041620   137A      1.044135   138A      1.063627  
     139A      1.070170   140A      1.071987   141A      1.074968  
     142A      1.081184   143A      1.086568   144A      1.088493  
     145A      1.111191   146A      1.112599   147A      1.140725  
     148A      1.152436   149A      1.168316   150A      1.170494  
     151A      1.175653   152A      1.185016   153A      1.186467  
     154A      1.186780   155A      1.194608   156A      1.197537  
     157A      1.209591   158A      1.222032   159A      1.226880  
     160A      1.239690   161A      1.266991   162A      1.273897  
     163A      1.281646   164A      1.287639   165A      1.291937  
     166A      1.297204   167A      1.351072   168A      1.374188  
     169A      1.402880   170A      1.423873   171A      1.443505  
     172A      1.446695   173A      1.460167   174A      1.496090  
     175A      1.504278   176A      1.510497   177A      1.519227  
     178A      1.536725   179A      1.540177   180A      1.587149  
     181A      1.596927   182A      1.627686   183A      1.630535  
     184A      1.668130   185A      1.687083   186A      1.693247  
     187A      1.708595   188A      1.713108   189A      1.716944  
     190A      1.742425   191A      1.757865   192A      1.779111  
     193A      1.786358   194A      1.802865   195A      1.826493  
     196A      1.834473   197A      1.846292   198A      1.855230  
     199A      1.873277   200A      1.882332   201A      1.888373  
     202A      1.913450   203A      1.949082   204A      1.959191  
     205A      1.961649   206A      1.963550   207A      2.013526  
     208A      2.023427   209A      2.025408   210A      2.038383  
     211A      2.039517   212A      2.040409   213A      2.069745  
     214A      2.083960   215A      2.094909   216A      2.130110  
     217A      2.145426   218A      2.156601   219A      2.161621  
     220A      2.162121   221A      2.214805   222A      2.216817  
     223A      2.249044   224A      2.252135   225A      2.295153  
     226A      2.314263   227A      2.359075   228A      2.375322  
     229A      2.384949   230A      2.407718   231A      2.429604  
     232A      2.434638   233A      2.448786   234A      2.510228  
     235A      2.535707   236A      2.541409   237A      2.584568  
     238A      2.648531   239A      2.657642   240A      2.671024  
     241A      2.674498   242A      2.806389   243A      2.809799  
     244A      2.817443   245A      2.913323   246A      2.922831  
     247A      2.973995   248A      2.985279   249A      3.047899  
     250A      3.048417   251A      3.135784   252A      3.158916  
     253A      3.161387   254A      3.247838   255A      3.259840  
     256A      3.303119   257A      3.310544   258A      3.317606  
     259A      3.346258   260A      3.356668   261A      3.385834  
     262A      3.406544   263A      3.408138   264A      3.430020  
     265A      3.432052   266A      3.452445   267A      3.474667  
     268A      3.494541   269A      3.533837   270A      3.541945  
     271A      3.551148   272A      3.564276   273A      3.564713  
     274A      3.579814   275A      3.637334   276A      3.653060  
     277A      3.685775   278A      3.703245   279A      3.710940  
     280A      3.730789   281A      3.762563   282A      3.772860  
     283A      3.773604   284A      3.820035   285A      3.838426  
     286A      3.858793   287A      3.863688   288A      3.874863  
     289A      3.894977   290A      3.921208   291A      3.923382  
     292A      3.953363   293A      3.973314   294A      3.990384  
     295A      3.995851   296A      4.034224   297A      4.043174  
     298A      4.066491   299A      4.088784   300A      4.098446  
     301A      4.127538   302A      4.128431   303A      4.136059  
     304A      4.144339   305A      4.169724   306A      4.205189  
     307A      4.224181   308A      4.225101   309A      4.227690  
     310A      4.265509   311A      4.272502   312A      4.330539  
     313A      4.370614   314A      4.380556   315A      4.411641  
     316A      4.427592   317A      4.438276   318A      4.440130  
     319A      4.465392   320A      4.517141   321A      4.519477  
     322A      4.523136   323A      4.560846   324A      4.646614  
     325A      4.658069   326A      4.693993   327A      4.745450  
     328A      4.754824   329A      4.788649   330A      4.837764  
     331A      4.870491   332A      4.887633   333A      4.898963  
     334A      4.935115   335A      4.957551   336A      4.967406  
     337A      4.988055   338A      5.024647   339A      5.037697  
     340A      5.061367   341A      5.077895   342A      5.106265  
     343A      5.119606   344A      5.138404   345A      5.145235  
     346A      5.195651   347A      5.222837   348A      5.226363  
     349A      5.232036   350A      5.329309   351A      5.385176  
     352A      5.393836   353A      5.401682   354A      5.428331  
     355A      5.444547   356A      5.474151   357A      5.516373  
     358A      5.526636   359A      5.588160   360A      5.604337  
     361A      5.654200   362A      5.779802   363A      5.793407  
     364A      5.812394   365A      5.851362   366A      5.866961  
     367A      5.906423   368A      5.908049   369A      5.974346  
     370A      6.079483   371A      6.117548   372A      6.195433  
     373A      6.226210   374A      6.302851   375A      6.392457  
     376A      6.508187   377A      6.666416   378A      6.679558  
     379A      6.680992   380A      6.738601   381A      6.818402  
     382A      6.879615   383A      7.074259   384A      7.090455  
     385A      7.479076   386A     15.475967   387A     16.278451  
     388A     18.249957   389A     18.560839   390A     19.184040  
     391A     19.256448  

    Final Occupation by Irrep:
              A 
    DOCC [    21 ]

  @DF-RHF Final Energy:  -246.77852327554632

   => Energetics <=

    Nuclear Repulsion Energy =            206.1686034433134296
    One-Electron Energy =                -741.1173190546865044
    Two-Electron Energy =                 288.1701923358266981
    Total Energy =                       -246.7785232755463198

Computation Completed


Properties will be evaluated at   0.000000,   0.000000,   0.000000 [a0]

Properties computed using the SCF density matrix

  Nuclear Dipole Moment: [e a0]
     X:   240.5760      Y:    -8.8325      Z:     0.0775

  Electronic Dipole Moment: [e a0]
     X:  -239.8019      Y:     9.3214      Z:    -0.0939

  Dipole Moment: [e a0]
     X:     0.7741      Y:     0.4889      Z:    -0.0164     Total:     0.9157

  Dipole Moment: [D]
     X:     1.9675      Y:     1.2426      Z:    -0.0416     Total:     2.3274


*** tstop() called on node37.bme.utexas.edu at Sat Apr 11 18:46:07 2020
Module time:
	user time   =      46.91 seconds =       0.78 minutes
	system time =       3.51 seconds =       0.06 minutes
	total time  =          7 seconds =       0.12 minutes
Total time:
	user time   =      46.91 seconds =       0.78 minutes
	system time =       3.51 seconds =       0.06 minutes
	total time  =          7 seconds =       0.12 minutes

*** tstart() called on node37.bme.utexas.edu
*** at Sat Apr 11 18:46:07 2020


  //>>>>>>>>>>>>>>>>>>>>>>>>>>>>>>>>>>>//
  //               DFMP2               //
  //<<<<<<<<<<<<<<<<<<<<<<<<<<<<<<<<<<<//

   => Loading Basis Set <=

    Name: (AUG-CC-PVTZ AUX)
    Role: RIFIT
    Keyword: DF_BASIS_MP2
    atoms 1              entry N          line   206 file /home/liuchw/anaconda3/envs/psi4env/share/psi4/basis/aug-cc-pvtz-ri.gbs 
    atoms 2, 4, 6, 8, 10 entry C          line   148 file /home/liuchw/anaconda3/envs/psi4env/share/psi4/basis/aug-cc-pvtz-ri.gbs 
    atoms 3, 5, 7, 9, 11 entry H          line    30 file /home/liuchw/anaconda3/envs/psi4env/share/psi4/basis/aug-cc-pvtz-ri.gbs 

	 --------------------------------------------------------
	                          DF-MP2                         
	      2nd-Order Density-Fitted Moller-Plesset Theory     
	              RMP2 Wavefunction,   8 Threads             
	                                                         
	        Rob Parrish, Justin Turney, Andy Simmonett,      
	           Ed Hohenstein, and C. David Sherrill          
	 --------------------------------------------------------

   => Auxiliary Basis Set <=

  Basis Set: (AUG-CC-PVTZ AUX)
    Blend: AUG-CC-PVTZ-RI
    Number of shells: 238
    Number of basis function: 866
    Number of Cartesian functions: 1091
    Spherical Harmonics?: true
    Max angular momentum: 4

	 --------------------------------------------------------
	                 NBF =   391, NAUX =   866
	 --------------------------------------------------------
	   CLASS    FOCC     OCC    AOCC    AVIR     VIR    FVIR
	   PAIRS       0      21      21     370     370       0
	 --------------------------------------------------------

	-----------------------------------------------------------
	 ==================> DF-MP2 Energies <==================== 
	-----------------------------------------------------------
	 Reference Energy          =    -246.7785232755463198 [Eh]
	 Singles Energy            =      -0.0000000000000000 [Eh]
	 Same-Spin Energy          =      -0.2688251395153483 [Eh]
	 Opposite-Spin Energy      =      -0.8389104268271729 [Eh]
	 Correlation Energy        =      -1.1077355663425212 [Eh]
	 Total Energy              =    -247.8862588418888322 [Eh]
	-----------------------------------------------------------
	 ================> DF-SCS-MP2 Energies <================== 
	-----------------------------------------------------------
	 SCS Same-Spin Scale       =       0.3333333333333333 [-]
	 SCS Opposite-Spin Scale   =       1.2000000000000000 [-]
	 SCS Same-Spin Energy      =      -0.0896083798384494 [Eh]
	 SCS Opposite-Spin Energy  =      -1.0066925121926074 [Eh]
	 SCS Correlation Energy    =      -1.0963008920310569 [Eh]
	 SCS Total Energy          =    -247.8748241675773727 [Eh]
	-----------------------------------------------------------


*** tstop() called on node37.bme.utexas.edu at Sat Apr 11 18:46:11 2020
Module time:
	user time   =      21.73 seconds =       0.36 minutes
	system time =       4.02 seconds =       0.07 minutes
	total time  =          4 seconds =       0.07 minutes
Total time:
	user time   =      68.64 seconds =       1.14 minutes
	system time =       7.53 seconds =       0.13 minutes
	total time  =         11 seconds =       0.18 minutes

  //>>>>>>>>>>>>>>>>>>>>>>>>>>>>>>>>>>>>//
  // CBS Computation: MP2 / AUG-CC-PVQZ //
  //<<<<<<<<<<<<<<<<<<<<<<<<<<<<<<<<<<<<//


Scratch directory: /scratch//

*** tstart() called on node37.bme.utexas.edu
*** at Sat Apr 11 18:46:11 2020

   => Loading Basis Set <=

    Name: AUG-CC-PVQZ
    Role: ORBITAL
    Keyword: BASIS
    atoms 1              entry N          line   363 file /home/liuchw/anaconda3/envs/psi4env/share/psi4/basis/aug-cc-pvqz.gbs 
    atoms 2, 4, 6, 8, 10 entry C          line   303 file /home/liuchw/anaconda3/envs/psi4env/share/psi4/basis/aug-cc-pvqz.gbs 
    atoms 3, 5, 7, 9, 11 entry H          line    40 file /home/liuchw/anaconda3/envs/psi4env/share/psi4/basis/aug-cc-pvqz.gbs 


         ---------------------------------------------------------
                                   SCF
               by Justin Turney, Rob Parrish, Andy Simmonett
                          and Daniel G. A. Smith
                              RHF Reference
                        8 Threads,  38146 MiB Core
         ---------------------------------------------------------

  ==> Geometry <==

    Molecular point group: c1
    Full point group: C1

    Geometry (in Angstrom), charge = 0, multiplicity = 1:

       Center              X                  Y                   Z               Mass       
    ------------   -----------------  -----------------  -----------------  -----------------
         N            1.828655548138    -0.867284812554     0.026148135185    14.003074004430
         C            3.030434548138    -1.460460812554     0.028228135185    12.000000000000
         H            3.025210548138    -2.543422812554     0.050117135185     1.007825032230
         C            4.236370548138    -0.765501812554     0.004226135185    12.000000000000
         H            5.172808548138    -1.305036812554     0.007320135185     1.007825032230
         C            4.204052548138     0.624802187446    -0.023519864815    12.000000000000
         H            5.119427548138     1.200053187446    -0.042701864815     1.007825032230
         C            2.964372548138     1.255088187446    -0.025996864815    12.000000000000
         H            2.884599548138     2.332647187446    -0.047085864815     1.007825032230
         C            1.810458548138     0.475079187446    -0.000803864815    12.000000000000
         H            0.830548548138     0.938741187446    -0.002466864815     1.007825032230

  Running in c1 symmetry.

  Rotational constants: A =      0.19969  B =      0.02102  C =      0.01902 [cm^-1]
  Rotational constants: A =   5986.55471  B =    630.07771  C =    570.08382 [MHz]
  Nuclear repulsion =  206.168603443313430

  Charge       = 0
  Multiplicity = 1
  Electrons    = 42
  Nalpha       = 21
  Nbeta        = 21

  ==> Algorithm <==

  SCF Algorithm Type is DF.
  DIIS enabled.
  MOM disabled.
  Fractional occupation disabled.
  Guess Type is SAD.
  Energy threshold   = 1.00e-07
  Density threshold  = 1.00e-08
  Integral threshold = 0.00e+00

  ==> Primary Basis <==

  Basis Set: AUG-CC-PVQZ
    Blend: AUG-CC-PVQZ
    Number of shells: 190
    Number of basis function: 710
    Number of Cartesian functions: 905
    Spherical Harmonics?: true
    Max angular momentum: 4

   => Loading Basis Set <=

    Name: (AUG-CC-PVQZ AUX)
    Role: JKFIT
    Keyword: DF_BASIS_SCF
    atoms 1              entry N          line   248 file /home/liuchw/anaconda3/envs/psi4env/share/psi4/basis/aug-cc-pvqz-jkfit.gbs 
    atoms 2, 4, 6, 8, 10 entry C          line   178 file /home/liuchw/anaconda3/envs/psi4env/share/psi4/basis/aug-cc-pvqz-jkfit.gbs 
    atoms 3, 5, 7, 9, 11 entry H          line    70 file /home/liuchw/anaconda3/envs/psi4env/share/psi4/basis/aug-cc-pvqz-jkfit.gbs 

  ==> Pre-Iterations <==

   -------------------------------------------------------
    Irrep   Nso     Nmo     Nalpha   Nbeta   Ndocc  Nsocc
   -------------------------------------------------------
     A        710     710       0       0       0       0
   -------------------------------------------------------
    Total     710     710      21      21      21       0
   -------------------------------------------------------

  ==> Integral Setup <==

  DFHelper Memory: AOs need 4.662 GiB; user supplied 27.940 GiB. Using in-core AOs.

  ==> MemDFJK: Density-Fitted J/K Matrices <==

    J tasked:                   Yes
    K tasked:                   Yes
    wK tasked:                   No
    OpenMP threads:               8
    Memory [MiB]:             28610
    Algorithm:                 Core
    Schwarz Cutoff:           1E-12
    Mask sparsity (%):       2.8288
    Fitting Condition:        1E-10

   => Auxiliary Basis Set <=

  Basis Set: (AUG-CC-PVQZ AUX)
    Blend: AUG-CC-PVQZ-JKFIT
    Number of shells: 294
    Number of basis function: 1232
    Number of Cartesian functions: 1693
    Spherical Harmonics?: true
    Max angular momentum: 5

  Minimum eigenvalue in the overlap matrix is 6.9094696732E-07.
  Using Symmetric Orthogonalization.

  SCF Guess: Superposition of Atomic Densities via on-the-fly atomic UHF.

  ==> Iterations <==

                           Total Energy        Delta E     RMS |[F,P]|

   @DF-RHF iter SAD:  -246.16184831723666   -2.46162e+02   0.00000e+00 
   @DF-RHF iter   1:  -246.64653056937084   -4.84682e-01   6.98893e-04 DIIS
   @DF-RHF iter   2:  -246.76691760390614   -1.20387e-01   3.21342e-04 DIIS
   @DF-RHF iter   3:  -246.79117098396580   -2.42534e-02   6.25921e-05 DIIS
   @DF-RHF iter   4:  -246.79256977392276   -1.39879e-03   1.78919e-05 DIIS
   @DF-RHF iter   5:  -246.79264918403123   -7.94101e-05   6.11570e-06 DIIS
   @DF-RHF iter   6:  -246.79266019936418   -1.10153e-05   1.38826e-06 DIIS
   @DF-RHF iter   7:  -246.79266098703971   -7.87676e-07   4.80464e-07 DIIS
   @DF-RHF iter   8:  -246.79266108579341   -9.87537e-08   2.07058e-07 DIIS
   @DF-RHF iter   9:  -246.79266111625805   -3.04646e-08   6.05434e-08 DIIS
   @DF-RHF iter  10:  -246.79266112028716   -4.02912e-09   2.23836e-08 DIIS
   @DF-RHF iter  11:  -246.79266112102050   -7.33337e-10   1.34909e-08 DIIS
   @DF-RHF iter  12:  -246.79266112121473   -1.94234e-10   4.28143e-09 DIIS
  Energy and wave function converged.


  ==> Post-Iterations <==

    Orbital Energies [Eh]
    ---------------------

    Doubly Occupied:                                                      

       1A    -15.565318     2A    -11.275068     3A    -11.274294  
       4A    -11.259607     5A    -11.241552     6A    -11.241478  
       7A     -1.255527     8A     -1.089591     9A     -1.033771  
      10A     -0.859614    11A     -0.855765    12A     -0.722239  
      13A     -0.660670    14A     -0.654662    15A     -0.598957  
      16A     -0.577659    17A     -0.541217    18A     -0.520705  
      19A     -0.419525    20A     -0.384117    21A     -0.348329  

    Virtual:                                                              

      22A      0.023010    23A      0.028856    24A      0.033236  
      25A      0.043043    26A      0.047151    27A      0.065982  
      28A      0.081762    29A      0.087677    30A      0.088965  
      31A      0.091261    32A      0.095109    33A      0.095916  
      34A      0.097130    35A      0.099898    36A      0.102417  
      37A      0.113006    38A      0.114950    39A      0.124446  
      40A      0.127452    41A      0.128212    42A      0.132057  
      43A      0.133590    44A      0.136955    45A      0.170362  
      46A      0.186557    47A      0.205024    48A      0.210291  
      49A      0.211631    50A      0.215795    51A      0.221492  
      52A      0.228782    53A      0.237076    54A      0.244820  
      55A      0.245482    56A      0.253897    57A      0.254208  
      58A      0.254236    59A      0.266484    60A      0.280525  
      61A      0.286012    62A      0.289984    63A      0.293877  
      64A      0.296190    65A      0.300180    66A      0.300975  
      67A      0.309474    68A      0.318640    69A      0.318780  
      70A      0.319851    71A      0.338335    72A      0.350183  
      73A      0.351114    74A      0.362359    75A      0.364960  
      76A      0.368726    77A      0.368955    78A      0.384126  
      79A      0.386075    80A      0.399979    81A      0.400785  
      82A      0.419638    83A      0.423456    84A      0.424857  
      85A      0.427405    86A      0.429905    87A      0.435166  
      88A      0.437179    89A      0.440292    90A      0.456029  
      91A      0.459148    92A      0.467438    93A      0.470331  
      94A      0.471168    95A      0.490511    96A      0.491031  
      97A      0.505833    98A      0.506669    99A      0.512788  
     100A      0.518066   101A      0.518689   102A      0.530533  
     103A      0.541921   104A      0.566863   105A      0.567306  
     106A      0.572434   107A      0.580398   108A      0.582316  
     109A      0.587379   110A      0.602891   111A      0.610093  
     112A      0.611685   113A      0.623445   114A      0.645254  
     115A      0.656315   116A      0.659223   117A      0.662949  
     118A      0.667912   119A      0.669640   120A      0.675109  
     121A      0.702732   122A      0.704900   123A      0.706875  
     124A      0.719454   125A      0.731288   126A      0.734959  
     127A      0.736128   128A      0.744259   129A      0.748814  
     130A      0.758077   131A      0.765220   132A      0.778109  
     133A      0.780814   134A      0.787305   135A      0.791085  
     136A      0.797772   137A      0.801247   138A      0.801515  
     139A      0.809581   140A      0.823115   141A      0.834021  
     142A      0.840072   143A      0.843206   144A      0.849459  
     145A      0.854852   146A      0.859933   147A      0.891736  
     148A      0.892675   149A      0.899088   150A      0.903095  
     151A      0.920103   152A      0.926628   153A      0.933189  
     154A      0.937188   155A      0.950903   156A      0.951134  
     157A      0.953530   158A      0.962136   159A      0.963547  
     160A      0.966575   161A      0.977431   162A      0.988334  
     163A      0.989624   164A      1.001525   165A      1.022984  
     166A      1.027583   167A      1.046429   168A      1.057862  
     169A      1.082354   170A      1.090353   171A      1.092015  
     172A      1.110537   173A      1.123979   174A      1.131135  
     175A      1.142136   176A      1.162256   177A      1.166284  
     178A      1.179131   179A      1.181741   180A      1.182330  
     181A      1.194005   182A      1.212840   183A      1.228138  
     184A      1.230063   185A      1.230745   186A      1.248809  
     187A      1.259251   188A      1.260981   189A      1.299413  
     190A      1.301243   191A      1.317351   192A      1.318067  
     193A      1.330267   194A      1.330439   195A      1.355418  
     196A      1.365396   197A      1.370708   198A      1.381399  
     199A      1.383961   200A      1.388949   201A      1.396142  
     202A      1.402926   203A      1.419390   204A      1.421097  
     205A      1.425727   206A      1.434143   207A      1.459705  
     208A      1.471340   209A      1.494879   210A      1.516001  
     211A      1.526839   212A      1.542621   213A      1.546467  
     214A      1.548216   215A      1.548239   216A      1.552815  
     217A      1.556248   218A      1.571690   219A      1.579726  
     220A      1.583302   221A      1.587625   222A      1.601435  
     223A      1.608279   224A      1.613694   225A      1.621353  
     226A      1.626287   227A      1.644541   228A      1.670385  
     229A      1.672914   230A      1.698847   231A      1.720047  
     232A      1.729051   233A      1.734225   234A      1.739248  
     235A      1.748593   236A      1.773169   237A      1.780320  
     238A      1.797865   239A      1.835706   240A      1.836531  
     241A      1.836811   242A      1.851195   243A      1.855154  
     244A      1.862746   245A      1.909254   246A      1.910273  
     247A      1.921931   248A      1.932858   249A      1.937325  
     250A      1.937376   251A      1.973833   252A      1.974599  
     253A      1.976699   254A      1.990357   255A      1.994530  
     256A      2.002933   257A      2.007491   258A      2.010745  
     259A      2.014566   260A      2.038874   261A      2.048476  
     262A      2.060152   263A      2.068048   264A      2.075206  
     265A      2.081638   266A      2.084292   267A      2.092170  
     268A      2.099597   269A      2.122223   270A      2.126703  
     271A      2.151293   272A      2.151820   273A      2.153793  
     274A      2.167612   275A      2.190631   276A      2.196829  
     277A      2.230404   278A      2.238028   279A      2.241190  
     280A      2.250651   281A      2.254341   282A      2.259280  
     283A      2.275371   284A      2.278278   285A      2.279247  
     286A      2.294134   287A      2.304015   288A      2.304075  
     289A      2.315443   290A      2.338260   291A      2.339403  
     292A      2.343328   293A      2.366606   294A      2.376485  
     295A      2.383103   296A      2.385709   297A      2.387490  
     298A      2.414160   299A      2.416510   300A      2.423806  
     301A      2.424627   302A      2.447975   303A      2.458064  
     304A      2.468584   305A      2.468722   306A      2.469476  
     307A      2.484400   308A      2.508694   309A      2.509475  
     310A      2.516050   311A      2.528505   312A      2.559866  
     313A      2.560641   314A      2.568630   315A      2.573960  
     316A      2.576149   317A      2.587495   318A      2.594769  
     319A      2.595493   320A      2.612161   321A      2.627322  
     322A      2.630952   323A      2.633033   324A      2.708223  
     325A      2.708376   326A      2.709322   327A      2.726639  
     328A      2.759439   329A      2.763424   330A      2.770288  
     331A      2.772411   332A      2.784502   333A      2.802289  
     334A      2.804576   335A      2.804793   336A      2.819036  
     337A      2.838333   338A      2.857943   339A      2.881290  
     340A      2.903850   341A      2.905653   342A      2.929868  
     343A      2.942845   344A      2.965331   345A      2.995632  
     346A      3.006112   347A      3.018078   348A      3.027993  
     349A      3.028012   350A      3.029855   351A      3.071389  
     352A      3.077197   353A      3.097202   354A      3.134451  
     355A      3.137158   356A      3.138810   357A      3.147661  
     358A      3.167633   359A      3.211354   360A      3.214254  
     361A      3.229108   362A      3.234479   363A      3.269630  
     364A      3.274118   365A      3.297804   366A      3.302027  
     367A      3.311500   368A      3.313150   369A      3.340046  
     370A      3.351979   371A      3.360332   372A      3.374063  
     373A      3.379277   374A      3.390380   375A      3.445880  
     376A      3.453513   377A      3.465402   378A      3.502956  
     379A      3.524926   380A      3.527696   381A      3.547189  
     382A      3.571909   383A      3.603609   384A      3.604706  
     385A      3.628560   386A      3.654371   387A      3.666881  
     388A      3.676989   389A      3.679484   390A      3.712716  
     391A      3.719597   392A      3.725749   393A      3.747205  
     394A      3.747648   395A      3.796139   396A      3.820432  
     397A      3.834085   398A      3.855427   399A      3.878362  
     400A      3.888083   401A      3.894817   402A      3.919541  
     403A      3.925118   404A      3.929501   405A      3.933384  
     406A      3.961324   407A      3.966698   408A      3.973839  
     409A      4.013596   410A      4.030450   411A      4.032884  
     412A      4.045875   413A      4.051796   414A      4.084637  
     415A      4.124661   416A      4.141047   417A      4.143665  
     418A      4.153190   419A      4.155651   420A      4.191775  
     421A      4.201843   422A      4.251425   423A      4.267118  
     424A      4.269646   425A      4.323239   426A      4.324378  
     427A      4.338766   428A      4.370589   429A      4.376799  
     430A      4.401797   431A      4.405063   432A      4.435482  
     433A      4.437147   434A      4.465756   435A      4.470883  
     436A      4.493388   437A      4.502787   438A      4.509015  
     439A      4.549764   440A      4.566742   441A      4.567280  
     442A      4.577241   443A      4.608048   444A      4.617690  
     445A      4.668396   446A      4.691065   447A      4.698215  
     448A      4.720718   449A      4.743885   450A      4.788214  
     451A      4.824394   452A      4.854653   453A      4.882065  
     454A      4.897296   455A      4.907435   456A      4.930942  
     457A      4.973250   458A      4.997727   459A      5.001328  
     460A      5.026077   461A      5.035066   462A      5.068540  
     463A      5.116739   464A      5.146932   465A      5.199426  
     466A      5.216876   467A      5.239209   468A      5.299495  
     469A      5.373342   470A      5.407768   471A      5.429846  
     472A      5.446535   473A      5.471218   474A      5.544279  
     475A      5.618396   476A      5.699969   477A      5.738689  
     478A      5.797811   479A      5.799860   480A      5.827378  
     481A      5.847006   482A      5.889635   483A      5.916944  
     484A      5.987129   485A      6.008399   486A      6.043561  
     487A      6.050828   488A      6.078560   489A      6.099558  
     490A      6.121546   491A      6.131460   492A      6.153944  
     493A      6.156351   494A      6.184570   495A      6.215329  
     496A      6.306219   497A      6.309226   498A      6.324184  
     499A      6.378296   500A      6.384117   501A      6.413951  
     502A      6.428169   503A      6.465261   504A      6.471706  
     505A      6.513844   506A      6.545089   507A      6.584515  
     508A      6.587737   509A      6.592361   510A      6.600213  
     511A      6.614938   512A      6.636883   513A      6.638783  
     514A      6.649902   515A      6.651328   516A      6.668175  
     517A      6.683306   518A      6.710421   519A      6.750066  
     520A      6.775680   521A      6.793957   522A      6.801867  
     523A      6.820836   524A      6.854209   525A      6.862231  
     526A      6.888562   527A      6.900251   528A      6.903725  
     529A      6.935591   530A      6.955563   531A      6.978926  
     532A      6.998642   533A      7.021405   534A      7.023024  
     535A      7.032945   536A      7.053193   537A      7.063308  
     538A      7.080626   539A      7.090290   540A      7.122853  
     541A      7.147205   542A      7.148818   543A      7.166420  
     544A      7.184686   545A      7.198268   546A      7.215852  
     547A      7.217369   548A      7.242110   549A      7.285108  
     550A      7.289914   551A      7.325092   552A      7.326149  
     553A      7.342721   554A      7.387729   555A      7.395728  
     556A      7.396214   557A      7.405186   558A      7.436948  
     559A      7.464517   560A      7.503530   561A      7.519025  
     562A      7.569341   563A      7.580567   564A      7.588804  
     565A      7.630224   566A      7.637660   567A      7.643107  
     568A      7.679045   569A      7.715495   570A      7.744147  
     571A      7.770654   572A      7.773740   573A      7.779970  
     574A      7.809735   575A      7.838799   576A      7.857420  
     577A      7.875956   578A      7.925305   579A      7.943047  
     580A      7.999880   581A      8.005326   582A      8.015637  
     583A      8.027608   584A      8.062677   585A      8.070204  
     586A      8.094200   587A      8.145850   588A      8.146943  
     589A      8.151664   590A      8.277336   591A      8.302165  
     592A      8.320747   593A      8.355213   594A      8.362949  
     595A      8.377801   596A      8.457233   597A      8.488923  
     598A      8.522107   599A      8.541670   600A      8.617340  
     601A      8.619054   602A      8.639138   603A      8.665059  
     604A      8.697180   605A      8.698322   606A      8.706912  
     607A      8.717768   608A      8.809624   609A      8.819771  
     610A      8.857577   611A      8.871891   612A      8.890470  
     613A      8.890937   614A      8.938670   615A      8.941524  
     616A      8.955825   617A      8.957935   618A      8.962296  
     619A      9.038530   620A      9.049482   621A      9.078620  
     622A      9.118406   623A      9.140869   624A      9.172294  
     625A      9.194848   626A      9.201280   627A      9.217936  
     628A      9.255436   629A      9.327228   630A      9.355535  
     631A      9.392498   632A      9.398398   633A      9.415428  
     634A      9.445613   635A      9.499439   636A      9.548735  
     637A      9.552073   638A      9.553478   639A      9.592301  
     640A      9.595996   641A      9.608260   642A      9.648399  
     643A      9.701818   644A      9.721581   645A      9.722076  
     646A      9.738345   647A      9.793071   648A      9.866170  
     649A      9.901322   650A      9.959981   651A      9.962203  
     652A      9.963733   653A      9.982050   654A     10.009216  
     655A     10.015922   656A     10.027205   657A     10.090963  
     658A     10.216224   659A     10.231146   660A     10.233427  
     661A     10.241583   662A     10.290022   663A     10.316591  
     664A     10.327945   665A     10.380502   666A     10.391023  
     667A     10.464971   668A     10.476647   669A     10.494503  
     670A     10.505534   671A     10.509198   672A     10.576084  
     673A     10.636954   674A     10.647245   675A     10.717599  
     676A     10.763790   677A     10.765557   678A     10.776131  
     679A     10.794518   680A     10.845046   681A     10.876618  
     682A     11.049624   683A     11.067254   684A     11.191865  
     685A     11.197590   686A     11.364933   687A     11.373183  
     688A     11.441958   689A     11.454212   690A     11.561675  
     691A     11.636490   692A     11.666184   693A     11.693842  
     694A     11.767126   695A     11.897596   696A     12.289486  
     697A     12.489178   698A     12.725437   699A     12.840476  
     700A     13.199899   701A     13.366071   702A     13.377398  
     703A     13.514286   704A     13.570846   705A     26.158979  
     706A     26.283766   707A     26.512387   708A     26.940532  
     709A     27.178412   710A     34.200853  

    Final Occupation by Irrep:
              A 
    DOCC [    21 ]

  @DF-RHF Final Energy:  -246.79266112121473

   => Energetics <=

    Nuclear Repulsion Energy =            206.1686034433134296
    One-Electron Energy =                -741.1631992085428919
    Two-Electron Energy =                 288.2019346440146705
    Total Energy =                       -246.7926611212147350

Computation Completed


Properties will be evaluated at   0.000000,   0.000000,   0.000000 [a0]

Properties computed using the SCF density matrix

  Nuclear Dipole Moment: [e a0]
     X:   240.5760      Y:    -8.8325      Z:     0.0775

  Electronic Dipole Moment: [e a0]
     X:  -239.8026      Y:     9.3210      Z:    -0.0939

  Dipole Moment: [e a0]
     X:     0.7734      Y:     0.4885      Z:    -0.0163     Total:     0.9149

  Dipole Moment: [D]
     X:     1.9658      Y:     1.2415      Z:    -0.0415     Total:     2.3254


*** tstop() called on node37.bme.utexas.edu at Sat Apr 11 18:46:41 2020
Module time:
	user time   =     190.39 seconds =       3.17 minutes
	system time =      14.99 seconds =       0.25 minutes
	total time  =         30 seconds =       0.50 minutes
Total time:
	user time   =     259.09 seconds =       4.32 minutes
	system time =      22.52 seconds =       0.38 minutes
	total time  =         41 seconds =       0.68 minutes

*** tstart() called on node37.bme.utexas.edu
*** at Sat Apr 11 18:46:41 2020


  //>>>>>>>>>>>>>>>>>>>>>>>>>>>>>>>>>>>//
  //               DFMP2               //
  //<<<<<<<<<<<<<<<<<<<<<<<<<<<<<<<<<<<//

   => Loading Basis Set <=

    Name: (AUG-CC-PVQZ AUX)
    Role: RIFIT
    Keyword: DF_BASIS_MP2
    atoms 1              entry N          line   258 file /home/liuchw/anaconda3/envs/psi4env/share/psi4/basis/aug-cc-pvqz-ri.gbs 
    atoms 2, 4, 6, 8, 10 entry C          line   184 file /home/liuchw/anaconda3/envs/psi4env/share/psi4/basis/aug-cc-pvqz-ri.gbs 
    atoms 3, 5, 7, 9, 11 entry H          line    30 file /home/liuchw/anaconda3/envs/psi4env/share/psi4/basis/aug-cc-pvqz-ri.gbs 

	 --------------------------------------------------------
	                          DF-MP2                         
	      2nd-Order Density-Fitted Moller-Plesset Theory     
	              RMP2 Wavefunction,   8 Threads             
	                                                         
	        Rob Parrish, Justin Turney, Andy Simmonett,      
	           Ed Hohenstein, and C. David Sherrill          
	 --------------------------------------------------------

   => Auxiliary Basis Set <=

  Basis Set: (AUG-CC-PVQZ AUX)
    Blend: AUG-CC-PVQZ-RI
    Number of shells: 316
    Number of basis function: 1408
    Number of Cartesian functions: 1947
    Spherical Harmonics?: true
    Max angular momentum: 5

	 --------------------------------------------------------
	                 NBF =   710, NAUX =  1408
	 --------------------------------------------------------
	   CLASS    FOCC     OCC    AOCC    AVIR     VIR    FVIR
	   PAIRS       0      21      21     689     689       0
	 --------------------------------------------------------

	-----------------------------------------------------------
	 ==================> DF-MP2 Energies <==================== 
	-----------------------------------------------------------
	 Reference Energy          =    -246.7926611212147350 [Eh]
	 Singles Energy            =      -0.0000000000000000 [Eh]
	 Same-Spin Energy          =      -0.2841964430879967 [Eh]
	 Opposite-Spin Energy      =      -0.9424873728794692 [Eh]
	 Correlation Energy        =      -1.2266838159674658 [Eh]
	 Total Energy              =    -248.0193449371822112 [Eh]
	-----------------------------------------------------------
	 ================> DF-SCS-MP2 Energies <================== 
	-----------------------------------------------------------
	 SCS Same-Spin Scale       =       0.3333333333333333 [-]
	 SCS Opposite-Spin Scale   =       1.2000000000000000 [-]
	 SCS Same-Spin Energy      =      -0.0947321476959989 [Eh]
	 SCS Opposite-Spin Energy  =      -1.1309848474553630 [Eh]
	 SCS Correlation Energy    =      -1.2257169951513618 [Eh]
	 SCS Total Energy          =    -248.0183781163661081 [Eh]
	-----------------------------------------------------------


*** tstop() called on node37.bme.utexas.edu at Sat Apr 11 18:46:58 2020
Module time:
	user time   =      80.33 seconds =       1.34 minutes
	system time =       5.07 seconds =       0.08 minutes
	total time  =         17 seconds =       0.28 minutes
Total time:
	user time   =     339.43 seconds =       5.66 minutes
	system time =      27.59 seconds =       0.46 minutes
	total time  =         58 seconds =       0.97 minutes

  //>>>>>>>>>>>>>>>>>>>>>>>>>>>>>>>>>>>//
  //  CBS Results: mp2/aug-cc-pv[tq]z  //
  //<<<<<<<<<<<<<<<<<<<<<<<<<<<<<<<<<<<//


   ==> HF <==

   HI-zeta (4) Energy:               -246.792661121215


   ==> Helgaker 2-point correlated extrapolation for method: MP2 <==

   LO-zeta (3) Energy:               -247.886258841889
   HI-zeta (4) Energy:               -248.019344937182
   Alpha (exponent) Value:             3.000000000000
   Extrapolated Energy:              -248.116461817531

   @Extrapolated MP2/(T,Q):          -248.116461817531



   ==> Helgaker 2-point correlated extrapolation for method: HF <==

   LO-zeta (3) Energy:               -246.778523275546
   HI-zeta (4) Energy:               -246.792661121215
   Alpha (exponent) Value:             3.000000000000
   Extrapolated Energy:              -246.802977927513

   @Extrapolated HF/(T,Q):           -246.802977927513


   ==> Components <==

  ---------------------------------------------------------------------------------------------------------
                          Method / Basis                      Rqd      Energy [Eh]   Variable
  ---------------------------------------------------------------------------------------------------------
                              hf / aug-cc-pvtz                  *    -246.77852328   HF TOTAL ENERGY
                             mp2 / aug-cc-pvtz                  *    -247.88625884   MP2 TOTAL ENERGY
                              hf / aug-cc-pvqz                  *    -246.79266112   HF TOTAL ENERGY
                             mp2 / aug-cc-pvqz                  *    -248.01934494   MP2 TOTAL ENERGY
  ---------------------------------------------------------------------------------------------------------

   ==> Stages <==

  ---------------------------------------------------------------------------------------------------------
      Stage               Method / Basis                       Wt      Energy [Eh]   Scheme
  ---------------------------------------------------------------------------------------------------------
        scf                   hf / aug-cc-pvqz                  1    -246.79266112   xtpl_highest_1
       corl                  mp2 / aug-cc-pv[tq]z               1    -248.11646182   corl_xtpl_helgaker_2
       corl                   hf / aug-cc-pv[tq]z              -1    -246.80297793   corl_xtpl_helgaker_2
  ---------------------------------------------------------------------------------------------------------

   ==> CBS <==

  ---------------------------------------------------------------------------------------------------------
      Stage               Method / Basis                               Energy [Eh]   Scheme
  ---------------------------------------------------------------------------------------------------------
        scf                   hf / aug-cc-pvqz                       -246.79266112   xtpl_highest_1
       corl                  mp2 / aug-cc-pv[tq]z                      -1.31348389   corl_xtpl_helgaker_2
      total                  CBS                                     -248.10614501   
  ---------------------------------------------------------------------------------------------------------
   => Loading Basis Set <=

    Name: DEF2-SVP
    Role: ORBITAL
    Keyword: BASIS
    atoms 1              entry N          line   110 file /home/liuchw/anaconda3/envs/psi4env/share/psi4/basis/def2-svp.gbs 
    atoms 2, 4, 6, 8, 10 entry C          line    90 file /home/liuchw/anaconda3/envs/psi4env/share/psi4/basis/def2-svp.gbs 
    atoms 3, 5, 7, 9, 11 entry H          line    15 file /home/liuchw/anaconda3/envs/psi4env/share/psi4/basis/def2-svp.gbs 


       N-Body: Complex Energy (fragments = (2,), basis = (2,):  -248.10614501123285)

       N-Body: Computing complex (2/4) with fragments (2,) in the basis of fragments (1, 2).


Scratch directory: /scratch//

  //>>>>>>>>>>>>>>>>>>>>>>>>>>>>>>>>>>>//
  //   CBS Setup: mp2/aug-cc-pv[tq]z   //
  //<<<<<<<<<<<<<<<<<<<<<<<<<<<<<<<<<<<//

    Naive listing of computations required.
             hf / aug-cc-pvqz              for  HF TOTAL ENERGY
            mp2 / aug-cc-pvtz              for  MP2 TOTAL ENERGY
            mp2 / aug-cc-pvqz              for  MP2 TOTAL ENERGY
             hf / aug-cc-pvtz              for  HF TOTAL ENERGY
             hf / aug-cc-pvqz              for  HF TOTAL ENERGY

    Enlightened listing of computations required.
            mp2 / aug-cc-pvtz              for  MP2 TOTAL ENERGY
            mp2 / aug-cc-pvqz              for  MP2 TOTAL ENERGY

    Full listing of computations to be obtained (required and bonus).
             hf / aug-cc-pvtz              for  HF TOTAL ENERGY
            mp2 / aug-cc-pvtz              for  MP2 TOTAL ENERGY
             hf / aug-cc-pvqz              for  HF TOTAL ENERGY
            mp2 / aug-cc-pvqz              for  MP2 TOTAL ENERGY

  //>>>>>>>>>>>>>>>>>>>>>>>>>>>>>>>>>>>>//
  // CBS Computation: MP2 / AUG-CC-PVTZ //
  //<<<<<<<<<<<<<<<<<<<<<<<<<<<<<<<<<<<<//


Scratch directory: /scratch//

*** tstart() called on node37.bme.utexas.edu
*** at Sat Apr 11 18:47:00 2020

   => Loading Basis Set <=

    Name: AUG-CC-PVTZ
    Role: ORBITAL
    Keyword: BASIS
    atoms 1, 12                              entry N          line   285 file /home/liuchw/anaconda3/envs/psi4env/share/psi4/basis/aug-cc-pvtz.gbs 
    atoms 2, 4, 6, 8, 10, 13, 15, 17, 19, 21 entry C          line   239 file /home/liuchw/anaconda3/envs/psi4env/share/psi4/basis/aug-cc-pvtz.gbs 
    atoms 3, 5, 7, 9, 11, 14, 16, 18, 20, 22 entry H          line    40 file /home/liuchw/anaconda3/envs/psi4env/share/psi4/basis/aug-cc-pvtz.gbs 


         ---------------------------------------------------------
                                   SCF
               by Justin Turney, Rob Parrish, Andy Simmonett
                          and Daniel G. A. Smith
                              RHF Reference
                        8 Threads,  38146 MiB Core
         ---------------------------------------------------------

  ==> Geometry <==

    Molecular point group: c1
    Full point group: C1

    Geometry (in Angstrom), charge = 0, multiplicity = 1:

       Center              X                  Y                   Z               Mass       
    ------------   -----------------  -----------------  -----------------  -----------------
      Gh(N)          -1.828801451862     0.867925187446    -0.004404864815    14.003074004430
      Gh(C)          -1.810345451862    -0.474493812554     0.019255135185    12.000000000000
      Gh(H)          -0.830349451862    -0.937703812554     0.035231135185     1.007825032230
      Gh(C)          -2.964109451862    -1.255133812554     0.023166135185    12.000000000000
      Gh(H)          -2.884119451862    -2.332701812554     0.042753135185     1.007825032230
      Gh(C)          -4.203903451862    -0.625455812554     0.001475135185    12.000000000000
      Gh(H)          -5.119165451862    -1.201199812554     0.003670135185     1.007825032230
      Gh(C)          -4.236485451862     0.764903187446    -0.023209864815    12.000000000000
      Gh(H)          -5.173034451862     1.303989187446    -0.040782864815     1.007825032230
      Gh(C)          -3.030694451862     1.460518187446    -0.025013864815    12.000000000000
      Gh(H)          -3.025690451862     2.543537187446    -0.043906864815     1.007825032230
         N            1.828655548138    -0.867284812554     0.026148135185    14.003074004430
         C            3.030434548138    -1.460460812554     0.028228135185    12.000000000000
         H            3.025210548138    -2.543422812554     0.050117135185     1.007825032230
         C            4.236370548138    -0.765501812554     0.004226135185    12.000000000000
         H            5.172808548138    -1.305036812554     0.007320135185     1.007825032230
         C            4.204052548138     0.624802187446    -0.023519864815    12.000000000000
         H            5.119427548138     1.200053187446    -0.042701864815     1.007825032230
         C            2.964372548138     1.255088187446    -0.025996864815    12.000000000000
         H            2.884599548138     2.332647187446    -0.047085864815     1.007825032230
         C            1.810458548138     0.475079187446    -0.000803864815    12.000000000000
         H            0.830548548138     0.938741187446    -0.002466864815     1.007825032230

  Running in c1 symmetry.

  Rotational constants: A =      0.09984  B =      0.01051  C =      0.00951 [cm^-1]
  Rotational constants: A =   2993.22141  B =    315.03890  C =    285.04240 [MHz]
  Nuclear repulsion =  206.168603443313430

  Charge       = 0
  Multiplicity = 1
  Electrons    = 42
  Nalpha       = 21
  Nbeta        = 21

  ==> Algorithm <==

  SCF Algorithm Type is DF.
  DIIS enabled.
  MOM disabled.
  Fractional occupation disabled.
  Guess Type is SAD.
  Energy threshold   = 1.00e-07
  Density threshold  = 1.00e-08
  Integral threshold = 0.00e+00

  ==> Primary Basis <==

  Basis Set: AUG-CC-PVTZ
    Blend: AUG-CC-PVTZ
    Number of shells: 258
    Number of basis function: 782
    Number of Cartesian functions: 910
    Spherical Harmonics?: true
    Max angular momentum: 3

   => Loading Basis Set <=

    Name: (AUG-CC-PVTZ AUX)
    Role: JKFIT
    Keyword: DF_BASIS_SCF
    atoms 1, 12                              entry N          line   224 file /home/liuchw/anaconda3/envs/psi4env/share/psi4/basis/aug-cc-pvtz-jkfit.gbs 
    atoms 2, 4, 6, 8, 10, 13, 15, 17, 19, 21 entry C          line   162 file /home/liuchw/anaconda3/envs/psi4env/share/psi4/basis/aug-cc-pvtz-jkfit.gbs 
    atoms 3, 5, 7, 9, 11, 14, 16, 18, 20, 22 entry H          line    70 file /home/liuchw/anaconda3/envs/psi4env/share/psi4/basis/aug-cc-pvtz-jkfit.gbs 

  ==> Pre-Iterations <==

   -------------------------------------------------------
    Irrep   Nso     Nmo     Nalpha   Nbeta   Ndocc  Nsocc
   -------------------------------------------------------
     A        782     782       0       0       0       0
   -------------------------------------------------------
    Total     782     782      21      21      21       0
   -------------------------------------------------------

  ==> Integral Setup <==

  DFHelper Memory: AOs need 6.615 GiB; user supplied 27.940 GiB. Using in-core AOs.

  ==> MemDFJK: Density-Fitted J/K Matrices <==

    J tasked:                   Yes
    K tasked:                   Yes
    wK tasked:                   No
    OpenMP threads:               8
    Memory [MiB]:             28610
    Algorithm:                 Core
    Schwarz Cutoff:           1E-12
    Mask sparsity (%):      17.3275
    Fitting Condition:        1E-10

   => Auxiliary Basis Set <=

  Basis Set: (AUG-CC-PVTZ AUX)
    Blend: AUG-CC-PVTZ-JKFIT
    Number of shells: 500
    Number of basis function: 1708
    Number of Cartesian functions: 2122
    Spherical Harmonics?: true
    Max angular momentum: 4

  Minimum eigenvalue in the overlap matrix is 1.6981224585E-06.
  Using Symmetric Orthogonalization.

  SCF Guess: Superposition of Atomic Densities via on-the-fly atomic UHF.

  ==> Iterations <==

                           Total Energy        Delta E     RMS |[F,P]|

   @DF-RHF iter SAD:  -246.15178807111008   -2.46152e+02   0.00000e+00 
   @DF-RHF iter   1:  -246.63305503280614   -4.81267e-01   6.30653e-04 DIIS
   @DF-RHF iter   2:  -246.75308943762039   -1.20034e-01   2.89542e-04 DIIS
   @DF-RHF iter   3:  -246.77713113879855   -2.40417e-02   5.59301e-05 DIIS
   @DF-RHF iter   4:  -246.77851376878769   -1.38263e-03   1.63193e-05 DIIS
   @DF-RHF iter   5:  -246.77859334858260   -7.95798e-05   5.35601e-06 DIIS
   @DF-RHF iter   6:  -246.77860384225909   -1.04937e-05   1.23041e-06 DIIS
   @DF-RHF iter   7:  -246.77860460308543   -7.60826e-07   4.33774e-07 DIIS
   @DF-RHF iter   8:  -246.77860470144188   -9.83565e-08   1.84375e-07 DIIS
   @DF-RHF iter   9:  -246.77860473151745   -3.00756e-08   5.38862e-08 DIIS
   @DF-RHF iter  10:  -246.77860473544715   -3.92970e-09   1.99989e-08 DIIS
   @DF-RHF iter  11:  -246.77860473616889   -7.21741e-10   1.20251e-08 DIIS
   @DF-RHF iter  12:  -246.77860473635820   -1.89317e-10   3.80299e-09 DIIS
  Energy and wave function converged.


  ==> Post-Iterations <==

    Orbital Energies [Eh]
    ---------------------

    Doubly Occupied:                                                      

       1A    -15.567499     2A    -11.276112     3A    -11.275347  
       4A    -11.260667     5A    -11.242675     6A    -11.242603  
       7A     -1.256099     8A     -1.089992     9A     -1.034104  
      10A     -0.859817    11A     -0.855959    12A     -0.722198  
      13A     -0.660695    14A     -0.654674    15A     -0.598932  
      16A     -0.577613    17A     -0.541115    18A     -0.520646  
      19A     -0.419384    20A     -0.384028    21A     -0.348239  

    Virtual:                                                              

      22A      0.020705    23A      0.025472    24A      0.030381  
      25A      0.037645    26A      0.038692    27A      0.051039  
      28A      0.051870    29A      0.057048    30A      0.062207  
      31A      0.067698    32A      0.074748    33A      0.081161  
      34A      0.088450    35A      0.089625    36A      0.096116  
      37A      0.096858    38A      0.100267    39A      0.102910  
      40A      0.106021    41A      0.107778    42A      0.109151  
      43A      0.113349    44A      0.115552    45A      0.118302  
      46A      0.123837    47A      0.129416    48A      0.134503  
      49A      0.135137    50A      0.137098    51A      0.139887  
      52A      0.141304    53A      0.141832    54A      0.144730  
      55A      0.152516    56A      0.158056    57A      0.161752  
      58A      0.164970    59A      0.170050    60A      0.174898  
      61A      0.176976    62A      0.179828    63A      0.186495  
      64A      0.193203    65A      0.193565    66A      0.206690  
      67A      0.217773    68A      0.222619    69A      0.227862  
      70A      0.232556    71A      0.242812    72A      0.246487  
      73A      0.251712    74A      0.253553    75A      0.260032  
      76A      0.265600    77A      0.266207    78A      0.275382  
      79A      0.279281    80A      0.283854    81A      0.285379  
      82A      0.289950    83A      0.292778    84A      0.304329  
      85A      0.305835    86A      0.310326    87A      0.311098  
      88A      0.314633    89A      0.317932    90A      0.319948  
      91A      0.321148    92A      0.322877    93A      0.329583  
      94A      0.335222    95A      0.335989    96A      0.345923  
      97A      0.348595    98A      0.351635    99A      0.356056  
     100A      0.363197   101A      0.366406   102A      0.368388  
     103A      0.369448   104A      0.370817   105A      0.379394  
     106A      0.384870   107A      0.391200   108A      0.391827  
     109A      0.396904   110A      0.403536   111A      0.406574  
     112A      0.408804   113A      0.414925   114A      0.417451  
     115A      0.422345   116A      0.424612   117A      0.426300  
     118A      0.431161   119A      0.431616   120A      0.437149  
     121A      0.440644   122A      0.447637   123A      0.450011  
     124A      0.452524   125A      0.458881   126A      0.459440  
     127A      0.462556   128A      0.471480   129A      0.473957  
     130A      0.478401   131A      0.481540   132A      0.484061  
     133A      0.491912   134A      0.494386   135A      0.498875  
     136A      0.499746   137A      0.505190   138A      0.510349  
     139A      0.516962   140A      0.520377   141A      0.522803  
     142A      0.531079   143A      0.533887   144A      0.539679  
     145A      0.547876   146A      0.558381   147A      0.561661  
     148A      0.563373   149A      0.568926   150A      0.569842  
     151A      0.576694   152A      0.591711   153A      0.592670  
     154A      0.601477   155A      0.602742   156A      0.611076  
     157A      0.612955   158A      0.616213   159A      0.618413  
     160A      0.629397   161A      0.632192   162A      0.637601  
     163A      0.641384   164A      0.644127   165A      0.647714  
     166A      0.658180   167A      0.659402   168A      0.672908  
     169A      0.674047   170A      0.683020   171A      0.688233  
     172A      0.693178   173A      0.700791   174A      0.701259  
     175A      0.709479   176A      0.715199   177A      0.718311  
     178A      0.724134   179A      0.729593   180A      0.738551  
     181A      0.744713   182A      0.746534   183A      0.750766  
     184A      0.753408   185A      0.757415   186A      0.761989  
     187A      0.767145   188A      0.778851   189A      0.786566  
     190A      0.787471   191A      0.794670   192A      0.802432  
     193A      0.803191   194A      0.811800   195A      0.816625  
     196A      0.818194   197A      0.829490   198A      0.832114  
     199A      0.835505   200A      0.847516   201A      0.854338  
     202A      0.854690   203A      0.858431   204A      0.859011  
     205A      0.864181   206A      0.866511   207A      0.886188  
     208A      0.891959   209A      0.897179   210A      0.900590  
     211A      0.902307   212A      0.905905   213A      0.912155  
     214A      0.920510   215A      0.924560   216A      0.926990  
     217A      0.930254   218A      0.938310   219A      0.948142  
     220A      0.956233   221A      0.960989   222A      0.966373  
     223A      0.968308   224A      0.978222   225A      0.980335  
     226A      0.994286   227A      0.994820   228A      0.999311  
     229A      1.000898   230A      1.014775   231A      1.017723  
     232A      1.018756   233A      1.021638   234A      1.025943  
     235A      1.033863   236A      1.041299   237A      1.043695  
     238A      1.052368   239A      1.055128   240A      1.066411  
     241A      1.068648   242A      1.074338   243A      1.076214  
     244A      1.082288   245A      1.086306   246A      1.089996  
     247A      1.093067   248A      1.096645   249A      1.099111  
     250A      1.103960   251A      1.112433   252A      1.114136  
     253A      1.122021   254A      1.128313   255A      1.134343  
     256A      1.139064   257A      1.142982   258A      1.147761  
     259A      1.151232   260A      1.152351   261A      1.156244  
     262A      1.172167   263A      1.176180   264A      1.177662  
     265A      1.182536   266A      1.187058   267A      1.188888  
     268A      1.190592   269A      1.197267   270A      1.203373  
     271A      1.210693   272A      1.213914   273A      1.217591  
     274A      1.226189   275A      1.231127   276A      1.234830  
     277A      1.237635   278A      1.244072   279A      1.247143  
     280A      1.255941   281A      1.260364   282A      1.271225  
     283A      1.280226   284A      1.291395   285A      1.292261  
     286A      1.297019   287A      1.301661   288A      1.302272  
     289A      1.306681   290A      1.324865   291A      1.331822  
     292A      1.333926   293A      1.338329   294A      1.339322  
     295A      1.342728   296A      1.345647   297A      1.349551  
     298A      1.363982   299A      1.366563   300A      1.384421  
     301A      1.384612   302A      1.387752   303A      1.397744  
     304A      1.412036   305A      1.416517   306A      1.424449  
     307A      1.433365   308A      1.433914   309A      1.437149  
     310A      1.452016   311A      1.454085   312A      1.461736  
     313A      1.471208   314A      1.479589   315A      1.490055  
     316A      1.493833   317A      1.494612   318A      1.497209  
     319A      1.522667   320A      1.525634   321A      1.537720  
     322A      1.544264   323A      1.544639   324A      1.547655  
     325A      1.558782   326A      1.568498   327A      1.581692  
     328A      1.584334   329A      1.585459   330A      1.595177  
     331A      1.603193   332A      1.611280   333A      1.619600  
     334A      1.626907   335A      1.633712   336A      1.638948  
     337A      1.649991   338A      1.668073   339A      1.673226  
     340A      1.673810   341A      1.677464   342A      1.692710  
     343A      1.708224   344A      1.708942   345A      1.717926  
     346A      1.719315   347A      1.725700   348A      1.731072  
     349A      1.734228   350A      1.747457   351A      1.755638  
     352A      1.765800   353A      1.768670   354A      1.775328  
     355A      1.784906   356A      1.795845   357A      1.795993  
     358A      1.812930   359A      1.816447   360A      1.830426  
     361A      1.841343   362A      1.848973   363A      1.857569  
     364A      1.858504   365A      1.870354   366A      1.877921  
     367A      1.884285   368A      1.892138   369A      1.925100  
     370A      1.925529   371A      1.935947   372A      1.938824  
     373A      1.950385   374A      1.954323   375A      1.955806  
     376A      1.972178   377A      1.976462   378A      1.991333  
     379A      2.007383   380A      2.008724   381A      2.019732  
     382A      2.020217   383A      2.031224   384A      2.035525  
     385A      2.039552   386A      2.050248   387A      2.058752  
     388A      2.065641   389A      2.069335   390A      2.089581  
     391A      2.093770   392A      2.096717   393A      2.104723  
     394A      2.111316   395A      2.116860   396A      2.126965  
     397A      2.140296   398A      2.161959   399A      2.164886  
     400A      2.168410   401A      2.183348   402A      2.184068  
     403A      2.191349   404A      2.206034   405A      2.209648  
     406A      2.217311   407A      2.227747   408A      2.228893  
     409A      2.234528   410A      2.237623   411A      2.254939  
     412A      2.256506   413A      2.271941   414A      2.275337  
     415A      2.283245   416A      2.288492   417A      2.299223  
     418A      2.303188   419A      2.313401   420A      2.319903  
     421A      2.337679   422A      2.353482   423A      2.355636  
     424A      2.367590   425A      2.381234   426A      2.383514  
     427A      2.387418   428A      2.396354   429A      2.407039  
     430A      2.416546   431A      2.430614   432A      2.431879  
     433A      2.446352   434A      2.450760   435A      2.452905  
     436A      2.464674   437A      2.484068   438A      2.492508  
     439A      2.515958   440A      2.519979   441A      2.523603  
     442A      2.539455   443A      2.554741   444A      2.560701  
     445A      2.566291   446A      2.581798   447A      2.592134  
     448A      2.611319   449A      2.625820   450A      2.635581  
     451A      2.639714   452A      2.641760   453A      2.650945  
     454A      2.675565   455A      2.697043   456A      2.705877  
     457A      2.735965   458A      2.736681   459A      2.744624  
     460A      2.757395   461A      2.788917   462A      2.809466  
     463A      2.834607   464A      2.839810   465A      2.852979  
     466A      2.862146   467A      2.890282   468A      2.896820  
     469A      2.911877   470A      2.931395   471A      2.943823  
     472A      2.952519   473A      2.992045   474A      3.014705  
     475A      3.024495   476A      3.026410   477A      3.047170  
     478A      3.067517   479A      3.099503   480A      3.117549  
     481A      3.160138   482A      3.164758   483A      3.169600  
     484A      3.187374   485A      3.219841   486A      3.254869  
     487A      3.281730   488A      3.307473   489A      3.311435  
     490A      3.317276   491A      3.336249   492A      3.340740  
     493A      3.369082   494A      3.392484   495A      3.415500  
     496A      3.424677   497A      3.429529   498A      3.436382  
     499A      3.443347   500A      3.467865   501A      3.471177  
     502A      3.477988   503A      3.499879   504A      3.508310  
     505A      3.524580   506A      3.539195   507A      3.568227  
     508A      3.576982   509A      3.581846   510A      3.589918  
     511A      3.590781   512A      3.598429   513A      3.621855  
     514A      3.659330   515A      3.673753   516A      3.694667  
     517A      3.720967   518A      3.745870   519A      3.757654  
     520A      3.780634   521A      3.783591   522A      3.790012  
     523A      3.816710   524A      3.836264   525A      3.845665  
     526A      3.865503   527A      3.887140   528A      3.896361  
     529A      3.899855   530A      3.906798   531A      3.931951  
     532A      3.943367   533A      3.957617   534A      3.975051  
     535A      3.979016   536A      3.980198   537A      3.994450  
     538A      3.995771   539A      4.010378   540A      4.014732  
     541A      4.019544   542A      4.028389   543A      4.051090  
     544A      4.061112   545A      4.067970   546A      4.070959  
     547A      4.077122   548A      4.080793   549A      4.095146  
     550A      4.102292   551A      4.117008   552A      4.127063  
     553A      4.129184   554A      4.135764   555A      4.154626  
     556A      4.157099   557A      4.163879   558A      4.168869  
     559A      4.183393   560A      4.183622   561A      4.211773  
     562A      4.216762   563A      4.230097   564A      4.245884  
     565A      4.247285   566A      4.249201   567A      4.252302  
     568A      4.267028   569A      4.269884   570A      4.278689  
     571A      4.281796   572A      4.305948   573A      4.334350  
     574A      4.344731   575A      4.350892   576A      4.359828  
     577A      4.370428   578A      4.377923   579A      4.388779  
     580A      4.390931   581A      4.409005   582A      4.428406  
     583A      4.431012   584A      4.449538   585A      4.452768  
     586A      4.465994   587A      4.468216   588A      4.488370  
     589A      4.494211   590A      4.504394   591A      4.518247  
     592A      4.518886   593A      4.527048   594A      4.533860  
     595A      4.561401   596A      4.570233   597A      4.580067  
     598A      4.595519   599A      4.632215   600A      4.638265  
     601A      4.651665   602A      4.663782   603A      4.670829  
     604A      4.692011   605A      4.700373   606A      4.720381  
     607A      4.759416   608A      4.769316   609A      4.791802  
     610A      4.803670   611A      4.815396   612A      4.826459  
     613A      4.848836   614A      4.867361   615A      4.874140  
     616A      4.895003   617A      4.905692   618A      4.911128  
     619A      4.925341   620A      4.939917   621A      4.950134  
     622A      4.970788   623A      4.975890   624A      4.987607  
     625A      4.988101   626A      5.001512   627A      5.010531  
     628A      5.017411   629A      5.044004   630A      5.045854  
     631A      5.049621   632A      5.072644   633A      5.077394  
     634A      5.087681   635A      5.091905   636A      5.112491  
     637A      5.113352   638A      5.119640   639A      5.130620  
     640A      5.150143   641A      5.166488   642A      5.179788  
     643A      5.182344   644A      5.190299   645A      5.201331  
     646A      5.206798   647A      5.214847   648A      5.224756  
     649A      5.246136   650A      5.252457   651A      5.257925  
     652A      5.263490   653A      5.284108   654A      5.304610  
     655A      5.338441   656A      5.351134   657A      5.396507  
     658A      5.399446   659A      5.406245   660A      5.438288  
     661A      5.447191   662A      5.453545   663A      5.463302  
     664A      5.474548   665A      5.483549   666A      5.497997  
     667A      5.502650   668A      5.519812   669A      5.528003  
     670A      5.529210   671A      5.569700   672A      5.588648  
     673A      5.603614   674A      5.624282   675A      5.628146  
     676A      5.666780   677A      5.677755   678A      5.695560  
     679A      5.710356   680A      5.717314   681A      5.748315  
     682A      5.763163   683A      5.781176   684A      5.803896  
     685A      5.812789   686A      5.821926   687A      5.857235  
     688A      5.869179   689A      5.875213   690A      5.881030  
     691A      5.888466   692A      5.931182   693A      5.940355  
     694A      5.944433   695A      5.984265   696A      6.009505  
     697A      6.050980   698A      6.071742   699A      6.076468  
     700A      6.088664   701A      6.090957   702A      6.108222  
     703A      6.156961   704A      6.167231   705A      6.194559  
     706A      6.247796   707A      6.267151   708A      6.281937  
[...]
     961A      5.900112   962A      5.903728   963A      5.908265  
     964A      5.934627   965A      6.016794   966A      6.018814  
     967A      6.023523   968A      6.039763   969A      6.041951  
     970A      6.048682   971A      6.057780   972A      6.070608  
     973A      6.118942   974A      6.127767   975A      6.133371  
     976A      6.134492   977A      6.136417   978A      6.136788  
     979A      6.148658   980A      6.156780   981A      6.161510  
     982A      6.165263   983A      6.173884   984A      6.185891  
     985A      6.203740   986A      6.207812   987A      6.227599  
     988A      6.231504   989A      6.235679   990A      6.247891  
     991A      6.327678   992A      6.336097   993A      6.338860  
     994A      6.350364   995A      6.389838   996A      6.397011  
     997A      6.398584   998A      6.402467   999A      6.428073  
    1000A      6.436732  1001A      6.452982  1002A      6.459647  
    1003A      6.487043  1004A      6.487287  1005A      6.492404  
    1006A      6.509066  1007A      6.510792  1008A      6.526264  
    1009A      6.567199  1010A      6.570791  1011A      6.576962  
    1012A      6.596074  1013A      6.597115  1014A      6.597145  
    1015A      6.611433  1016A      6.615244  1017A      6.621515  
    1018A      6.627803  1019A      6.631211  1020A      6.631611  
    1021A      6.635172  1022A      6.644021  1023A      6.664362  
    1024A      6.674134  1025A      6.675717  1026A      6.684700  
    1027A      6.693822  1028A      6.703888  1029A      6.704110  
    1030A      6.718580  1031A      6.720966  1032A      6.731427  
    1033A      6.736552  1034A      6.738274  1035A      6.755805  
    1036A      6.765262  1037A      6.782523  1038A      6.800868  
    1039A      6.800954  1040A      6.805398  1041A      6.818904  
    1042A      6.824655  1043A      6.842572  1044A      6.845592  
    1045A      6.858108  1046A      6.868435  1047A      6.881822  
    1048A      6.895832  1049A      6.896181  1050A      6.903831  
    1051A      6.927378  1052A      6.940137  1053A      6.948324  
    1054A      6.950021  1055A      6.957187  1056A      6.958932  
    1057A      6.961872  1058A      6.966117  1059A      7.002342  
    1060A      7.011491  1061A      7.016637  1062A      7.021877  
    1063A      7.036561  1064A      7.045578  1065A      7.047486  
    1066A      7.054652  1067A      7.061201  1068A      7.061478  
    1069A      7.062299  1070A      7.083231  1071A      7.088528  
    1072A      7.094168  1073A      7.094698  1074A      7.104692  
    1075A      7.105411  1076A      7.115138  1077A      7.122397  
    1078A      7.124394  1079A      7.130121  1080A      7.142949  
    1081A      7.184100  1082A      7.186805  1083A      7.187392  
    1084A      7.192034  1085A      7.198805  1086A      7.221125  
    1087A      7.224915  1088A      7.229213  1089A      7.233766  
    1090A      7.244341  1091A      7.259486  1092A      7.263374  
    1093A      7.269739  1094A      7.280528  1095A      7.286990  
    1096A      7.305702  1097A      7.331338  1098A      7.331392  
    1099A      7.333678  1100A      7.341026  1101A      7.351966  
    1102A      7.353658  1103A      7.357564  1104A      7.379427  
    1105A      7.412137  1106A      7.414968  1107A      7.425097  
    1108A      7.428125  1109A      7.431529  1110A      7.431827  
    1111A      7.448038  1112A      7.466046  1113A      7.466477  
    1114A      7.475378  1115A      7.475962  1116A      7.499556  
    1117A      7.511689  1118A      7.520277  1119A      7.533745  
    1120A      7.536716  1121A      7.583925  1122A      7.584827  
    1123A      7.586509  1124A      7.587163  1125A      7.619648  
    1126A      7.626149  1127A      7.646350  1128A      7.649793  
    1129A      7.662791  1130A      7.670898  1131A      7.676920  
    1132A      7.695538  1133A      7.715643  1134A      7.716061  
    1135A      7.724134  1136A      7.744263  1137A      7.757843  
    1138A      7.766397  1139A      7.770642  1140A      7.779416  
    1141A      7.798642  1142A      7.806238  1143A      7.818492  
    1144A      7.827150  1145A      7.829720  1146A      7.839952  
    1147A      7.856214  1148A      7.875944  1149A      7.879519  
    1150A      7.880756  1151A      7.888468  1152A      7.907209  
    1153A      7.936708  1154A      7.946120  1155A      7.952474  
    1156A      7.967441  1157A      8.012266  1158A      8.018193  
    1159A      8.025560  1160A      8.028596  1161A      8.039047  
    1162A      8.040271  1163A      8.040853  1164A      8.054741  
    1165A      8.081599  1166A      8.082461  1167A      8.084570  
    1168A      8.088192  1169A      8.116036  1170A      8.117101  
    1171A      8.136572  1172A      8.138665  1173A      8.159105  
    1174A      8.162241  1175A      8.175623  1176A      8.176123  
    1177A      8.187746  1178A      8.189774  1179A      8.291584  
    1180A      8.294707  1181A      8.325554  1182A      8.340218  
    1183A      8.340966  1184A      8.341015  1185A      8.381537  
    1186A      8.394876  1187A      8.413104  1188A      8.421740  
    1189A      8.433447  1190A      8.446359  1191A      8.485272  
    1192A      8.501303  1193A      8.523898  1194A      8.524851  
    1195A      8.537802  1196A      8.551396  1197A      8.615599  
    1198A      8.628957  1199A      8.631944  1200A      8.638225  
    1201A      8.650360  1202A      8.659054  1203A      8.691957  
    1204A      8.692814  1205A      8.701558  1206A      8.702696  
    1207A      8.708553  1208A      8.730424  1209A      8.739637  
    1210A      8.744726  1211A      8.756892  1212A      8.770365  
    1213A      8.783320  1214A      8.804844  1215A      8.839541  
    1216A      8.839595  1217A      8.844917  1218A      8.857218  
    1219A      8.880690  1220A      8.881780  1221A      8.893037  
    1222A      8.899699  1223A      8.902596  1224A      8.908501  
    1225A      8.949494  1226A      8.952716  1227A      8.961313  
    1228A      8.962053  1229A      8.966763  1230A      8.971929  
    1231A      8.974725  1232A      8.979488  1233A      8.992270  
    1234A      9.003499  1235A      9.034467  1236A      9.047162  
    1237A      9.079189  1238A      9.090928  1239A      9.101886  
    1240A      9.104195  1241A      9.122698  1242A      9.129630  
    1243A      9.149386  1244A      9.154825  1245A      9.157756  
    1246A      9.160842  1247A      9.218082  1248A      9.226397  
    1249A      9.240204  1250A      9.245649  1251A      9.269845  
    1252A      9.276767  1253A      9.285925  1254A      9.312738  
    1255A      9.333128  1256A      9.350752  1257A      9.355423  
    1258A      9.377226  1259A      9.396966  1260A      9.422075  
    1261A      9.426303  1262A      9.445570  1263A      9.457304  
    1264A      9.459399  1265A      9.470809  1266A      9.495866  
    1267A      9.511212  1268A      9.546016  1269A      9.549906  
    1270A      9.552827  1271A      9.561663  1272A      9.564221  
    1273A      9.577097  1274A      9.580273  1275A      9.585558  
    1276A      9.591717  1277A      9.610015  1278A      9.616883  
    1279A      9.630351  1280A      9.632661  1281A      9.641784  
    1282A      9.648433  1283A      9.709264  1284A      9.715885  
    1285A      9.737108  1286A      9.737921  1287A      9.742268  
    1288A      9.743390  1289A      9.747290  1290A      9.772811  
    1291A      9.787750  1292A      9.795459  1293A      9.808945  
    1294A      9.822237  1295A      9.899874  1296A      9.923283  
    1297A      9.959366  1298A      9.974317  1299A      9.974725  
    1300A      9.978407  1301A     10.010782  1302A     10.016358  
    1303A     10.019768  1304A     10.019984  1305A     10.026947  
    1306A     10.028394  1307A     10.048467  1308A     10.059006  
    1309A     10.073358  1310A     10.076718  1311A     10.087666  
    1312A     10.094665  1313A     10.116051  1314A     10.135943  
    1315A     10.241614  1316A     10.241872  1317A     10.250891  
    1318A     10.252598  1319A     10.255324  1320A     10.257372  
    1321A     10.287010  1322A     10.304265  1323A     10.334703  
    1324A     10.335499  1325A     10.348126  1326A     10.348290  
    1327A     10.374473  1328A     10.390804  1329A     10.395286  
    1330A     10.409560  1331A     10.411382  1332A     10.429473  
    1333A     10.501994  1334A     10.508090  1335A     10.509991  
    1336A     10.518754  1337A     10.522347  1338A     10.525476  
    1339A     10.541254  1340A     10.542186  1341A     10.555633  
    1342A     10.582228  1343A     10.652121  1344A     10.664261  
    1345A     10.675089  1346A     10.686661  1347A     10.731391  
    1348A     10.740235  1349A     10.752436  1350A     10.752650  
    1351A     10.773629  1352A     10.778745  1353A     10.804092  
    1354A     10.806290  1355A     10.823259  1356A     10.825476  
    1357A     10.859148  1358A     10.874947  1359A     10.894768  
    1360A     10.914977  1361A     10.939128  1362A     10.996371  
    1363A     11.060103  1364A     11.072170  1365A     11.141713  
    1366A     11.142909  1367A     11.226558  1368A     11.234774  
    1369A     11.242223  1370A     11.299225  1371A     11.382105  
    1372A     11.384014  1373A     11.441919  1374A     11.456780  
    1375A     11.493559  1376A     11.503520  1377A     11.527883  
    1378A     11.556310  1379A     11.617228  1380A     11.657817  
    1381A     11.687475  1382A     11.706570  1383A     11.707986  
    1384A     11.738638  1385A     11.745733  1386A     11.750211  
    1387A     11.893938  1388A     11.915215  1389A     12.026252  
    1390A     12.067002  1391A     12.322829  1392A     12.329991  
    1393A     12.559458  1394A     12.592017  1395A     12.752285  
    1396A     12.755500  1397A     12.892773  1398A     12.904340  
    1399A     13.283176  1400A     13.295039  1401A     13.399846  
    1402A     13.409390  1403A     13.429371  1404A     13.442637  
    1405A     13.578248  1406A     13.579611  1407A     13.666442  
    1408A     13.701123  1409A     26.251590  1410A     26.262508  
    1411A     26.365298  1412A     26.423443  1413A     26.609441  
    1414A     26.680009  1415A     27.003080  1416A     27.017678  
    1417A     27.233173  1418A     27.238577  1419A     34.355360  
    1420A     34.361966  

    Final Occupation by Irrep:
              A 
    DOCC [    42 ]

  @DF-RHF Final Energy:  -493.58795611365514

   => Energetics <=

    Nuclear Repulsion Energy =            571.8542275506893020
    One-Electron Energy =               -1801.8096183112049857
    Two-Electron Energy =                 736.3674346468606018
    Total Energy =                       -493.5879561136550819

Computation Completed


Properties will be evaluated at   0.000000,   0.000000,   0.000000 [a0]

Properties computed using the SCF density matrix

  Nuclear Dipole Moment: [e a0]
     X:     0.0002      Y:    -0.0010      Z:    -0.0355

  Electronic Dipole Moment: [e a0]
     X:    -0.0000      Y:     0.0006      Z:     0.0216

  Dipole Moment: [e a0]
     X:     0.0002      Y:    -0.0004      Z:    -0.0140     Total:     0.0140

  Dipole Moment: [D]
     X:     0.0005      Y:    -0.0011      Z:    -0.0355     Total:     0.0355


*** tstop() called on node37.bme.utexas.edu at Sat Apr 11 19:24:13 2020
Module time:
	user time   =    4180.83 seconds =      69.68 minutes
	system time =     146.29 seconds =       2.44 minutes
	total time  =        586 seconds =       9.77 minutes
Total time:
	user time   =   15334.78 seconds =     255.58 minutes
	system time =     654.22 seconds =      10.90 minutes
	total time  =       2293 seconds =      38.22 minutes

*** tstart() called on node37.bme.utexas.edu
*** at Sat Apr 11 19:24:13 2020


  //>>>>>>>>>>>>>>>>>>>>>>>>>>>>>>>>>>>//
  //               DFMP2               //
  //<<<<<<<<<<<<<<<<<<<<<<<<<<<<<<<<<<<//

   => Loading Basis Set <=

    Name: (AUG-CC-PVQZ AUX)
    Role: RIFIT
    Keyword: DF_BASIS_MP2
    atoms 1, 12                              entry N          line   258 file /home/liuchw/anaconda3/envs/psi4env/share/psi4/basis/aug-cc-pvqz-ri.gbs 
    atoms 2, 4, 6, 8, 10, 13, 15, 17, 19, 21 entry C          line   184 file /home/liuchw/anaconda3/envs/psi4env/share/psi4/basis/aug-cc-pvqz-ri.gbs 
    atoms 3, 5, 7, 9, 11, 14, 16, 18, 20, 22 entry H          line    30 file /home/liuchw/anaconda3/envs/psi4env/share/psi4/basis/aug-cc-pvqz-ri.gbs 

	 --------------------------------------------------------
	                          DF-MP2                         
	      2nd-Order Density-Fitted Moller-Plesset Theory     
	              RMP2 Wavefunction,   8 Threads             
	                                                         
	        Rob Parrish, Justin Turney, Andy Simmonett,      
	           Ed Hohenstein, and C. David Sherrill          
	 --------------------------------------------------------

   => Auxiliary Basis Set <=

  Basis Set: (AUG-CC-PVQZ AUX)
    Blend: AUG-CC-PVQZ-RI
    Number of shells: 632
    Number of basis function: 2816
    Number of Cartesian functions: 3894
    Spherical Harmonics?: true
    Max angular momentum: 5

	 --------------------------------------------------------
	                 NBF =  1420, NAUX =  2816
	 --------------------------------------------------------
	   CLASS    FOCC     OCC    AOCC    AVIR     VIR    FVIR
	   PAIRS       0      42      42    1378    1378       0
	 --------------------------------------------------------

	-----------------------------------------------------------
	 ==================> DF-MP2 Energies <==================== 
	-----------------------------------------------------------
	 Reference Energy          =    -493.5879561136551388 [Eh]
	 Singles Energy            =      -0.0000000000000000 [Eh]
	 Same-Spin Energy          =      -0.5704892429406521 [Eh]
	 Opposite-Spin Energy      =      -1.8877228123870815 [Eh]
	 Correlation Energy        =      -2.4582120553277336 [Eh]
	 Total Energy              =    -496.0461681689828879 [Eh]
	-----------------------------------------------------------
	 ================> DF-SCS-MP2 Energies <================== 
	-----------------------------------------------------------
	 SCS Same-Spin Scale       =       0.3333333333333333 [-]
	 SCS Opposite-Spin Scale   =       1.2000000000000000 [-]
	 SCS Same-Spin Energy      =      -0.1901630809802173 [Eh]
	 SCS Opposite-Spin Energy  =      -2.2652673748644978 [Eh]
	 SCS Correlation Energy    =      -2.4554304558447151 [Eh]
	 SCS Total Energy          =    -496.0433865694998303 [Eh]
	-----------------------------------------------------------


*** tstop() called on node37.bme.utexas.edu at Sat Apr 11 19:26:59 2020
Module time:
	user time   =     947.79 seconds =      15.80 minutes
	system time =      36.94 seconds =       0.62 minutes
	total time  =        166 seconds =       2.77 minutes
Total time:
	user time   =   16282.57 seconds =     271.38 minutes
	system time =     691.16 seconds =      11.52 minutes
	total time  =       2459 seconds =      40.98 minutes

  //>>>>>>>>>>>>>>>>>>>>>>>>>>>>>>>>>>>//
  //  CBS Results: mp2/aug-cc-pv[tq]z  //
  //<<<<<<<<<<<<<<<<<<<<<<<<<<<<<<<<<<<//


   ==> HF <==

   HI-zeta (4) Energy:               -493.587956113655


   ==> Helgaker 2-point correlated extrapolation for method: MP2 <==

   LO-zeta (3) Energy:               -495.781924627241
   HI-zeta (4) Energy:               -496.046168168983
   Alpha (exponent) Value:             3.000000000000
   Extrapolated Energy:              -496.238994537281

   @Extrapolated MP2/(T,Q):          -496.238994537281



   ==> Helgaker 2-point correlated extrapolation for method: HF <==

   LO-zeta (3) Energy:               -493.559800558462
   HI-zeta (4) Energy:               -493.587956113655
   Alpha (exponent) Value:             3.000000000000
   Extrapolated Energy:              -493.608502059336

   @Extrapolated HF/(T,Q):           -493.608502059336


   ==> Components <==

  ---------------------------------------------------------------------------------------------------------
                          Method / Basis                      Rqd      Energy [Eh]   Variable
  ---------------------------------------------------------------------------------------------------------
                              hf / aug-cc-pvtz                  *    -493.55980056   HF TOTAL ENERGY
                             mp2 / aug-cc-pvtz                  *    -495.78192463   MP2 TOTAL ENERGY
                              hf / aug-cc-pvqz                  *    -493.58795611   HF TOTAL ENERGY
                             mp2 / aug-cc-pvqz                  *    -496.04616817   MP2 TOTAL ENERGY
  ---------------------------------------------------------------------------------------------------------

   ==> Stages <==

  ---------------------------------------------------------------------------------------------------------
      Stage               Method / Basis                       Wt      Energy [Eh]   Scheme
  ---------------------------------------------------------------------------------------------------------
        scf                   hf / aug-cc-pvqz                  1    -493.58795611   xtpl_highest_1
       corl                  mp2 / aug-cc-pv[tq]z               1    -496.23899454   corl_xtpl_helgaker_2
       corl                   hf / aug-cc-pv[tq]z              -1    -493.60850206   corl_xtpl_helgaker_2
  ---------------------------------------------------------------------------------------------------------

   ==> CBS <==

  ---------------------------------------------------------------------------------------------------------
      Stage               Method / Basis                               Energy [Eh]   Scheme
  ---------------------------------------------------------------------------------------------------------
        scf                   hf / aug-cc-pvqz                       -493.58795611   xtpl_highest_1
       corl                  mp2 / aug-cc-pv[tq]z                      -2.63049248   corl_xtpl_helgaker_2
      total                  CBS                                     -496.21844859   
  ---------------------------------------------------------------------------------------------------------
   => Loading Basis Set <=

    Name: DEF2-SVP
    Role: ORBITAL
    Keyword: BASIS
    atoms 1, 12                              entry N          line   110 file /home/liuchw/anaconda3/envs/psi4env/share/psi4/basis/def2-svp.gbs 
    atoms 2, 4, 6, 8, 10, 13, 15, 17, 19, 21 entry C          line    90 file /home/liuchw/anaconda3/envs/psi4env/share/psi4/basis/def2-svp.gbs 
    atoms 3, 5, 7, 9, 11, 14, 16, 18, 20, 22 entry H          line    15 file /home/liuchw/anaconda3/envs/psi4env/share/psi4/basis/def2-svp.gbs 


       N-Body: Complex Energy (fragments = (1, 2), basis = (1, 2):  -496.21844859159938)

   ==> N-Body: Counterpoise Corrected (CP) energies <==

   n-Body     Total Energy [Eh]       I.E. [kcal/mol]      Delta [kcal/mol]
        1     -496.212290029952        0.000000000000        0.000000000000
        2     -496.218768736163       -4.065449525294       -4.065449525294

   => Loading Basis Set <=

    Name: DEF2-SVP
    Role: ORBITAL
    Keyword: BASIS
    atoms 1, 12                              entry N          line   110 file /home/liuchw/anaconda3/envs/psi4env/share/psi4/basis/def2-svp.gbs 
    atoms 2, 4, 6, 8, 10, 13, 15, 17, 19, 21 entry C          line    90 file /home/liuchw/anaconda3/envs/psi4env/share/psi4/basis/def2-svp.gbs 
    atoms 3, 5, 7, 9, 11, 14, 16, 18, 20, 22 entry H          line    15 file /home/liuchw/anaconda3/envs/psi4env/share/psi4/basis/def2-svp.gbs 


    Psi4 stopped on: Saturday, 11 April 2020 07:27PM
    Psi4 wall time for execution: 0:41:00.68

*** Psi4 exiting successfully. Buy a developer a beer!
