
    -----------------------------------------------------------------------
          Psi4: An Open-Source Ab Initio Electronic Structure Package
                               Psi4 1.4a2.dev224 

                         Git: Rev {master} e453b16 


    R. M. Parrish, L. A. Burns, D. G. A. Smith, A. C. Simmonett,
    A. E. DePrince III, E. G. Hohenstein, U. Bozkaya, A. Yu. Sokolov,
    R. Di Remigio, R. M. Richard, J. F. Gonthier, A. M. James,
    H. R. McAlexander, A. Kumar, M. Saitow, X. Wang, B. P. Pritchard,
    P. Verma, H. F. Schaefer III, K. Patkowski, R. A. King, E. F. Valeev,
    F. A. Evangelista, J. M. Turney, T. D. Crawford, and C. D. Sherrill,
    J. Chem. Theory Comput. 13(7) pp 3185--3197 (2017).
    (doi: 10.1021/acs.jctc.7b00174)


                         Additional Contributions by
    P. Kraus, H. Kruse, M. H. Lechner, M. C. Schieber, R. A. Shaw,
    A. Alenaizan, R. Galvelis, Z. L. Glick, S. Lehtola, and J. P. Misiewicz

    -----------------------------------------------------------------------


    Psi4 started on: Saturday, 11 April 2020 06:42PM

    Process ID: 7627
    Host:       node61.bme.utexas.edu
    PSIDATADIR: /home/liuchw/anaconda3/envs/psi4env/share/psi4
    Memory:     500.0 MiB
    Threads:    8
    
  ==> Input File <==

--------------------------------------------------------------------------
#Generated by lconvert.py for cbs job

memory 40 GB

molecule  {
0 1
  N       -0.9412110     0.7900410     0.0117190
  C       -0.9227550    -0.5523780     0.0353790
  H        0.0572410    -1.0155880     0.0513550
  C       -2.0765190    -1.3330180     0.0392900
  H       -1.9965290    -2.4105860     0.0588770
  C       -3.3163130    -0.7033400     0.0175990
  H       -4.2315750    -1.2790840     0.0197940
  C       -3.3488950     0.6870190    -0.0070860
  H       -4.2854440     1.2261050    -0.0246590
  C       -2.1431040     1.3826340    -0.0088900
  H       -2.1381000     2.4656530    -0.0277830
--
0 1
  N        2.3423420    -0.9550980     0.0427740
  C        3.5441210    -1.5482740     0.0448540
  H        3.5388970    -2.6312370     0.0667430
  C        4.7500570    -0.8533160     0.0208530
  H        5.6864950    -1.3928510     0.0239470
  C        4.7177390     0.5369890    -0.0068940
  H        5.6331140     1.1122400    -0.0260750
  C        3.4780590     1.1672750    -0.0093710
  H        3.3982860     2.2448330    -0.0304600
  C        2.3241450     0.3872650     0.0158230
  H        1.3442350     0.8509280     0.0141600
units angstrom
no_reorient
symmetry c1
}

set {
scf_type DF
mp2_type DF
e_convergence 7
reference rhf
}

energy('mp2/aug-cc-pv[tq]z', bsse_type='cp')
--------------------------------------------------------------------------

  Memory set to  37.253 GiB by Python driver.

Scratch directory: /scratch//


   ===> N-Body Interaction Abacus <===
        BSSE Treatment:                     cp
        Number of 1-body computations:     4
        Number of 2-body computations:     1

   ==> N-Body: Now computing 1-body complexes <==


       N-Body: Computing complex (1/4) with fragments (2,) in the basis of fragments (2,).


Scratch directory: /scratch//

  //>>>>>>>>>>>>>>>>>>>>>>>>>>>>>>>>>>>//
  //   CBS Setup: mp2/aug-cc-pv[tq]z   //
  //<<<<<<<<<<<<<<<<<<<<<<<<<<<<<<<<<<<//

    Naive listing of computations required.
             hf / aug-cc-pvqz              for  HF TOTAL ENERGY
            mp2 / aug-cc-pvtz              for  MP2 TOTAL ENERGY
            mp2 / aug-cc-pvqz              for  MP2 TOTAL ENERGY
             hf / aug-cc-pvtz              for  HF TOTAL ENERGY
             hf / aug-cc-pvqz              for  HF TOTAL ENERGY

    Enlightened listing of computations required.
            mp2 / aug-cc-pvtz              for  MP2 TOTAL ENERGY
            mp2 / aug-cc-pvqz              for  MP2 TOTAL ENERGY

    Full listing of computations to be obtained (required and bonus).
             hf / aug-cc-pvtz              for  HF TOTAL ENERGY
            mp2 / aug-cc-pvtz              for  MP2 TOTAL ENERGY
             hf / aug-cc-pvqz              for  HF TOTAL ENERGY
            mp2 / aug-cc-pvqz              for  MP2 TOTAL ENERGY

  //>>>>>>>>>>>>>>>>>>>>>>>>>>>>>>>>>>>>//
  // CBS Computation: MP2 / AUG-CC-PVTZ //
  //<<<<<<<<<<<<<<<<<<<<<<<<<<<<<<<<<<<<//


Scratch directory: /scratch//

*** tstart() called on node61.bme.utexas.edu
*** at Sat Apr 11 18:42:09 2020

   => Loading Basis Set <=

    Name: AUG-CC-PVTZ
    Role: ORBITAL
    Keyword: BASIS
    atoms 1              entry N          line   285 file /home/liuchw/anaconda3/envs/psi4env/share/psi4/basis/aug-cc-pvtz.gbs 
    atoms 2, 4, 6, 8, 10 entry C          line   239 file /home/liuchw/anaconda3/envs/psi4env/share/psi4/basis/aug-cc-pvtz.gbs 
    atoms 3, 5, 7, 9, 11 entry H          line    40 file /home/liuchw/anaconda3/envs/psi4env/share/psi4/basis/aug-cc-pvtz.gbs 


         ---------------------------------------------------------
                                   SCF
               by Justin Turney, Rob Parrish, Andy Simmonett
                          and Daniel G. A. Smith
                              RHF Reference
                        8 Threads,  38146 MiB Core
         ---------------------------------------------------------

  ==> Geometry <==

    Molecular point group: c1
    Full point group: C1

    Geometry (in Angstrom), charge = 0, multiplicity = 1:

       Center              X                  Y                   Z               Mass       
    ------------   -----------------  -----------------  -----------------  -----------------
         N            1.641703548138    -0.872249141610     0.026398964242    14.003074004430
         C            2.843482548138    -1.465425141610     0.028478964242    12.000000000000
         H            2.838258548138    -2.548388141610     0.050367964242     1.007825032230
         C            4.049418548138    -0.770467141610     0.004477964242    12.000000000000
         H            4.985856548138    -1.310002141610     0.007571964242     1.007825032230
         C            4.017100548138     0.619837858390    -0.023269035758    12.000000000000
         H            4.932475548138     1.195088858390    -0.042450035758     1.007825032230
         C            2.777420548138     1.250123858390    -0.025746035758    12.000000000000
         H            2.697647548138     2.327681858390    -0.046835035758     1.007825032230
         C            1.623506548138     0.470113858390    -0.000552035758    12.000000000000
         H            0.643596548138     0.933776858390    -0.002215035758     1.007825032230

  Running in c1 symmetry.

  Rotational constants: A =      0.19966  B =      0.02354  C =      0.02106 [cm^-1]
  Rotational constants: A =   5985.61275  B =    705.78195  C =    631.34628 [MHz]
  Nuclear repulsion =  206.168602734437201

  Charge       = 0
  Multiplicity = 1
  Electrons    = 42
  Nalpha       = 21
  Nbeta        = 21

  ==> Algorithm <==

  SCF Algorithm Type is DF.
  DIIS enabled.
  MOM disabled.
  Fractional occupation disabled.
  Guess Type is SAD.
  Energy threshold   = 1.00e-07
  Density threshold  = 1.00e-08
  Integral threshold = 0.00e+00

  ==> Primary Basis <==

  Basis Set: AUG-CC-PVTZ
    Blend: AUG-CC-PVTZ
    Number of shells: 129
    Number of basis function: 391
    Number of Cartesian functions: 455
    Spherical Harmonics?: true
    Max angular momentum: 3

   => Loading Basis Set <=

    Name: (AUG-CC-PVTZ AUX)
    Role: JKFIT
    Keyword: DF_BASIS_SCF
    atoms 1              entry N          line   224 file /home/liuchw/anaconda3/envs/psi4env/share/psi4/basis/aug-cc-pvtz-jkfit.gbs 
    atoms 2, 4, 6, 8, 10 entry C          line   162 file /home/liuchw/anaconda3/envs/psi4env/share/psi4/basis/aug-cc-pvtz-jkfit.gbs 
    atoms 3, 5, 7, 9, 11 entry H          line    70 file /home/liuchw/anaconda3/envs/psi4env/share/psi4/basis/aug-cc-pvtz-jkfit.gbs 

  ==> Pre-Iterations <==

   -------------------------------------------------------
    Irrep   Nso     Nmo     Nalpha   Nbeta   Ndocc  Nsocc
   -------------------------------------------------------
     A        391     391       0       0       0       0
   -------------------------------------------------------
    Total     391     391      21      21      21       0
   -------------------------------------------------------

  ==> Integral Setup <==

  DFHelper Memory: AOs need 1.009 GiB; user supplied 27.940 GiB. Using in-core AOs.

  ==> MemDFJK: Density-Fitted J/K Matrices <==

    J tasked:                   Yes
    K tasked:                   Yes
    wK tasked:                   No
    OpenMP threads:               8
    Memory [MiB]:             28610
    Algorithm:                 Core
    Schwarz Cutoff:           1E-12
    Mask sparsity (%):       0.9131
    Fitting Condition:        1E-10

   => Auxiliary Basis Set <=

  Basis Set: (AUG-CC-PVTZ AUX)
    Blend: AUG-CC-PVTZ-JKFIT
    Number of shells: 250
    Number of basis function: 854
    Number of Cartesian functions: 1061
    Spherical Harmonics?: true
    Max angular momentum: 4

  Minimum eigenvalue in the overlap matrix is 2.3316982511E-06.
  Using Symmetric Orthogonalization.

  SCF Guess: Superposition of Atomic Densities via on-the-fly atomic UHF.

  ==> Iterations <==

                           Total Energy        Delta E     RMS |[F,P]|

   @DF-RHF iter SAD:  -246.15178740190350   -2.46152e+02   0.00000e+00 
   @DF-RHF iter   1:  -246.63299544379447   -4.81208e-01   1.26123e-03 DIIS
   @DF-RHF iter   2:  -246.75301572004435   -1.20020e-01   5.78972e-04 DIIS
   @DF-RHF iter   3:  -246.77705003419186   -2.40343e-02   1.11846e-04 DIIS
   @DF-RHF iter   4:  -246.77843237139859   -1.38234e-03   3.26356e-05 DIIS
   @DF-RHF iter   5:  -246.77851192360848   -7.95522e-05   1.07059e-05 DIIS
   @DF-RHF iter   6:  -246.77852240638384   -1.04828e-05   2.45949e-06 DIIS
   @DF-RHF iter   7:  -246.77852316609417   -7.59710e-07   8.67166e-07 DIIS
   @DF-RHF iter   8:  -246.77852326428939   -9.81952e-08   3.68264e-07 DIIS
   @DF-RHF iter   9:  -246.77852329426321   -2.99738e-08   1.07556e-07 DIIS
   @DF-RHF iter  10:  -246.77852329817352   -3.91032e-09   3.99186e-08 DIIS
   @DF-RHF iter  11:  -246.77852329889038   -7.16852e-10   2.40095e-08 DIIS
   @DF-RHF iter  12:  -246.77852329908006   -1.89686e-10   7.61222e-09 DIIS
  Energy and wave function converged.


  ==> Post-Iterations <==

    Orbital Energies [Eh]
    ---------------------

    Doubly Occupied:                                                      

       1A    -15.567495     2A    -11.276119     3A    -11.275347  
       4A    -11.260668     5A    -11.242682     6A    -11.242610  
       7A     -1.256101     8A     -1.089996     9A     -1.034109  
      10A     -0.859821    11A     -0.855964    12A     -0.722202  
      13A     -0.660700    14A     -0.654678    15A     -0.598938  
      16A     -0.577617    17A     -0.541117    18A     -0.520652  
      19A     -0.419379    20A     -0.384032    21A     -0.348241  

    Virtual:                                                              

      22A      0.026133    23A      0.033276    24A      0.037751  
      25A      0.048793    26A      0.053333    27A      0.077857  
      28A      0.090958    29A      0.100291    30A      0.101999  
      31A      0.104035    32A      0.108711    33A      0.109274  
      34A      0.110362    35A      0.116596    36A      0.118724  
      37A      0.129016    38A      0.130958    39A      0.141801  
      40A      0.148429    41A      0.150831    42A      0.152082  
      43A      0.157329    44A      0.158481    45A      0.196813  
      46A      0.223460    47A      0.241056    48A      0.242687  
      49A      0.243729    50A      0.254313    51A      0.256647  
      52A      0.269944    53A      0.272347    54A      0.285193  
      55A      0.291308    56A      0.292327    57A      0.303982  
      58A      0.306033    59A      0.321956    60A      0.326911  
      61A      0.334258    62A      0.339731    63A      0.341470  
      64A      0.352302    65A      0.354062    66A      0.373524  
      67A      0.384758    68A      0.400188    69A      0.409375  
      70A      0.419567    71A      0.428989    72A      0.432831  
      73A      0.432973    74A      0.439595    75A      0.441385  
      76A      0.451601    77A      0.460254    78A      0.464787  
      79A      0.471167    80A      0.475834    81A      0.480335  
      82A      0.490548    83A      0.493909    84A      0.496938  
      85A      0.510312    86A      0.523252    87A      0.535183  
      88A      0.541380    89A      0.541966    90A      0.543990  
      91A      0.561083    92A      0.589365    93A      0.615155  
      94A      0.615865    95A      0.621281    96A      0.625150  
      97A      0.634792    98A      0.649147    99A      0.651404  
     100A      0.651774   101A      0.671959   102A      0.695959  
     103A      0.710272   104A      0.713544   105A      0.732386  
     106A      0.740081   107A      0.767679   108A      0.770889  
     109A      0.775079   110A      0.779239   111A      0.794167  
     112A      0.800718   113A      0.816259   114A      0.834054  
     115A      0.836256   116A      0.845659   117A      0.849295  
     118A      0.863421   119A      0.882374   120A      0.883172  
     121A      0.885747   122A      0.887737   123A      0.902635  
     124A      0.925214   125A      0.931291   126A      0.937035  
     127A      0.949395   128A      0.952652   129A      0.955311  
     130A      0.959330   131A      0.985730   132A      0.989380  
     133A      1.005997   134A      1.007291   135A      1.014493  
     136A      1.041620   137A      1.044135   138A      1.063627  
     139A      1.070170   140A      1.071987   141A      1.074968  
     142A      1.081184   143A      1.086568   144A      1.088492  
     145A      1.111191   146A      1.112600   147A      1.140725  
     148A      1.152436   149A      1.168316   150A      1.170494  
     151A      1.175653   152A      1.185016   153A      1.186467  
     154A      1.186780   155A      1.194608   156A      1.197537  
     157A      1.209591   158A      1.222031   159A      1.226880  
     160A      1.239690   161A      1.266991   162A      1.273897  
     163A      1.281646   164A      1.287639   165A      1.291937  
     166A      1.297204   167A      1.351072   168A      1.374188  
     169A      1.402880   170A      1.423873   171A      1.443504  
     172A      1.446695   173A      1.460167   174A      1.496090  
     175A      1.504278   176A      1.510497   177A      1.519227  
     178A      1.536725   179A      1.540177   180A      1.587149  
     181A      1.596927   182A      1.627686   183A      1.630535  
     184A      1.668130   185A      1.687083   186A      1.693247  
     187A      1.708595   188A      1.713108   189A      1.716944  
     190A      1.742425   191A      1.757865   192A      1.779111  
     193A      1.786358   194A      1.802865   195A      1.826493  
     196A      1.834473   197A      1.846292   198A      1.855230  
     199A      1.873277   200A      1.882332   201A      1.888373  
     202A      1.913450   203A      1.949081   204A      1.959191  
     205A      1.961649   206A      1.963549   207A      2.013526  
     208A      2.023426   209A      2.025408   210A      2.038383  
     211A      2.039517   212A      2.040409   213A      2.069745  
     214A      2.083960   215A      2.094909   216A      2.130110  
     217A      2.145426   218A      2.156600   219A      2.161621  
     220A      2.162121   221A      2.214805   222A      2.216817  
     223A      2.249044   224A      2.252135   225A      2.295153  
     226A      2.314263   227A      2.359075   228A      2.375322  
     229A      2.384949   230A      2.407718   231A      2.429604  
     232A      2.434638   233A      2.448786   234A      2.510228  
     235A      2.535707   236A      2.541409   237A      2.584568  
     238A      2.648531   239A      2.657641   240A      2.671024  
     241A      2.674498   242A      2.806389   243A      2.809798  
     244A      2.817443   245A      2.913323   246A      2.922832  
     247A      2.973994   248A      2.985279   249A      3.047899  
     250A      3.048416   251A      3.135784   252A      3.158916  
     253A      3.161387   254A      3.247838   255A      3.259841  
     256A      3.303119   257A      3.310544   258A      3.317606  
     259A      3.346258   260A      3.356668   261A      3.385834  
     262A      3.406544   263A      3.408139   264A      3.430019  
     265A      3.432052   266A      3.452444   267A      3.474667  
     268A      3.494541   269A      3.533837   270A      3.541945  
     271A      3.551148   272A      3.564276   273A      3.564714  
     274A      3.579813   275A      3.637333   276A      3.653060  
     277A      3.685775   278A      3.703244   279A      3.710940  
     280A      3.730789   281A      3.762563   282A      3.772860  
     283A      3.773604   284A      3.820035   285A      3.838426  
     286A      3.858793   287A      3.863688   288A      3.874863  
     289A      3.894977   290A      3.921208   291A      3.923383  
     292A      3.953363   293A      3.973314   294A      3.990384  
     295A      3.995852   296A      4.034224   297A      4.043175  
     298A      4.066491   299A      4.088785   300A      4.098446  
     301A      4.127538   302A      4.128431   303A      4.136059  
     304A      4.144339   305A      4.169723   306A      4.205189  
     307A      4.224181   308A      4.225101   309A      4.227690  
     310A      4.265509   311A      4.272502   312A      4.330539  
     313A      4.370614   314A      4.380556   315A      4.411641  
     316A      4.427592   317A      4.438277   318A      4.440130  
     319A      4.465392   320A      4.517141   321A      4.519477  
     322A      4.523136   323A      4.560846   324A      4.646613  
     325A      4.658069   326A      4.693993   327A      4.745449  
     328A      4.754824   329A      4.788648   330A      4.837763  
     331A      4.870491   332A      4.887633   333A      4.898963  
     334A      4.935115   335A      4.957551   336A      4.967406  
     337A      4.988055   338A      5.024647   339A      5.037697  
     340A      5.061366   341A      5.077895   342A      5.106265  
     343A      5.119606   344A      5.138402   345A      5.145235  
     346A      5.195651   347A      5.222837   348A      5.226363  
     349A      5.232036   350A      5.329309   351A      5.385176  
     352A      5.393836   353A      5.401682   354A      5.428330  
     355A      5.444547   356A      5.474151   357A      5.516373  
     358A      5.526635   359A      5.588161   360A      5.604337  
     361A      5.654200   362A      5.779802   363A      5.793408  
     364A      5.812394   365A      5.851362   366A      5.866961  
     367A      5.906423   368A      5.908050   369A      5.974345  
     370A      6.079483   371A      6.117549   372A      6.195433  
     373A      6.226210   374A      6.302851   375A      6.392457  
     376A      6.508187   377A      6.666415   378A      6.679558  
     379A      6.680993   380A      6.738601   381A      6.818402  
     382A      6.879615   383A      7.074258   384A      7.090456  
     385A      7.479077   386A     15.475972   387A     16.278451  
     388A     18.249952   389A     18.560841   390A     19.184037  
     391A     19.256446  

    Final Occupation by Irrep:
              A 
    DOCC [    21 ]

  @DF-RHF Final Energy:  -246.77852329908006

   => Energetics <=

    Nuclear Repulsion Energy =            206.1686027344372008
    One-Electron Energy =                -741.1173172401221336
    Two-Electron Energy =                 288.1701912066048976
    Total Energy =                       -246.7785232990800637

Computation Completed


Properties will be evaluated at   0.000000,   0.000000,   0.000000 [a0]

Properties computed using the SCF density matrix

  Nuclear Dipole Moment: [e a0]
     X:   225.7379      Y:    -9.2266      Z:     0.0975

  Electronic Dipole Moment: [e a0]
     X:  -224.9638      Y:     9.7154      Z:    -0.1138

  Dipole Moment: [e a0]
     X:     0.7741      Y:     0.4889      Z:    -0.0164     Total:     0.9157

  Dipole Moment: [D]
     X:     1.9675      Y:     1.2426      Z:    -0.0416     Total:     2.3274


*** tstop() called on node61.bme.utexas.edu at Sat Apr 11 18:42:15 2020
Module time:
	user time   =      41.79 seconds =       0.70 minutes
	system time =       1.63 seconds =       0.03 minutes
	total time  =          6 seconds =       0.10 minutes
Total time:
	user time   =      41.79 seconds =       0.70 minutes
	system time =       1.63 seconds =       0.03 minutes
	total time  =          6 seconds =       0.10 minutes

*** tstart() called on node61.bme.utexas.edu
*** at Sat Apr 11 18:42:15 2020


  //>>>>>>>>>>>>>>>>>>>>>>>>>>>>>>>>>>>//
  //               DFMP2               //
  //<<<<<<<<<<<<<<<<<<<<<<<<<<<<<<<<<<<//

   => Loading Basis Set <=

    Name: (AUG-CC-PVTZ AUX)
    Role: RIFIT
    Keyword: DF_BASIS_MP2
    atoms 1              entry N          line   206 file /home/liuchw/anaconda3/envs/psi4env/share/psi4/basis/aug-cc-pvtz-ri.gbs 
    atoms 2, 4, 6, 8, 10 entry C          line   148 file /home/liuchw/anaconda3/envs/psi4env/share/psi4/basis/aug-cc-pvtz-ri.gbs 
    atoms 3, 5, 7, 9, 11 entry H          line    30 file /home/liuchw/anaconda3/envs/psi4env/share/psi4/basis/aug-cc-pvtz-ri.gbs 

	 --------------------------------------------------------
	                          DF-MP2                         
	      2nd-Order Density-Fitted Moller-Plesset Theory     
	              RMP2 Wavefunction,   8 Threads             
	                                                         
	        Rob Parrish, Justin Turney, Andy Simmonett,      
	           Ed Hohenstein, and C. David Sherrill          
	 --------------------------------------------------------

   => Auxiliary Basis Set <=

  Basis Set: (AUG-CC-PVTZ AUX)
    Blend: AUG-CC-PVTZ-RI
    Number of shells: 238
    Number of basis function: 866
    Number of Cartesian functions: 1091
    Spherical Harmonics?: true
    Max angular momentum: 4

	 --------------------------------------------------------
	                 NBF =   391, NAUX =   866
	 --------------------------------------------------------
	   CLASS    FOCC     OCC    AOCC    AVIR     VIR    FVIR
	   PAIRS       0      21      21     370     370       0
	 --------------------------------------------------------

	-----------------------------------------------------------
	 ==================> DF-MP2 Energies <==================== 
	-----------------------------------------------------------
	 Reference Energy          =    -246.7785232990800637 [Eh]
	 Singles Energy            =      -0.0000000000000000 [Eh]
	 Same-Spin Energy          =      -0.2688251318702751 [Eh]
	 Opposite-Spin Energy      =      -0.8389104105225571 [Eh]
	 Correlation Energy        =      -1.1077355423928323 [Eh]
	 Total Energy              =    -247.8862588414729089 [Eh]
	-----------------------------------------------------------
	 ================> DF-SCS-MP2 Energies <================== 
	-----------------------------------------------------------
	 SCS Same-Spin Scale       =       0.3333333333333333 [-]
	 SCS Opposite-Spin Scale   =       1.2000000000000000 [-]
	 SCS Same-Spin Energy      =      -0.0896083772900917 [Eh]
	 SCS Opposite-Spin Energy  =      -1.0066924926270684 [Eh]
	 SCS Correlation Energy    =      -1.0963008699171601 [Eh]
	 SCS Total Energy          =    -247.8748241689972360 [Eh]
	-----------------------------------------------------------


*** tstop() called on node61.bme.utexas.edu at Sat Apr 11 18:42:18 2020
Module time:
	user time   =      18.99 seconds =       0.32 minutes
	system time =       0.67 seconds =       0.01 minutes
	total time  =          3 seconds =       0.05 minutes
Total time:
	user time   =      60.79 seconds =       1.01 minutes
	system time =       2.31 seconds =       0.04 minutes
	total time  =          9 seconds =       0.15 minutes

  //>>>>>>>>>>>>>>>>>>>>>>>>>>>>>>>>>>>>//
  // CBS Computation: MP2 / AUG-CC-PVQZ //
  //<<<<<<<<<<<<<<<<<<<<<<<<<<<<<<<<<<<<//


Scratch directory: /scratch//

*** tstart() called on node61.bme.utexas.edu
*** at Sat Apr 11 18:42:18 2020

   => Loading Basis Set <=

    Name: AUG-CC-PVQZ
    Role: ORBITAL
    Keyword: BASIS
    atoms 1              entry N          line   363 file /home/liuchw/anaconda3/envs/psi4env/share/psi4/basis/aug-cc-pvqz.gbs 
    atoms 2, 4, 6, 8, 10 entry C          line   303 file /home/liuchw/anaconda3/envs/psi4env/share/psi4/basis/aug-cc-pvqz.gbs 
    atoms 3, 5, 7, 9, 11 entry H          line    40 file /home/liuchw/anaconda3/envs/psi4env/share/psi4/basis/aug-cc-pvqz.gbs 


         ---------------------------------------------------------
                                   SCF
               by Justin Turney, Rob Parrish, Andy Simmonett
                          and Daniel G. A. Smith
                              RHF Reference
                        8 Threads,  38146 MiB Core
         ---------------------------------------------------------

  ==> Geometry <==

    Molecular point group: c1
    Full point group: C1

    Geometry (in Angstrom), charge = 0, multiplicity = 1:

       Center              X                  Y                   Z               Mass       
    ------------   -----------------  -----------------  -----------------  -----------------
         N            1.641703548138    -0.872249141610     0.026398964242    14.003074004430
         C            2.843482548138    -1.465425141610     0.028478964242    12.000000000000
         H            2.838258548138    -2.548388141610     0.050367964242     1.007825032230
         C            4.049418548138    -0.770467141610     0.004477964242    12.000000000000
         H            4.985856548138    -1.310002141610     0.007571964242     1.007825032230
         C            4.017100548138     0.619837858390    -0.023269035758    12.000000000000
         H            4.932475548138     1.195088858390    -0.042450035758     1.007825032230
         C            2.777420548138     1.250123858390    -0.025746035758    12.000000000000
         H            2.697647548138     2.327681858390    -0.046835035758     1.007825032230
         C            1.623506548138     0.470113858390    -0.000552035758    12.000000000000
         H            0.643596548138     0.933776858390    -0.002215035758     1.007825032230

  Running in c1 symmetry.

  Rotational constants: A =      0.19966  B =      0.02354  C =      0.02106 [cm^-1]
  Rotational constants: A =   5985.61275  B =    705.78195  C =    631.34628 [MHz]
  Nuclear repulsion =  206.168602734437201

  Charge       = 0
  Multiplicity = 1
  Electrons    = 42
  Nalpha       = 21
  Nbeta        = 21

  ==> Algorithm <==

  SCF Algorithm Type is DF.
  DIIS enabled.
  MOM disabled.
  Fractional occupation disabled.
  Guess Type is SAD.
  Energy threshold   = 1.00e-07
  Density threshold  = 1.00e-08
  Integral threshold = 0.00e+00

  ==> Primary Basis <==

  Basis Set: AUG-CC-PVQZ
    Blend: AUG-CC-PVQZ
    Number of shells: 190
    Number of basis function: 710
    Number of Cartesian functions: 905
    Spherical Harmonics?: true
    Max angular momentum: 4

   => Loading Basis Set <=

    Name: (AUG-CC-PVQZ AUX)
    Role: JKFIT
    Keyword: DF_BASIS_SCF
    atoms 1              entry N          line   248 file /home/liuchw/anaconda3/envs/psi4env/share/psi4/basis/aug-cc-pvqz-jkfit.gbs 
    atoms 2, 4, 6, 8, 10 entry C          line   178 file /home/liuchw/anaconda3/envs/psi4env/share/psi4/basis/aug-cc-pvqz-jkfit.gbs 
    atoms 3, 5, 7, 9, 11 entry H          line    70 file /home/liuchw/anaconda3/envs/psi4env/share/psi4/basis/aug-cc-pvqz-jkfit.gbs 

  ==> Pre-Iterations <==

   -------------------------------------------------------
    Irrep   Nso     Nmo     Nalpha   Nbeta   Ndocc  Nsocc
   -------------------------------------------------------
     A        710     710       0       0       0       0
   -------------------------------------------------------
    Total     710     710      21      21      21       0
   -------------------------------------------------------

  ==> Integral Setup <==

  DFHelper Memory: AOs need 4.662 GiB; user supplied 27.940 GiB. Using in-core AOs.

  ==> MemDFJK: Density-Fitted J/K Matrices <==

    J tasked:                   Yes
    K tasked:                   Yes
    wK tasked:                   No
    OpenMP threads:               8
    Memory [MiB]:             28610
    Algorithm:                 Core
    Schwarz Cutoff:           1E-12
    Mask sparsity (%):       2.8288
    Fitting Condition:        1E-10

   => Auxiliary Basis Set <=

  Basis Set: (AUG-CC-PVQZ AUX)
    Blend: AUG-CC-PVQZ-JKFIT
    Number of shells: 294
    Number of basis function: 1232
    Number of Cartesian functions: 1693
    Spherical Harmonics?: true
    Max angular momentum: 5

  Minimum eigenvalue in the overlap matrix is 6.9094691774E-07.
  Using Symmetric Orthogonalization.

  SCF Guess: Superposition of Atomic Densities via on-the-fly atomic UHF.

  ==> Iterations <==

                           Total Energy        Delta E     RMS |[F,P]|

   @DF-RHF iter SAD:  -246.16184839064556   -2.46162e+02   0.00000e+00 
   @DF-RHF iter   1:  -246.64653062456753   -4.84682e-01   6.98893e-04 DIIS
   @DF-RHF iter   2:  -246.76691763706259   -1.20387e-01   3.21342e-04 DIIS
   @DF-RHF iter   3:  -246.79117100552259   -2.42534e-02   6.25921e-05 DIIS
   @DF-RHF iter   4:  -246.79256979515921   -1.39879e-03   1.78919e-05 DIIS
   @DF-RHF iter   5:  -246.79264920593607   -7.94108e-05   6.11571e-06 DIIS
   @DF-RHF iter   6:  -246.79266022131043   -1.10154e-05   1.38826e-06 DIIS
   @DF-RHF iter   7:  -246.79266100898133   -7.87671e-07   4.80463e-07 DIIS
   @DF-RHF iter   8:  -246.79266110773321   -9.87519e-08   2.07058e-07 DIIS
   @DF-RHF iter   9:  -246.79266113819790   -3.04647e-08   6.05433e-08 DIIS
   @DF-RHF iter  10:  -246.79266114222548   -4.02758e-09   2.23836e-08 DIIS
   @DF-RHF iter  11:  -246.79266114295919   -7.33706e-10   1.34910e-08 DIIS
   @DF-RHF iter  12:  -246.79266114315305   -1.93864e-10   4.28150e-09 DIIS
  Energy and wave function converged.


  ==> Post-Iterations <==

    Orbital Energies [Eh]
    ---------------------

    Doubly Occupied:                                                      

       1A    -15.565317     2A    -11.275068     3A    -11.274294  
       4A    -11.259607     5A    -11.241552     6A    -11.241478  
       7A     -1.255527     8A     -1.089590     9A     -1.033771  
      10A     -0.859614    11A     -0.855765    12A     -0.722238  
      13A     -0.660670    14A     -0.654662    15A     -0.598957  
      16A     -0.577659    17A     -0.541218    18A     -0.520705  
      19A     -0.419525    20A     -0.384117    21A     -0.348329  

    Virtual:                                                              

      22A      0.023010    23A      0.028856    24A      0.033236  
      25A      0.043043    26A      0.047151    27A      0.065982  
      28A      0.081762    29A      0.087677    30A      0.088965  
      31A      0.091260    32A      0.095109    33A      0.095916  
      34A      0.097130    35A      0.099898    36A      0.102417  
      37A      0.113007    38A      0.114949    39A      0.124446  
      40A      0.127452    41A      0.128212    42A      0.132057  
      43A      0.133590    44A      0.136955    45A      0.170361  
      46A      0.186557    47A      0.205022    48A      0.210292  
      49A      0.211631    50A      0.215795    51A      0.221492  
      52A      0.228782    53A      0.237075    54A      0.244820  
      55A      0.245482    56A      0.253897    57A      0.254208  
      58A      0.254236    59A      0.266483    60A      0.280525  
      61A      0.286013    62A      0.289983    63A      0.293877  
      64A      0.296190    65A      0.300180    66A      0.300975  
      67A      0.309474    68A      0.318640    69A      0.318780  
      70A      0.319851    71A      0.338335    72A      0.350183  
      73A      0.351114    74A      0.362359    75A      0.364960  
      76A      0.368726    77A      0.368955    78A      0.384125  
      79A      0.386075    80A      0.399980    81A      0.400785  
      82A      0.419638    83A      0.423455    84A      0.424856  
      85A      0.427403    86A      0.429905    87A      0.435166  
      88A      0.437179    89A      0.440290    90A      0.456029  
      91A      0.459147    92A      0.467437    93A      0.470331  
      94A      0.471168    95A      0.490511    96A      0.491032  
      97A      0.505833    98A      0.506668    99A      0.512787  
     100A      0.518067   101A      0.518689   102A      0.530533  
     103A      0.541921   104A      0.566862   105A      0.567306  
     106A      0.572434   107A      0.580398   108A      0.582316  
     109A      0.587379   110A      0.602891   111A      0.610093  
     112A      0.611686   113A      0.623445   114A      0.645254  
     115A      0.656316   116A      0.659223   117A      0.662949  
     118A      0.667912   119A      0.669640   120A      0.675109  
     121A      0.702732   122A      0.704901   123A      0.706875  
     124A      0.719454   125A      0.731288   126A      0.734959  
     127A      0.736128   128A      0.744259   129A      0.748814  
     130A      0.758076   131A      0.765219   132A      0.778109  
     133A      0.780814   134A      0.787305   135A      0.791085  
     136A      0.797772   137A      0.801246   138A      0.801514  
     139A      0.809581   140A      0.823115   141A      0.834021  
     142A      0.840070   143A      0.843206   144A      0.849458  
     145A      0.854851   146A      0.859933   147A      0.891737  
     148A      0.892675   149A      0.899087   150A      0.903095  
     151A      0.920103   152A      0.926628   153A      0.933189  
     154A      0.937188   155A      0.950903   156A      0.951134  
     157A      0.953530   158A      0.962136   159A      0.963546  
     160A      0.966574   161A      0.977432   162A      0.988334  
     163A      0.989624   164A      1.001525   165A      1.022984  
     166A      1.027582   167A      1.046428   168A      1.057861  
     169A      1.082354   170A      1.090353   171A      1.092015  
     172A      1.110536   173A      1.123980   174A      1.131135  
     175A      1.142135   176A      1.162255   177A      1.166284  
     178A      1.179130   179A      1.181740   180A      1.182330  
     181A      1.194005   182A      1.212840   183A      1.228138  
     184A      1.230063   185A      1.230745   186A      1.248809  
     187A      1.259251   188A      1.260980   189A      1.299413  
     190A      1.301243   191A      1.317351   192A      1.318067  
     193A      1.330267   194A      1.330439   195A      1.355418  
     196A      1.365395   197A      1.370708   198A      1.381399  
     199A      1.383961   200A      1.388948   201A      1.396142  
     202A      1.402926   203A      1.419390   204A      1.421097  
     205A      1.425727   206A      1.434144   207A      1.459705  
     208A      1.471340   209A      1.494879   210A      1.516001  
     211A      1.526838   212A      1.542621   213A      1.546467  
     214A      1.548216   215A      1.548239   216A      1.552815  
     217A      1.556248   218A      1.571690   219A      1.579725  
     220A      1.583303   221A      1.587625   222A      1.601435  
     223A      1.608279   224A      1.613694   225A      1.621353  
     226A      1.626287   227A      1.644541   228A      1.670385  
     229A      1.672913   230A      1.698847   231A      1.720046  
     232A      1.729051   233A      1.734225   234A      1.739247  
     235A      1.748594   236A      1.773169   237A      1.780321  
     238A      1.797865   239A      1.835706   240A      1.836531  
     241A      1.836811   242A      1.851195   243A      1.855153  
     244A      1.862747   245A      1.909254   246A      1.910273  
     247A      1.921931   248A      1.932858   249A      1.937325  
     250A      1.937376   251A      1.973832   252A      1.974599  
     253A      1.976699   254A      1.990357   255A      1.994530  
     256A      2.002933   257A      2.007490   258A      2.010745  
     259A      2.014565   260A      2.038874   261A      2.048476  
     262A      2.060152   263A      2.068048   264A      2.075206  
     265A      2.081638   266A      2.084291   267A      2.092170  
     268A      2.099597   269A      2.122223   270A      2.126703  
     271A      2.151292   272A      2.151819   273A      2.153793  
     274A      2.167612   275A      2.190631   276A      2.196829  
     277A      2.230403   278A      2.238028   279A      2.241190  
     280A      2.250651   281A      2.254341   282A      2.259280  
     283A      2.275370   284A      2.278278   285A      2.279247  
     286A      2.294134   287A      2.304015   288A      2.304075  
     289A      2.315443   290A      2.338260   291A      2.339403  
     292A      2.343328   293A      2.366606   294A      2.376485  
     295A      2.383104   296A      2.385709   297A      2.387490  
     298A      2.414160   299A      2.416510   300A      2.423806  
     301A      2.424627   302A      2.447975   303A      2.458064  
     304A      2.468584   305A      2.468722   306A      2.469475  
     307A      2.484400   308A      2.508694   309A      2.509475  
     310A      2.516050   311A      2.528505   312A      2.559866  
     313A      2.560641   314A      2.568629   315A      2.573960  
     316A      2.576148   317A      2.587495   318A      2.594769  
     319A      2.595494   320A      2.612161   321A      2.627322  
     322A      2.630952   323A      2.633033   324A      2.708223  
     325A      2.708376   326A      2.709321   327A      2.726639  
     328A      2.759439   329A      2.763424   330A      2.770288  
     331A      2.772411   332A      2.784502   333A      2.802289  
     334A      2.804575   335A      2.804792   336A      2.819036  
     337A      2.838333   338A      2.857943   339A      2.881290  
     340A      2.903850   341A      2.905653   342A      2.929868  
     343A      2.942844   344A      2.965331   345A      2.995632  
     346A      3.006112   347A      3.018078   348A      3.027993  
     349A      3.028012   350A      3.029855   351A      3.071389  
     352A      3.077197   353A      3.097202   354A      3.134451  
     355A      3.137158   356A      3.138810   357A      3.147661  
     358A      3.167633   359A      3.211354   360A      3.214254  
     361A      3.229108   362A      3.234479   363A      3.269629  
     364A      3.274118   365A      3.297804   366A      3.302027  
     367A      3.311500   368A      3.313150   369A      3.340046  
     370A      3.351980   371A      3.360332   372A      3.374063  
     373A      3.379276   374A      3.390380   375A      3.445880  
     376A      3.453513   377A      3.465401   378A      3.502956  
     379A      3.524926   380A      3.527696   381A      3.547189  
     382A      3.571908   383A      3.603609   384A      3.604706  
     385A      3.628560   386A      3.654371   387A      3.666881  
     388A      3.676989   389A      3.679484   390A      3.712716  
     391A      3.719597   392A      3.725749   393A      3.747205  
     394A      3.747648   395A      3.796139   396A      3.820432  
     397A      3.834084   398A      3.855426   399A      3.878362  
     400A      3.888082   401A      3.894817   402A      3.919541  
     403A      3.925117   404A      3.929501   405A      3.933384  
     406A      3.961324   407A      3.966698   408A      3.973838  
     409A      4.013596   410A      4.030450   411A      4.032884  
     412A      4.045875   413A      4.051796   414A      4.084637  
     415A      4.124660   416A      4.141047   417A      4.143665  
     418A      4.153190   419A      4.155651   420A      4.191776  
     421A      4.201843   422A      4.251425   423A      4.267118  
     424A      4.269646   425A      4.323239   426A      4.324378  
     427A      4.338766   428A      4.370589   429A      4.376799  
     430A      4.401797   431A      4.405063   432A      4.435482  
     433A      4.437146   434A      4.465757   435A      4.470883  
     436A      4.493388   437A      4.502786   438A      4.509014  
     439A      4.549764   440A      4.566742   441A      4.567280  
     442A      4.577240   443A      4.608048   444A      4.617690  
     445A      4.668397   446A      4.691066   447A      4.698215  
     448A      4.720717   449A      4.743886   450A      4.788214  
     451A      4.824394   452A      4.854653   453A      4.882066  
     454A      4.897296   455A      4.907435   456A      4.930942  
     457A      4.973250   458A      4.997727   459A      5.001327  
     460A      5.026076   461A      5.035066   462A      5.068540  
     463A      5.116739   464A      5.146932   465A      5.199427  
     466A      5.216876   467A      5.239210   468A      5.299495  
     469A      5.373342   470A      5.407768   471A      5.429845  
     472A      5.446535   473A      5.471218   474A      5.544280  
     475A      5.618396   476A      5.699969   477A      5.738690  
     478A      5.797810   479A      5.799860   480A      5.827379  
     481A      5.847007   482A      5.889636   483A      5.916944  
     484A      5.987129   485A      6.008399   486A      6.043561  
     487A      6.050829   488A      6.078560   489A      6.099557  
     490A      6.121546   491A      6.131460   492A      6.153944  
     493A      6.156351   494A      6.184569   495A      6.215329  
     496A      6.306219   497A      6.309226   498A      6.324184  
     499A      6.378295   500A      6.384117   501A      6.413951  
     502A      6.428170   503A      6.465261   504A      6.471706  
     505A      6.513844   506A      6.545089   507A      6.584515  
     508A      6.587737   509A      6.592361   510A      6.600213  
     511A      6.614938   512A      6.636883   513A      6.638783  
     514A      6.649902   515A      6.651328   516A      6.668174  
     517A      6.683306   518A      6.710421   519A      6.750065  
     520A      6.775679   521A      6.793957   522A      6.801867  
     523A      6.820837   524A      6.854208   525A      6.862231  
     526A      6.888563   527A      6.900251   528A      6.903725  
     529A      6.935591   530A      6.955562   531A      6.978926  
     532A      6.998642   533A      7.021405   534A      7.023024  
     535A      7.032944   536A      7.053192   537A      7.063308  
     538A      7.080626   539A      7.090290   540A      7.122853  
     541A      7.147205   542A      7.148818   543A      7.166420  
     544A      7.184686   545A      7.198269   546A      7.215852  
     547A      7.217369   548A      7.242110   549A      7.285107  
     550A      7.289912   551A      7.325092   552A      7.326149  
     553A      7.342721   554A      7.387728   555A      7.395728  
     556A      7.396214   557A      7.405186   558A      7.436947  
     559A      7.464517   560A      7.503529   561A      7.519025  
     562A      7.569340   563A      7.580566   564A      7.588803  
     565A      7.630223   566A      7.637660   567A      7.643107  
     568A      7.679044   569A      7.715494   570A      7.744147  
     571A      7.770654   572A      7.773740   573A      7.779970  
     574A      7.809735   575A      7.838798   576A      7.857420  
     577A      7.875955   578A      7.925305   579A      7.943048  
     580A      7.999881   581A      8.005325   582A      8.015638  
     583A      8.027608   584A      8.062677   585A      8.070204  
     586A      8.094199   587A      8.145850   588A      8.146943  
     589A      8.151664   590A      8.277336   591A      8.302165  
     592A      8.320746   593A      8.355212   594A      8.362948  
     595A      8.377800   596A      8.457232   597A      8.488923  
     598A      8.522107   599A      8.541671   600A      8.617340  
     601A      8.619054   602A      8.639137   603A      8.665059  
     604A      8.697180   605A      8.698322   606A      8.706912  
     607A      8.717769   608A      8.809625   609A      8.819771  
     610A      8.857576   611A      8.871889   612A      8.890469  
     613A      8.890937   614A      8.938670   615A      8.941524  
     616A      8.955824   617A      8.957935   618A      8.962297  
     619A      9.038530   620A      9.049482   621A      9.078620  
     622A      9.118406   623A      9.140869   624A      9.172294  
     625A      9.194848   626A      9.201281   627A      9.217936  
     628A      9.255437   629A      9.327228   630A      9.355534  
     631A      9.392497   632A      9.398398   633A      9.415427  
     634A      9.445612   635A      9.499438   636A      9.548736  
     637A      9.552073   638A      9.553478   639A      9.592301  
     640A      9.595997   641A      9.608260   642A      9.648399  
     643A      9.701818   644A      9.721582   645A      9.722075  
     646A      9.738345   647A      9.793071   648A      9.866170  
     649A      9.901321   650A      9.959981   651A      9.962204  
     652A      9.963733   653A      9.982049   654A     10.009216  
     655A     10.015922   656A     10.027205   657A     10.090964  
     658A     10.216224   659A     10.231147   660A     10.233427  
     661A     10.241582   662A     10.290021   663A     10.316591  
     664A     10.327942   665A     10.380502   666A     10.391023  
     667A     10.464971   668A     10.476646   669A     10.494503  
     670A     10.505535   671A     10.509198   672A     10.576084  
     673A     10.636954   674A     10.647245   675A     10.717599  
     676A     10.763788   677A     10.765557   678A     10.776131  
     679A     10.794517   680A     10.845045   681A     10.876616  
     682A     11.049625   683A     11.067255   684A     11.191865  
     685A     11.197589   686A     11.364932   687A     11.373185  
     688A     11.441958   689A     11.454212   690A     11.561675  
     691A     11.636490   692A     11.666183   693A     11.693841  
     694A     11.767126   695A     11.897596   696A     12.289486  
     697A     12.489179   698A     12.725440   699A     12.840478  
     700A     13.199899   701A     13.366069   702A     13.377401  
     703A     13.514282   704A     13.570845   705A     26.158979  
     706A     26.283766   707A     26.512385   708A     26.940529  
     709A     27.178410   710A     34.200857  

    Final Occupation by Irrep:
              A 
    DOCC [    21 ]

  @DF-RHF Final Energy:  -246.79266114315305

   => Energetics <=

    Nuclear Repulsion Energy =            206.1686027344372008
    One-Electron Energy =                -741.1631973961571020
    Two-Electron Energy =                 288.2019335185668751
    Total Energy =                       -246.7926611431530546

Computation Completed


Properties will be evaluated at   0.000000,   0.000000,   0.000000 [a0]

Properties computed using the SCF density matrix

  Nuclear Dipole Moment: [e a0]
     X:   225.7379      Y:    -9.2266      Z:     0.0975

  Electronic Dipole Moment: [e a0]
     X:  -224.9645      Y:     9.7150      Z:    -0.1138

  Dipole Moment: [e a0]
     X:     0.7734      Y:     0.4885      Z:    -0.0163     Total:     0.9149

  Dipole Moment: [D]
     X:     1.9658      Y:     1.2415      Z:    -0.0415     Total:     2.3254


*** tstop() called on node61.bme.utexas.edu at Sat Apr 11 18:42:40 2020
Module time:
	user time   =     153.22 seconds =       2.55 minutes
	system time =       4.13 seconds =       0.07 minutes
	total time  =         22 seconds =       0.37 minutes
Total time:
	user time   =     214.07 seconds =       3.57 minutes
	system time =       6.45 seconds =       0.11 minutes
	total time  =         31 seconds =       0.52 minutes

*** tstart() called on node61.bme.utexas.edu
*** at Sat Apr 11 18:42:40 2020


  //>>>>>>>>>>>>>>>>>>>>>>>>>>>>>>>>>>>//
  //               DFMP2               //
  //<<<<<<<<<<<<<<<<<<<<<<<<<<<<<<<<<<<//

   => Loading Basis Set <=

    Name: (AUG-CC-PVQZ AUX)
    Role: RIFIT
    Keyword: DF_BASIS_MP2
    atoms 1              entry N          line   258 file /home/liuchw/anaconda3/envs/psi4env/share/psi4/basis/aug-cc-pvqz-ri.gbs 
    atoms 2, 4, 6, 8, 10 entry C          line   184 file /home/liuchw/anaconda3/envs/psi4env/share/psi4/basis/aug-cc-pvqz-ri.gbs 
    atoms 3, 5, 7, 9, 11 entry H          line    30 file /home/liuchw/anaconda3/envs/psi4env/share/psi4/basis/aug-cc-pvqz-ri.gbs 

	 --------------------------------------------------------
	                          DF-MP2                         
	      2nd-Order Density-Fitted Moller-Plesset Theory     
	              RMP2 Wavefunction,   8 Threads             
	                                                         
	        Rob Parrish, Justin Turney, Andy Simmonett,      
	           Ed Hohenstein, and C. David Sherrill          
	 --------------------------------------------------------

   => Auxiliary Basis Set <=

  Basis Set: (AUG-CC-PVQZ AUX)
    Blend: AUG-CC-PVQZ-RI
    Number of shells: 316
    Number of basis function: 1408
    Number of Cartesian functions: 1947
    Spherical Harmonics?: true
    Max angular momentum: 5

	 --------------------------------------------------------
	                 NBF =   710, NAUX =  1408
	 --------------------------------------------------------
	   CLASS    FOCC     OCC    AOCC    AVIR     VIR    FVIR
	   PAIRS       0      21      21     689     689       0
	 --------------------------------------------------------

	-----------------------------------------------------------
	 ==================> DF-MP2 Energies <==================== 
	-----------------------------------------------------------
	 Reference Energy          =    -246.7926611431530546 [Eh]
	 Singles Energy            =      -0.0000000000000000 [Eh]
	 Same-Spin Energy          =      -0.2841964351701133 [Eh]
	 Opposite-Spin Energy      =      -0.9424873567730878 [Eh]
	 Correlation Energy        =      -1.2266837919432012 [Eh]
	 Total Energy              =    -248.0193449350962567 [Eh]
	-----------------------------------------------------------
	 ================> DF-SCS-MP2 Energies <================== 
	-----------------------------------------------------------
	 SCS Same-Spin Scale       =       0.3333333333333333 [-]
	 SCS Opposite-Spin Scale   =       1.2000000000000000 [-]
	 SCS Same-Spin Energy      =      -0.0947321450567044 [Eh]
	 SCS Opposite-Spin Energy  =      -1.1309848281277053 [Eh]
	 SCS Correlation Energy    =      -1.2257169731844098 [Eh]
	 SCS Total Energy          =    -248.0183781163374590 [Eh]
	-----------------------------------------------------------


*** tstop() called on node61.bme.utexas.edu at Sat Apr 11 18:42:53 2020
Module time:
	user time   =      75.53 seconds =       1.26 minutes
	system time =       2.13 seconds =       0.04 minutes
	total time  =         13 seconds =       0.22 minutes
Total time:
	user time   =     289.61 seconds =       4.83 minutes
	system time =       8.58 seconds =       0.14 minutes
	total time  =         44 seconds =       0.73 minutes

  //>>>>>>>>>>>>>>>>>>>>>>>>>>>>>>>>>>>//
  //  CBS Results: mp2/aug-cc-pv[tq]z  //
  //<<<<<<<<<<<<<<<<<<<<<<<<<<<<<<<<<<<//


   ==> HF <==

   HI-zeta (4) Energy:               -246.792661143153


   ==> Helgaker 2-point correlated extrapolation for method: MP2 <==

   LO-zeta (3) Energy:               -247.886258841473
   HI-zeta (4) Energy:               -248.019344935096
   Alpha (exponent) Value:             3.000000000000
   Extrapolated Energy:              -248.116461814227

   @Extrapolated MP2/(T,Q):          -248.116461814227



   ==> Helgaker 2-point correlated extrapolation for method: HF <==

   LO-zeta (3) Energy:               -246.778523299080
   HI-zeta (4) Energy:               -246.792661143153
   Alpha (exponent) Value:             3.000000000000
   Extrapolated Energy:              -246.802977948287

   @Extrapolated HF/(T,Q):           -246.802977948287


   ==> Components <==

  ---------------------------------------------------------------------------------------------------------
                          Method / Basis                      Rqd      Energy [Eh]   Variable
  ---------------------------------------------------------------------------------------------------------
                              hf / aug-cc-pvtz                  *    -246.77852330   HF TOTAL ENERGY
                             mp2 / aug-cc-pvtz                  *    -247.88625884   MP2 TOTAL ENERGY
                              hf / aug-cc-pvqz                  *    -246.79266114   HF TOTAL ENERGY
                             mp2 / aug-cc-pvqz                  *    -248.01934494   MP2 TOTAL ENERGY
  ---------------------------------------------------------------------------------------------------------

   ==> Stages <==

  ---------------------------------------------------------------------------------------------------------
      Stage               Method / Basis                       Wt      Energy [Eh]   Scheme
  ---------------------------------------------------------------------------------------------------------
        scf                   hf / aug-cc-pvqz                  1    -246.79266114   xtpl_highest_1
       corl                  mp2 / aug-cc-pv[tq]z               1    -248.11646181   corl_xtpl_helgaker_2
       corl                   hf / aug-cc-pv[tq]z              -1    -246.80297795   corl_xtpl_helgaker_2
  ---------------------------------------------------------------------------------------------------------

   ==> CBS <==

  ---------------------------------------------------------------------------------------------------------
      Stage               Method / Basis                               Energy [Eh]   Scheme
  ---------------------------------------------------------------------------------------------------------
        scf                   hf / aug-cc-pvqz                       -246.79266114   xtpl_highest_1
       corl                  mp2 / aug-cc-pv[tq]z                      -1.31348387   corl_xtpl_helgaker_2
      total                  CBS                                     -248.10614501   
  ---------------------------------------------------------------------------------------------------------
   => Loading Basis Set <=

    Name: DEF2-SVP
    Role: ORBITAL
    Keyword: BASIS
    atoms 1              entry N          line   110 file /home/liuchw/anaconda3/envs/psi4env/share/psi4/basis/def2-svp.gbs 
    atoms 2, 4, 6, 8, 10 entry C          line    90 file /home/liuchw/anaconda3/envs/psi4env/share/psi4/basis/def2-svp.gbs 
    atoms 3, 5, 7, 9, 11 entry H          line    15 file /home/liuchw/anaconda3/envs/psi4env/share/psi4/basis/def2-svp.gbs 


       N-Body: Complex Energy (fragments = (2,), basis = (2,):  -248.10614500909244)

       N-Body: Computing complex (2/4) with fragments (2,) in the basis of fragments (1, 2).


Scratch directory: /scratch//

  //>>>>>>>>>>>>>>>>>>>>>>>>>>>>>>>>>>>//
  //   CBS Setup: mp2/aug-cc-pv[tq]z   //
  //<<<<<<<<<<<<<<<<<<<<<<<<<<<<<<<<<<<//

    Naive listing of computations required.
             hf / aug-cc-pvqz              for  HF TOTAL ENERGY
            mp2 / aug-cc-pvtz              for  MP2 TOTAL ENERGY
            mp2 / aug-cc-pvqz              for  MP2 TOTAL ENERGY
             hf / aug-cc-pvtz              for  HF TOTAL ENERGY
             hf / aug-cc-pvqz              for  HF TOTAL ENERGY

    Enlightened listing of computations required.
            mp2 / aug-cc-pvtz              for  MP2 TOTAL ENERGY
            mp2 / aug-cc-pvqz              for  MP2 TOTAL ENERGY

    Full listing of computations to be obtained (required and bonus).
             hf / aug-cc-pvtz              for  HF TOTAL ENERGY
            mp2 / aug-cc-pvtz              for  MP2 TOTAL ENERGY
             hf / aug-cc-pvqz              for  HF TOTAL ENERGY
            mp2 / aug-cc-pvqz              for  MP2 TOTAL ENERGY

  //>>>>>>>>>>>>>>>>>>>>>>>>>>>>>>>>>>>>//
  // CBS Computation: MP2 / AUG-CC-PVTZ //
  //<<<<<<<<<<<<<<<<<<<<<<<<<<<<<<<<<<<<//


Scratch directory: /scratch//

*** tstart() called on node61.bme.utexas.edu
*** at Sat Apr 11 18:42:55 2020

   => Loading Basis Set <=

    Name: AUG-CC-PVTZ
    Role: ORBITAL
    Keyword: BASIS
    atoms 1, 12                              entry N          line   285 file /home/liuchw/anaconda3/envs/psi4env/share/psi4/basis/aug-cc-pvtz.gbs 
    atoms 2, 4, 6, 8, 10, 13, 15, 17, 19, 21 entry C          line   239 file /home/liuchw/anaconda3/envs/psi4env/share/psi4/basis/aug-cc-pvtz.gbs 
    atoms 3, 5, 7, 9, 11, 14, 16, 18, 20, 22 entry H          line    40 file /home/liuchw/anaconda3/envs/psi4env/share/psi4/basis/aug-cc-pvtz.gbs 


         ---------------------------------------------------------
                                   SCF
               by Justin Turney, Rob Parrish, Andy Simmonett
                          and Daniel G. A. Smith
                              RHF Reference
                        8 Threads,  38146 MiB Core
         ---------------------------------------------------------

  ==> Geometry <==

    Molecular point group: c1
    Full point group: C1

    Geometry (in Angstrom), charge = 0, multiplicity = 1:

       Center              X                  Y                   Z               Mass       
    ------------   -----------------  -----------------  -----------------  -----------------
      Gh(N)          -1.641849451862     0.872889858390    -0.004656035758    14.003074004430
      Gh(C)          -1.623393451862    -0.469529141610     0.019003964242    12.000000000000
      Gh(H)          -0.643397451862    -0.932739141610     0.034979964242     1.007825032230
      Gh(C)          -2.777157451862    -1.250169141610     0.022914964242    12.000000000000
      Gh(H)          -2.697167451862    -2.327737141610     0.042501964242     1.007825032230
      Gh(C)          -4.016951451862    -0.620491141610     0.001223964242    12.000000000000
      Gh(H)          -4.932213451862    -1.196235141610     0.003418964242     1.007825032230
      Gh(C)          -4.049533451862     0.769867858390    -0.023461035758    12.000000000000
      Gh(H)          -4.986082451862     1.308953858390    -0.041034035758     1.007825032230
      Gh(C)          -2.843742451862     1.465482858390    -0.025265035758    12.000000000000
      Gh(H)          -2.838738451862     2.548501858390    -0.044158035758     1.007825032230
         N            1.641703548138    -0.872249141610     0.026398964242    14.003074004430
         C            2.843482548138    -1.465425141610     0.028478964242    12.000000000000
         H            2.838258548138    -2.548388141610     0.050367964242     1.007825032230
         C            4.049418548138    -0.770467141610     0.004477964242    12.000000000000
         H            4.985856548138    -1.310002141610     0.007571964242     1.007825032230
         C            4.017100548138     0.619837858390    -0.023269035758    12.000000000000
         H            4.932475548138     1.195088858390    -0.042450035758     1.007825032230
         C            2.777420548138     1.250123858390    -0.025746035758    12.000000000000
         H            2.697647548138     2.327681858390    -0.046835035758     1.007825032230
         C            1.623506548138     0.470113858390    -0.000552035758    12.000000000000
         H            0.643596548138     0.933776858390    -0.002215035758     1.007825032230

  Running in c1 symmetry.

  Rotational constants: A =      0.09983  B =      0.01177  C =      0.01053 [cm^-1]
  Rotational constants: A =   2992.74965  B =    352.89103  C =    315.67376 [MHz]
  Nuclear repulsion =  206.168602734437201

  Charge       = 0
  Multiplicity = 1
  Electrons    = 42
  Nalpha       = 21
  Nbeta        = 21

  ==> Algorithm <==

  SCF Algorithm Type is DF.
  DIIS enabled.
  MOM disabled.
  Fractional occupation disabled.
  Guess Type is SAD.
  Energy threshold   = 1.00e-07
  Density threshold  = 1.00e-08
  Integral threshold = 0.00e+00

  ==> Primary Basis <==

  Basis Set: AUG-CC-PVTZ
    Blend: AUG-CC-PVTZ
    Number of shells: 258
    Number of basis function: 782
    Number of Cartesian functions: 910
    Spherical Harmonics?: true
    Max angular momentum: 3

   => Loading Basis Set <=

    Name: (AUG-CC-PVTZ AUX)
    Role: JKFIT
    Keyword: DF_BASIS_SCF
    atoms 1, 12                              entry N          line   224 file /home/liuchw/anaconda3/envs/psi4env/share/psi4/basis/aug-cc-pvtz-jkfit.gbs 
    atoms 2, 4, 6, 8, 10, 13, 15, 17, 19, 21 entry C          line   162 file /home/liuchw/anaconda3/envs/psi4env/share/psi4/basis/aug-cc-pvtz-jkfit.gbs 
    atoms 3, 5, 7, 9, 11, 14, 16, 18, 20, 22 entry H          line    70 file /home/liuchw/anaconda3/envs/psi4env/share/psi4/basis/aug-cc-pvtz-jkfit.gbs 

  ==> Pre-Iterations <==

   -------------------------------------------------------
    Irrep   Nso     Nmo     Nalpha   Nbeta   Ndocc  Nsocc
   -------------------------------------------------------
     A        782     782       0       0       0       0
   -------------------------------------------------------
    Total     782     782      21      21      21       0
   -------------------------------------------------------

  ==> Integral Setup <==

  DFHelper Memory: AOs need 6.765 GiB; user supplied 27.940 GiB. Using in-core AOs.

  ==> MemDFJK: Density-Fitted J/K Matrices <==

    J tasked:                   Yes
    K tasked:                   Yes
    wK tasked:                   No
    OpenMP threads:               8
    Memory [MiB]:             28610
    Algorithm:                 Core
    Schwarz Cutoff:           1E-12
    Mask sparsity (%):      15.3976
    Fitting Condition:        1E-10

   => Auxiliary Basis Set <=

  Basis Set: (AUG-CC-PVTZ AUX)
    Blend: AUG-CC-PVTZ-JKFIT
    Number of shells: 500
    Number of basis function: 1708
    Number of Cartesian functions: 2122
    Spherical Harmonics?: true
    Max angular momentum: 4

  Minimum eigenvalue in the overlap matrix is 1.4318084926E-06.
  Using Symmetric Orthogonalization.

  SCF Guess: Superposition of Atomic Densities via on-the-fly atomic UHF.

  ==> Iterations <==

                           Total Energy        Delta E     RMS |[F,P]|

   @DF-RHF iter SAD:  -246.15178846295899   -2.46152e+02   0.00000e+00 
   @DF-RHF iter   1:  -246.63307693269209   -4.81288e-01   6.30670e-04 DIIS
   @DF-RHF iter   2:  -246.75311678122154   -1.20040e-01   2.89564e-04 DIIS
   @DF-RHF iter   3:  -246.77716133487965   -2.40446e-02   5.59338e-05 DIIS
   @DF-RHF iter   4:  -246.77854406364224   -1.38273e-03   1.63201e-05 DIIS
   @DF-RHF iter   5:  -246.77862365568257   -7.95920e-05   5.35755e-06 DIIS
   @DF-RHF iter   6:  -246.77863415431364   -1.04986e-05   1.23063e-06 DIIS
   @DF-RHF iter   7:  -246.77863491548391   -7.61170e-07   4.33808e-07 DIIS
   @DF-RHF iter   8:  -246.77863501386702   -9.83831e-08   1.84440e-07 DIIS
   @DF-RHF iter   9:  -246.77863504396808   -3.01011e-08   5.39166e-08 DIIS
   @DF-RHF iter  10:  -246.77863504790230   -3.93422e-09   2.00073e-08 DIIS
   @DF-RHF iter  11:  -246.77863504862540   -7.23105e-10   1.20287e-08 DIIS
   @DF-RHF iter  12:  -246.77863504881543   -1.90028e-10   3.79897e-09 DIIS
  Energy and wave function converged.


  ==> Post-Iterations <==

    Orbital Energies [Eh]
    ---------------------

    Doubly Occupied:                                                      

       1A    -15.567500     2A    -11.276110     3A    -11.275342  
       4A    -11.260667     5A    -11.242671     6A    -11.242601  
       7A     -1.256097     8A     -1.089992     9A     -1.034102  
      10A     -0.859815    11A     -0.855957    12A     -0.722197  
      13A     -0.660694    14A     -0.654673    15A     -0.598931  
      16A     -0.577612    17A     -0.541115    18A     -0.520644  
      19A     -0.419385    20A     -0.384027    21A     -0.348238  

    Virtual:                                                              

      22A      0.020803    23A      0.025534    24A      0.030433  
      25A      0.038082    26A      0.039170    27A      0.051866  
      28A      0.052555    29A      0.057234    30A      0.061922  
      31A      0.068826    32A      0.075527    33A      0.081646  
      34A      0.089198    35A      0.089369    36A      0.096011  
      37A      0.097790    38A      0.100191    39A      0.103800  
      40A      0.107859    41A      0.108822    42A      0.109354  
      43A      0.114541    44A      0.115129    45A      0.118549  
      46A      0.124457    47A      0.127923    48A      0.136234  
      49A      0.136980    50A      0.138375    51A      0.141983  
      52A      0.142525    53A      0.142878    54A      0.146272  
      55A      0.154331    56A      0.159133    57A      0.164014  
      58A      0.167468    59A      0.173410    60A      0.177657  
      61A      0.177942    62A      0.182998    63A      0.188703  
      64A      0.194290    65A      0.195539    66A      0.210069  
      67A      0.216797    68A      0.221264    69A      0.232353  
      70A      0.234145    71A      0.241682    72A      0.248925  
      73A      0.253041    74A      0.253768    75A      0.263427  
      76A      0.267246    77A      0.267846    78A      0.278352  
      79A      0.280228    80A      0.285508    81A      0.289638  
      82A      0.293176    83A      0.293699    84A      0.305508  
      85A      0.307607    86A      0.310367    87A      0.314016  
      88A      0.317304    89A      0.319256    90A      0.322549  
      91A      0.322707    92A      0.325657    93A      0.334204  
      94A      0.338766    95A      0.339300    96A      0.351231  
      97A      0.352606    98A      0.354667    99A      0.358270  
     100A      0.365596   101A      0.368506   102A      0.372531  
     103A      0.373005   104A      0.374983   105A      0.383230  
     106A      0.390660   107A      0.392335   108A      0.397597  
     109A      0.398272   110A      0.405526   111A      0.409648  
     112A      0.409747   113A      0.418693   114A      0.420071  
     115A      0.425957   116A      0.426210   117A      0.427351  
     118A      0.432782   119A      0.434718   120A      0.439569  
     121A      0.442789   122A      0.452340   123A      0.453395  
     124A      0.458869   125A      0.463481   126A      0.463944  
     127A      0.469345   128A      0.474889   129A      0.478870  
     130A      0.481261   131A      0.485656   132A      0.490641  
     133A      0.493895   134A      0.496978   135A      0.506818  
     136A      0.509074   137A      0.510669   138A      0.513008  
     139A      0.521547   140A      0.528214   141A      0.536036  
     142A      0.536487   143A      0.540625   144A      0.543676  
     145A      0.554804   146A      0.559844   147A      0.563095  
     148A      0.569240   149A      0.577772   150A      0.580207  
     151A      0.585807   152A      0.596431   153A      0.597118  
     154A      0.609066   155A      0.611759   156A      0.616072  
     157A      0.619342   158A      0.621466   159A      0.628934  
     160A      0.632323   161A      0.637284   162A      0.642656  
     163A      0.646660   164A      0.653081   165A      0.655234  
     166A      0.662699   167A      0.666351   168A      0.672458  
     169A      0.680610   170A      0.691687   171A      0.693184  
     172A      0.702084   173A      0.703656   174A      0.704652  
     175A      0.719240   176A      0.723226   177A      0.729951  
     178A      0.734427   179A      0.735464   180A      0.744376  
     181A      0.749496   182A      0.753475   183A      0.756295  
     184A      0.758619   185A      0.762607   186A      0.765098  
     187A      0.777706   188A      0.785302   189A      0.793062  
     190A      0.796893   191A      0.806702   192A      0.810122  
     193A      0.813008   194A      0.818987   195A      0.824291  
     196A      0.828749   197A      0.833238   198A      0.840873  
     199A      0.847688   200A      0.853887   201A      0.859540  
     202A      0.859882   203A      0.869616   204A      0.871053  
     205A      0.871679   206A      0.873071   207A      0.884183  
     208A      0.896213   209A      0.899488   210A      0.907906  
     211A      0.910716   212A      0.914461   213A      0.922208  
     214A      0.927594   215A      0.934294   216A      0.942751  
     217A      0.948953   218A      0.949962   219A      0.955393  
     220A      0.957806   221A      0.968760   222A      0.971721  
     223A      0.985043   224A      0.989923   225A      0.990781  
     226A      0.997325   227A      1.002445   228A      1.005061  
     229A      1.006007   230A      1.018018   231A      1.018565  
     232A      1.025808   233A      1.027762   234A      1.033321  
     235A      1.042150   236A      1.045875   237A      1.059601  
     238A      1.060331   239A      1.062856   240A      1.072893  
     241A      1.076576   242A      1.080554   243A      1.085007  
     244A      1.088250   245A      1.091356   246A      1.095328  
     247A      1.099802   248A      1.103698   249A      1.107298  
     250A      1.113955   251A      1.120266   252A      1.128003  
     253A      1.133253   254A      1.140406   255A      1.150772  
     256A      1.154877   257A      1.161993   258A      1.162129  
     259A      1.166217   260A      1.167791   261A      1.170215  
     262A      1.183071   263A      1.188371   264A      1.191283  
     265A      1.192123   266A      1.194326   267A      1.196270  
     268A      1.200882   269A      1.206310   270A      1.208818  
     271A      1.220633   272A      1.224660   273A      1.233986  
     274A      1.235049   275A      1.237144   276A      1.249915  
     277A      1.252225   278A      1.257411   279A      1.260930  
     280A      1.270046   281A      1.276804   282A      1.281147  
     283A      1.285655   284A      1.296347   285A      1.303785  
     286A      1.306688   287A      1.315193   288A      1.316715  
     289A      1.321241   290A      1.338943   291A      1.344644  
     292A      1.346838   293A      1.351628   294A      1.354866  
     295A      1.365991   296A      1.366605   297A      1.378003  
     298A      1.390896   299A      1.393302   300A      1.398578  
     301A      1.400596   302A      1.409166   303A      1.413877  
     304A      1.422055   305A      1.434693   306A      1.436592  
     307A      1.440486   308A      1.453696   309A      1.469716  
     310A      1.472997   311A      1.476884   312A      1.485260  
     313A      1.487541   314A      1.490420   315A      1.492507  
     316A      1.500612   317A      1.510563   318A      1.516079  
     319A      1.539882   320A      1.544236   321A      1.549974  
     322A      1.550570   323A      1.556174   324A      1.558928  
     325A      1.562231   326A      1.588919   327A      1.590278  
     328A      1.591678   329A      1.603982   330A      1.604508  
     331A      1.618458   332A      1.623136   333A      1.641153  
     334A      1.642456   335A      1.648180   336A      1.656903  
     337A      1.669851   338A      1.674815   339A      1.687421  
     340A      1.688191   341A      1.702204   342A      1.703105  
     343A      1.715710   344A      1.720899   345A      1.726321  
     346A      1.733159   347A      1.736715   348A      1.751167  
     349A      1.756598   350A      1.762312   351A      1.768172  
     352A      1.775371   353A      1.782945   354A      1.793779  
     355A      1.806158   356A      1.808198   357A      1.821282  
     358A      1.826973   359A      1.838905   360A      1.848713  
     361A      1.859971   362A      1.874774   363A      1.879619  
     364A      1.881346   365A      1.886803   366A      1.894616  
     367A      1.898746   368A      1.917532   369A      1.922369  
     370A      1.939551   371A      1.947586   372A      1.955189  
     373A      1.970133   374A      1.971426   375A      1.980982  
     376A      1.982659   377A      1.994309   378A      2.002562  
     379A      2.018263   380A      2.018993   381A      2.022588  
     382A      2.030013   383A      2.037192   384A      2.044334  
     385A      2.046067   386A      2.052504   387A      2.073781  
     388A      2.086799   389A      2.091151   390A      2.096084  
     391A      2.114489   392A      2.116359   393A      2.134161  
     394A      2.139234   395A      2.155404   396A      2.156038  
     397A      2.172643   398A      2.177512   399A      2.180345  
     400A      2.186228   401A      2.194224   402A      2.198856  
     403A      2.207081   404A      2.217218   405A      2.219766  
     406A      2.230295   407A      2.237923   408A      2.245245  
     409A      2.251396   410A      2.251975   411A      2.272474  
     412A      2.276444   413A      2.286578   414A      2.293445  
     415A      2.296392   416A      2.308516   417A      2.309667  
     418A      2.332725   419A      2.336950   420A      2.347448  
     421A      2.362653   422A      2.366414   423A      2.370968  
     424A      2.376706   425A      2.380478   426A      2.389365  
     427A      2.419881   428A      2.429288   429A      2.430377  
     430A      2.433254   431A      2.441911   432A      2.446361  
     433A      2.471683   434A      2.476493   435A      2.488655  
     436A      2.505380   437A      2.511496   438A      2.513626  
     439A      2.523063   440A      2.524250   441A      2.529325  
     442A      2.556166   443A      2.569967   444A      2.573055  
     445A      2.594176   446A      2.609063   447A      2.617871  
     448A      2.628117   449A      2.638156   450A      2.656741  
     451A      2.659457   452A      2.675243   453A      2.707108  
     454A      2.707897   455A      2.730433   456A      2.744665  
     457A      2.749536   458A      2.755982   459A      2.763314  
     460A      2.788003   461A      2.823030   462A      2.834849  
     463A      2.839246   464A      2.885964   465A      2.890693  
     466A      2.897457   467A      2.903788   468A      2.925329  
     469A      2.944752   470A      2.960308   471A      2.970448  
     472A      2.980478   473A      3.004738   474A      3.033690  
     475A      3.037171   476A      3.041041   477A      3.077772  
     478A      3.083108   479A      3.141344   480A      3.169675  
     481A      3.174342   482A      3.188754   483A      3.197672  
     484A      3.222981   485A      3.256572   486A      3.258136  
     487A      3.307507   488A      3.309919   489A      3.334649  
     490A      3.335862   491A      3.346597   492A      3.368147  
     493A      3.394676   494A      3.408050   495A      3.411520  
     496A      3.431561   497A      3.440391   498A      3.449880  
     499A      3.461461   500A      3.478776   501A      3.484558  
     502A      3.500856   503A      3.517026   504A      3.529998  
     505A      3.541167   506A      3.561463   507A      3.576407  
     508A      3.592110   509A      3.602456   510A      3.604203  
     511A      3.611217   512A      3.626578   513A      3.666189  
     514A      3.680884   515A      3.694776   516A      3.724080  
     517A      3.730488   518A      3.766896   519A      3.783216  
     520A      3.791599   521A      3.794259   522A      3.805127  
     523A      3.841837   524A      3.852880   525A      3.868859  
     526A      3.876425   527A      3.908422   528A      3.909728  
     529A      3.911377   530A      3.912344   531A      3.942011  
     532A      3.950351   533A      3.961759   534A      3.987652  
     535A      3.988182   536A      3.999672   537A      4.004773  
     538A      4.021017   539A      4.026859   540A      4.030040  
     541A      4.038456   542A      4.057034   543A      4.061106  
     544A      4.062506   545A      4.070978   546A      4.074842  
     547A      4.093035   548A      4.103213   549A      4.107578  
     550A      4.122193   551A      4.132482   552A      4.137571  
     553A      4.144919   554A      4.151503   555A      4.159726  
     556A      4.177517   557A      4.178487   558A      4.184821  
     559A      4.201757   560A      4.218122   561A      4.221017  
     562A      4.236579   563A      4.241192   564A      4.253235  
     565A      4.260875   566A      4.267151   567A      4.274600  
     568A      4.282972   569A      4.289944   570A      4.292624  
     571A      4.310228   572A      4.317395   573A      4.344713  
     574A      4.354910   575A      4.357688   576A      4.378871  
     577A      4.386035   578A      4.388228   579A      4.393207  
     580A      4.420751   581A      4.425923   582A      4.434187  
     583A      4.456045   584A      4.459833   585A      4.469392  
     586A      4.481561   587A      4.496412   588A      4.500313  
     589A      4.504962   590A      4.511396   591A      4.521806  
     592A      4.538299   593A      4.540246   594A      4.553077  
     595A      4.572380   596A      4.592882   597A      4.607169  
     598A      4.616957   599A      4.642336   600A      4.645725  
     601A      4.660822   602A      4.671431   603A      4.696583  
     604A      4.702304   605A      4.721822   606A      4.733595  
     607A      4.763252   608A      4.779047   609A      4.805542  
     610A      4.813691   611A      4.839557   612A      4.849791  
     613A      4.855383   614A      4.881765   615A      4.896876  
     616A      4.910009   617A      4.913947   618A      4.927817  
     619A      4.955885   620A      4.966596   621A      4.975728  
     622A      4.983979   623A      4.998098   624A      5.011171  
     625A      5.016959   626A      5.019587   627A      5.020859  
     628A      5.043587   629A      5.051084   630A      5.058638  
     631A      5.073760   632A      5.075331   633A      5.081506  
     634A      5.107129   635A      5.120552   636A      5.130643  
     637A      5.139695   638A      5.140948   639A      5.156888  
     640A      5.162821   641A      5.177588   642A      5.189867  
     643A      5.190225   644A      5.199653   645A      5.212983  
     646A      5.217507   647A      5.225543   648A      5.249611  
     649A      5.258632   650A      5.263525   651A      5.274390  
     652A      5.281488   653A      5.322854   654A      5.334449  
     655A      5.357984   656A      5.366965   657A      5.423621  
     658A      5.427110   659A      5.448886   660A      5.449743  
     661A      5.467291   662A      5.468060   663A      5.481654  
     664A      5.483173   665A      5.501377   666A      5.509279  
     667A      5.516245   668A      5.529099   669A      5.540614  
     670A      5.567117   671A      5.596450   672A      5.611117  
     673A      5.614219   674A      5.634383   675A      5.645206  
     676A      5.679162   677A      5.689137   678A      5.700971  
     679A      5.720883   680A      5.723359   681A      5.758142  
     682A      5.770030   683A      5.802172   684A      5.805015  
     685A      5.833453   686A      5.839268   687A      5.880283  
     688A      5.882940   689A      5.885750   690A      5.895559  
     691A      5.916119   692A      5.942576   693A      5.972468  
     694A      5.984506   695A      6.015890   696A      6.051156  
     697A      6.070304   698A      6.077720   699A      6.091398  
     700A      6.095417   701A      6.109650   702A      6.135331  
     703A      6.172049   704A      6.197912   705A      6.228405  
     706A      6.258801   707A      6.277993   708A      6.293718  
[...]
     961A      5.925428   962A      5.928335   963A      5.959848  
     964A      5.992750   965A      6.010031   966A      6.035921  
     967A      6.052859   968A      6.057744   969A      6.078894  
     970A      6.089447   971A      6.089853   972A      6.093208  
     973A      6.130145   974A      6.131183   975A      6.140412  
     976A      6.142736   977A      6.152829   978A      6.159272  
     979A      6.160320   980A      6.167398   981A      6.185701  
     982A      6.191176   983A      6.211853   984A      6.228362  
     985A      6.231781   986A      6.232818   987A      6.234096  
     988A      6.259788   989A      6.260168   990A      6.262208  
     991A      6.338876   992A      6.340032   993A      6.348810  
     994A      6.367978   995A      6.405391   996A      6.411504  
     997A      6.417613   998A      6.420517   999A      6.437548  
    1000A      6.452204  1001A      6.464677  1002A      6.487696  
    1003A      6.502892  1004A      6.512864  1005A      6.524093  
    1006A      6.526978  1007A      6.544329  1008A      6.555360  
    1009A      6.586068  1010A      6.594685  1011A      6.598951  
    1012A      6.600221  1013A      6.601368  1014A      6.616464  
    1015A      6.625805  1016A      6.629586  1017A      6.630820  
    1018A      6.632969  1019A      6.637471  1020A      6.647976  
    1021A      6.654431  1022A      6.667287  1023A      6.668865  
    1024A      6.680479  1025A      6.698297  1026A      6.716576  
    1027A      6.720488  1028A      6.721225  1029A      6.729633  
    1030A      6.742254  1031A      6.746112  1032A      6.747220  
    1033A      6.756355  1034A      6.764519  1035A      6.769562  
    1036A      6.794602  1037A      6.810012  1038A      6.813716  
    1039A      6.815473  1040A      6.824054  1041A      6.835018  
    1042A      6.850229  1043A      6.852698  1044A      6.860476  
    1045A      6.872552  1046A      6.882463  1047A      6.893042  
    1048A      6.897807  1049A      6.914507  1050A      6.921400  
    1051A      6.950249  1052A      6.951573  1053A      6.965088  
    1054A      6.974351  1055A      6.976051  1056A      6.980534  
    1057A      6.982157  1058A      6.985482  1059A      7.008690  
    1060A      7.025729  1061A      7.028956  1062A      7.047606  
    1063A      7.053327  1064A      7.055656  1065A      7.060383  
    1066A      7.061644  1067A      7.064034  1068A      7.065551  
    1069A      7.074224  1070A      7.095425  1071A      7.097485  
    1072A      7.116966  1073A      7.123466  1074A      7.124168  
    1075A      7.129212  1076A      7.136274  1077A      7.146244  
    1078A      7.151348  1079A      7.152603  1080A      7.158373  
    1081A      7.192646  1082A      7.197917  1083A      7.200472  
    1084A      7.201086  1085A      7.221038  1086A      7.234088  
    1087A      7.242968  1088A      7.245588  1089A      7.247824  
    1090A      7.276590  1091A      7.291643  1092A      7.301268  
    1093A      7.302413  1094A      7.313497  1095A      7.323757  
    1096A      7.337209  1097A      7.345063  1098A      7.345546  
    1099A      7.346388  1100A      7.354826  1101A      7.370317  
    1102A      7.376297  1103A      7.395793  1104A      7.406213  
    1105A      7.427882  1106A      7.429793  1107A      7.442181  
    1108A      7.450243  1109A      7.450693  1110A      7.452238  
    1111A      7.477372  1112A      7.479171  1113A      7.482808  
    1114A      7.506968  1115A      7.509822  1116A      7.524948  
    1117A      7.534275  1118A      7.544581  1119A      7.555018  
    1120A      7.571894  1121A      7.593199  1122A      7.594529  
    1123A      7.596772  1124A      7.634717  1125A      7.640729  
    1126A      7.655428  1127A      7.668101  1128A      7.669467  
    1129A      7.679673  1130A      7.680594  1131A      7.718406  
    1132A      7.732750  1133A      7.735023  1134A      7.737333  
    1135A      7.752519  1136A      7.761852  1137A      7.787717  
    1138A      7.801747  1139A      7.803036  1140A      7.806001  
    1141A      7.820315  1142A      7.822311  1143A      7.843577  
    1144A      7.846098  1145A      7.852239  1146A      7.864906  
    1147A      7.888053  1148A      7.888341  1149A      7.894346  
    1150A      7.894781  1151A      7.918764  1152A      7.922159  
    1153A      7.943232  1154A      7.966483  1155A      7.975945  
    1156A      8.017237  1157A      8.021693  1158A      8.029608  
    1159A      8.045840  1160A      8.059558  1161A      8.064109  
    1162A      8.066836  1163A      8.074455  1164A      8.084142  
    1165A      8.092274  1166A      8.102647  1167A      8.106928  
    1168A      8.108205  1169A      8.125597  1170A      8.141733  
    1171A      8.145268  1172A      8.162702  1173A      8.168756  
    1174A      8.174708  1175A      8.195461  1176A      8.203363  
    1177A      8.220675  1178A      8.240012  1179A      8.301342  
    1180A      8.311662  1181A      8.337909  1182A      8.343362  
    1183A      8.351926  1184A      8.361942  1185A      8.400063  
    1186A      8.406369  1187A      8.447426  1188A      8.448461  
    1189A      8.488904  1190A      8.495905  1191A      8.510613  
    1192A      8.523716  1193A      8.524558  1194A      8.541673  
    1195A      8.554824  1196A      8.559386  1197A      8.651282  
    1198A      8.654814  1199A      8.655394  1200A      8.665700  
    1201A      8.666158  1202A      8.667880  1203A      8.698799  
    1204A      8.704579  1205A      8.728568  1206A      8.744140  
    1207A      8.744367  1208A      8.751494  1209A      8.752059  
    1210A      8.773493  1211A      8.793430  1212A      8.805253  
    1213A      8.820448  1214A      8.860875  1215A      8.868735  
    1216A      8.883072  1217A      8.888582  1218A      8.891668  
    1219A      8.892214  1220A      8.894034  1221A      8.896588  
    1222A      8.909402  1223A      8.913222  1224A      8.938600  
    1225A      8.963259  1226A      8.965506  1227A      8.979926  
    1228A      8.980501  1229A      8.983848  1230A      8.985082  
    1231A      8.988804  1232A      9.025554  1233A      9.039542  
    1234A      9.048047  1235A      9.065452  1236A      9.066985  
    1237A      9.106219  1238A      9.106713  1239A      9.109255  
    1240A      9.132978  1241A      9.145089  1242A      9.156364  
    1243A      9.158198  1244A      9.177424  1245A      9.211693  
    1246A      9.235610  1247A      9.238633  1248A      9.256454  
    1249A      9.263565  1250A      9.280712  1251A      9.287645  
    1252A      9.297261  1253A      9.306118  1254A      9.347070  
    1255A      9.355377  1256A      9.365572  1257A      9.406761  
    1258A      9.406944  1259A      9.429855  1260A      9.430291  
    1261A      9.458918  1262A      9.471328  1263A      9.472246  
    1264A      9.473711  1265A      9.525245  1266A      9.527500  
    1267A      9.565261  1268A      9.569529  1269A      9.570452  
    1270A      9.570591  1271A      9.579267  1272A      9.583695  
    1273A      9.596013  1274A      9.600955  1275A      9.608943  
    1276A      9.620595  1277A      9.626730  1278A      9.636083  
    1279A      9.648718  1280A      9.663383  1281A      9.679448  
    1282A      9.687698  1283A      9.710757  1284A      9.736134  
    1285A      9.747142  1286A      9.751692  1287A      9.757872  
    1288A      9.758001  1289A      9.788869  1290A      9.789863  
    1291A      9.815901  1292A      9.831576  1293A      9.845582  
    1294A      9.876457  1295A      9.914899  1296A      9.926995  
    1297A      9.977388  1298A      9.977978  1299A      9.981174  
    1300A      9.996700  1301A     10.017448  1302A     10.020714  
    1303A     10.036261  1304A     10.038452  1305A     10.042931  
    1306A     10.043803  1307A     10.070724  1308A     10.081285  
    1309A     10.085716  1310A     10.093891  1311A     10.139471  
    1312A     10.146968  1313A     10.172683  1314A     10.195272  
    1315A     10.244160  1316A     10.245115  1317A     10.260385  
    1318A     10.267161  1319A     10.273833  1320A     10.279301  
    1321A     10.314136  1322A     10.320918  1323A     10.341886  
    1324A     10.358588  1325A     10.360783  1326A     10.362970  
    1327A     10.398386  1328A     10.419470  1329A     10.421454  
    1330A     10.434526  1331A     10.438951  1332A     10.441366  
    1333A     10.505561  1334A     10.507871  1335A     10.518210  
    1336A     10.542822  1337A     10.543565  1338A     10.550459  
    1339A     10.568647  1340A     10.580481  1341A     10.598677  
    1342A     10.607096  1343A     10.675116  1344A     10.680477  
    1345A     10.719795  1346A     10.724739  1347A     10.750605  
    1348A     10.761641  1349A     10.772834  1350A     10.781654  
    1351A     10.792728  1352A     10.799904  1353A     10.819496  
    1354A     10.829807  1355A     10.841140  1356A     10.863770  
    1357A     10.886585  1358A     10.897105  1359A     10.936511  
    1360A     10.947848  1361A     10.994623  1362A     11.072862  
    1363A     11.077117  1364A     11.083995  1365A     11.160116  
    1366A     11.197812  1367A     11.236311  1368A     11.244406  
    1369A     11.316194  1370A     11.327259  1371A     11.384075  
    1372A     11.388800  1373A     11.459532  1374A     11.490362  
    1375A     11.508270  1376A     11.527836  1377A     11.559024  
    1378A     11.586853  1379A     11.625852  1380A     11.703232  
    1381A     11.704069  1382A     11.713273  1383A     11.745665  
    1384A     11.760380  1385A     11.765859  1386A     11.771748  
    1387A     11.951026  1388A     12.017956  1389A     12.142953  
    1390A     12.166586  1391A     12.344463  1392A     12.363595  
    1393A     12.592420  1394A     12.653083  1395A     12.770193  
    1396A     12.781366  1397A     12.918871  1398A     12.919833  
    1399A     13.306729  1400A     13.312215  1401A     13.414063  
    1402A     13.420674  1403A     13.446865  1404A     13.460924  
    1405A     13.592174  1406A     13.613944  1407A     13.792111  
    1408A     13.878739  1409A     26.294351  1410A     26.302908  
    1411A     26.402544  1412A     26.467813  1413A     26.728118  
    1414A     26.763174  1415A     27.051236  1416A     27.057402  
    1417A     27.262683  1418A     27.267413  1419A     34.390304  
    1420A     34.402523  

    Final Occupation by Irrep:
              A 
    DOCC [    42 ]

  @DF-RHF Final Energy:  -493.58509194118091

   => Energetics <=

    Nuclear Repulsion Energy =            583.2713089494699261
    One-Electron Energy =               -1824.7194490255365054
    Two-Electron Energy =                 747.8630481348855028
    Total Energy =                       -493.5850919411809627

Computation Completed


Properties will be evaluated at   0.000000,   0.000000,   0.000000 [a0]

Properties computed using the SCF density matrix

  Nuclear Dipole Moment: [e a0]
     X:     0.0002      Y:    -0.0010      Z:    -0.0355

  Electronic Dipole Moment: [e a0]
     X:     0.0000      Y:     0.0006      Z:     0.0218

  Dipole Moment: [e a0]
     X:     0.0003      Y:    -0.0004      Z:    -0.0137     Total:     0.0138

  Dipole Moment: [D]
     X:     0.0007      Y:    -0.0011      Z:    -0.0349     Total:     0.0350


*** tstop() called on node61.bme.utexas.edu at Sat Apr 11 19:04:32 2020
Module time:
	user time   =    2304.80 seconds =      38.41 minutes
	system time =      38.31 seconds =       0.64 minutes
	total time  =        312 seconds =       5.20 minutes
Total time:
	user time   =    9283.72 seconds =     154.73 minutes
	system time =     217.67 seconds =       3.63 minutes
	total time  =       1343 seconds =      22.38 minutes

*** tstart() called on node61.bme.utexas.edu
*** at Sat Apr 11 19:04:32 2020


  //>>>>>>>>>>>>>>>>>>>>>>>>>>>>>>>>>>>//
  //               DFMP2               //
  //<<<<<<<<<<<<<<<<<<<<<<<<<<<<<<<<<<<//

   => Loading Basis Set <=

    Name: (AUG-CC-PVQZ AUX)
    Role: RIFIT
    Keyword: DF_BASIS_MP2
    atoms 1, 12                              entry N          line   258 file /home/liuchw/anaconda3/envs/psi4env/share/psi4/basis/aug-cc-pvqz-ri.gbs 
    atoms 2, 4, 6, 8, 10, 13, 15, 17, 19, 21 entry C          line   184 file /home/liuchw/anaconda3/envs/psi4env/share/psi4/basis/aug-cc-pvqz-ri.gbs 
    atoms 3, 5, 7, 9, 11, 14, 16, 18, 20, 22 entry H          line    30 file /home/liuchw/anaconda3/envs/psi4env/share/psi4/basis/aug-cc-pvqz-ri.gbs 

	 --------------------------------------------------------
	                          DF-MP2                         
	      2nd-Order Density-Fitted Moller-Plesset Theory     
	              RMP2 Wavefunction,   8 Threads             
	                                                         
	        Rob Parrish, Justin Turney, Andy Simmonett,      
	           Ed Hohenstein, and C. David Sherrill          
	 --------------------------------------------------------

   => Auxiliary Basis Set <=

  Basis Set: (AUG-CC-PVQZ AUX)
    Blend: AUG-CC-PVQZ-RI
    Number of shells: 632
    Number of basis function: 2816
    Number of Cartesian functions: 3894
    Spherical Harmonics?: true
    Max angular momentum: 5

	 --------------------------------------------------------
	                 NBF =  1420, NAUX =  2816
	 --------------------------------------------------------
	   CLASS    FOCC     OCC    AOCC    AVIR     VIR    FVIR
	   PAIRS       0      42      42    1378    1378       0
	 --------------------------------------------------------

	-----------------------------------------------------------
	 ==================> DF-MP2 Energies <==================== 
	-----------------------------------------------------------
	 Reference Energy          =    -493.5850919411809059 [Eh]
	 Singles Energy            =      -0.0000000000000000 [Eh]
	 Same-Spin Energy          =      -0.5721288783059392 [Eh]
	 Opposite-Spin Energy      =      -1.8896207302421288 [Eh]
	 Correlation Energy        =      -2.4617496085480681 [Eh]
	 Total Energy              =    -496.0468415497289811 [Eh]
	-----------------------------------------------------------
	 ================> DF-SCS-MP2 Energies <================== 
	-----------------------------------------------------------
	 SCS Same-Spin Scale       =       0.3333333333333333 [-]
	 SCS Opposite-Spin Scale   =       1.2000000000000000 [-]
	 SCS Same-Spin Energy      =      -0.1907096261019797 [Eh]
	 SCS Opposite-Spin Energy  =      -2.2675448762905543 [Eh]
	 SCS Correlation Energy    =      -2.4582545023925340 [Eh]
	 SCS Total Energy          =    -496.0433464435734550 [Eh]
	-----------------------------------------------------------


*** tstop() called on node61.bme.utexas.edu at Sat Apr 11 19:06:55 2020
Module time:
	user time   =     891.12 seconds =      14.85 minutes
	system time =      18.55 seconds =       0.31 minutes
	total time  =        143 seconds =       2.38 minutes
Total time:
	user time   =   10174.84 seconds =     169.58 minutes
	system time =     236.22 seconds =       3.94 minutes
	total time  =       1486 seconds =      24.77 minutes

  //>>>>>>>>>>>>>>>>>>>>>>>>>>>>>>>>>>>//
  //  CBS Results: mp2/aug-cc-pv[tq]z  //
  //<<<<<<<<<<<<<<<<<<<<<<<<<<<<<<<<<<<//


   ==> HF <==

   HI-zeta (4) Energy:               -493.585091941181


   ==> Helgaker 2-point correlated extrapolation for method: MP2 <==

   LO-zeta (3) Energy:               -495.783306180212
   HI-zeta (4) Energy:               -496.046841549729
   Alpha (exponent) Value:             3.000000000000
   Extrapolated Energy:              -496.239151143701

   @Extrapolated MP2/(T,Q):          -496.239151143701



   ==> Helgaker 2-point correlated extrapolation for method: HF <==

   LO-zeta (3) Energy:               -493.556969349011
   HI-zeta (4) Energy:               -493.585091941181
   Alpha (exponent) Value:             3.000000000000
   Extrapolated Energy:              -493.605613832765

   @Extrapolated HF/(T,Q):           -493.605613832765


   ==> Components <==

  ---------------------------------------------------------------------------------------------------------
                          Method / Basis                      Rqd      Energy [Eh]   Variable
  ---------------------------------------------------------------------------------------------------------
                              hf / aug-cc-pvtz                  *    -493.55696935   HF TOTAL ENERGY
                             mp2 / aug-cc-pvtz                  *    -495.78330618   MP2 TOTAL ENERGY
                              hf / aug-cc-pvqz                  *    -493.58509194   HF TOTAL ENERGY
                             mp2 / aug-cc-pvqz                  *    -496.04684155   MP2 TOTAL ENERGY
  ---------------------------------------------------------------------------------------------------------

   ==> Stages <==

  ---------------------------------------------------------------------------------------------------------
      Stage               Method / Basis                       Wt      Energy [Eh]   Scheme
  ---------------------------------------------------------------------------------------------------------
        scf                   hf / aug-cc-pvqz                  1    -493.58509194   xtpl_highest_1
       corl                  mp2 / aug-cc-pv[tq]z               1    -496.23915114   corl_xtpl_helgaker_2
       corl                   hf / aug-cc-pv[tq]z              -1    -493.60561383   corl_xtpl_helgaker_2
  ---------------------------------------------------------------------------------------------------------

   ==> CBS <==

  ---------------------------------------------------------------------------------------------------------
      Stage               Method / Basis                               Energy [Eh]   Scheme
  ---------------------------------------------------------------------------------------------------------
        scf                   hf / aug-cc-pvqz                       -493.58509194   xtpl_highest_1
       corl                  mp2 / aug-cc-pv[tq]z                      -2.63353731   corl_xtpl_helgaker_2
      total                  CBS                                     -496.21862925   
  ---------------------------------------------------------------------------------------------------------
   => Loading Basis Set <=

    Name: DEF2-SVP
    Role: ORBITAL
    Keyword: BASIS
    atoms 1, 12                              entry N          line   110 file /home/liuchw/anaconda3/envs/psi4env/share/psi4/basis/def2-svp.gbs 
    atoms 2, 4, 6, 8, 10, 13, 15, 17, 19, 21 entry C          line    90 file /home/liuchw/anaconda3/envs/psi4env/share/psi4/basis/def2-svp.gbs 
    atoms 3, 5, 7, 9, 11, 14, 16, 18, 20, 22 entry H          line    15 file /home/liuchw/anaconda3/envs/psi4env/share/psi4/basis/def2-svp.gbs 


       N-Body: Complex Energy (fragments = (1, 2), basis = (1, 2):  -496.21862925211735)

   ==> N-Body: Counterpoise Corrected (CP) energies <==

   n-Body     Total Energy [Eh]       I.E. [kcal/mol]      Delta [kcal/mol]
        1     -496.212290025320        0.000000000000        0.000000000000
        2     -496.219035867386       -4.233079804761       -4.233079804761

   => Loading Basis Set <=

    Name: DEF2-SVP
    Role: ORBITAL
    Keyword: BASIS
    atoms 1, 12                              entry N          line   110 file /home/liuchw/anaconda3/envs/psi4env/share/psi4/basis/def2-svp.gbs 
    atoms 2, 4, 6, 8, 10, 13, 15, 17, 19, 21 entry C          line    90 file /home/liuchw/anaconda3/envs/psi4env/share/psi4/basis/def2-svp.gbs 
    atoms 3, 5, 7, 9, 11, 14, 16, 18, 20, 22 entry H          line    15 file /home/liuchw/anaconda3/envs/psi4env/share/psi4/basis/def2-svp.gbs 


    Psi4 stopped on: Saturday, 11 April 2020 07:06PM
    Psi4 wall time for execution: 0:24:47.72

*** Psi4 exiting successfully. Buy a developer a beer!
