
    -----------------------------------------------------------------------
          Psi4: An Open-Source Ab Initio Electronic Structure Package
                               Psi4 1.4a2.dev224 

                         Git: Rev {master} e453b16 


    R. M. Parrish, L. A. Burns, D. G. A. Smith, A. C. Simmonett,
    A. E. DePrince III, E. G. Hohenstein, U. Bozkaya, A. Yu. Sokolov,
    R. Di Remigio, R. M. Richard, J. F. Gonthier, A. M. James,
    H. R. McAlexander, A. Kumar, M. Saitow, X. Wang, B. P. Pritchard,
    P. Verma, H. F. Schaefer III, K. Patkowski, R. A. King, E. F. Valeev,
    F. A. Evangelista, J. M. Turney, T. D. Crawford, and C. D. Sherrill,
    J. Chem. Theory Comput. 13(7) pp 3185--3197 (2017).
    (doi: 10.1021/acs.jctc.7b00174)


                         Additional Contributions by
    P. Kraus, H. Kruse, M. H. Lechner, M. C. Schieber, R. A. Shaw,
    A. Alenaizan, R. Galvelis, Z. L. Glick, S. Lehtola, and J. P. Misiewicz

    -----------------------------------------------------------------------


    Psi4 started on: Saturday, 11 April 2020 09:04PM

    Process ID: 57843
    Host:       g2-node38.bme.utexas.edu
    PSIDATADIR: /home/liuchw/anaconda3/envs/psi4env/share/psi4
    Memory:     500.0 MiB
    Threads:    8
    
  ==> Input File <==

--------------------------------------------------------------------------
#Generated by lconvert.py for cbs job

memory 40 GB

molecule  {
0 1
  C       -2.5877760    -0.3231060     0.4694580
  H       -2.6103890    -0.8763660    -0.4696190
  H       -2.6597440    -1.0518870     1.2777140
  H       -3.4760350     0.3056250     0.5089610
  C       -1.3095600     0.4973940     0.5850630
  H       -1.3172510     1.0832620     1.5063410
  H       -1.2623770     1.2155740    -0.2367760
  C       -0.0568300    -0.3682600     0.5584400
  H       -0.0861750    -1.0733590     1.3958750
  H       -0.0538090    -0.9768430    -0.3514740
  C        1.2315960     0.4400660     0.6320320
  H        1.2132830     1.0535620     1.5345930
  H        1.2662970     1.1313770    -0.2131060
  C        2.4725750    -0.4431440     0.6192210
  H        2.5207190    -1.0352630    -0.2948970
  H        3.3877340     0.1440900     0.6839090
  H        2.4592970    -1.1393640     1.4586180
--
0 1
  C        0.0463380     0.2101720     4.3128930
  O        0.0732500     1.3952460     4.0210520
  N        1.1789180    -0.5417050     4.4157130
  H        2.0498580    -0.1191250     4.1470510
  H        1.1399800    -1.5335920     4.5471360
  C       -1.2438830    -0.5287650     4.5773470
  H       -1.0966330    -1.4894860     5.0644710
  H       -1.7501110    -0.6870740     3.6265340
  H       -1.8818270     0.0984710     5.1926190
units angstrom
no_reorient
symmetry c1
}

set {
scf_type DF
mp2_type DF
e_convergence 7
reference rhf
}

energy('mp2/aug-cc-pv[tq]z', bsse_type='cp')
--------------------------------------------------------------------------

  Memory set to  37.253 GiB by Python driver.

Scratch directory: /scratch//


   ===> N-Body Interaction Abacus <===
        BSSE Treatment:                     cp
        Number of 1-body computations:     4
        Number of 2-body computations:     1

   ==> N-Body: Now computing 1-body complexes <==


       N-Body: Computing complex (1/4) with fragments (2,) in the basis of fragments (2,).


Scratch directory: /scratch//

  //>>>>>>>>>>>>>>>>>>>>>>>>>>>>>>>>>>>//
  //   CBS Setup: mp2/aug-cc-pv[tq]z   //
  //<<<<<<<<<<<<<<<<<<<<<<<<<<<<<<<<<<<//

    Naive listing of computations required.
             hf / aug-cc-pvqz              for  HF TOTAL ENERGY
            mp2 / aug-cc-pvtz              for  MP2 TOTAL ENERGY
            mp2 / aug-cc-pvqz              for  MP2 TOTAL ENERGY
             hf / aug-cc-pvtz              for  HF TOTAL ENERGY
             hf / aug-cc-pvqz              for  HF TOTAL ENERGY

    Enlightened listing of computations required.
            mp2 / aug-cc-pvtz              for  MP2 TOTAL ENERGY
            mp2 / aug-cc-pvqz              for  MP2 TOTAL ENERGY

    Full listing of computations to be obtained (required and bonus).
             hf / aug-cc-pvtz              for  HF TOTAL ENERGY
            mp2 / aug-cc-pvtz              for  MP2 TOTAL ENERGY
             hf / aug-cc-pvqz              for  HF TOTAL ENERGY
            mp2 / aug-cc-pvqz              for  MP2 TOTAL ENERGY

  //>>>>>>>>>>>>>>>>>>>>>>>>>>>>>>>>>>>>//
  // CBS Computation: MP2 / AUG-CC-PVTZ //
  //<<<<<<<<<<<<<<<<<<<<<<<<<<<<<<<<<<<<//


Scratch directory: /scratch//

*** tstart() called on g2-node38.bme.utexas.edu
*** at Sat Apr 11 21:04:05 2020

   => Loading Basis Set <=

    Name: AUG-CC-PVTZ
    Role: ORBITAL
    Keyword: BASIS
    atoms 1, 6     entry C          line   239 file /home/liuchw/anaconda3/envs/psi4env/share/psi4/basis/aug-cc-pvtz.gbs 
    atoms 2        entry O          line   331 file /home/liuchw/anaconda3/envs/psi4env/share/psi4/basis/aug-cc-pvtz.gbs 
    atoms 3        entry N          line   285 file /home/liuchw/anaconda3/envs/psi4env/share/psi4/basis/aug-cc-pvtz.gbs 
    atoms 4-5, 7-9 entry H          line    40 file /home/liuchw/anaconda3/envs/psi4env/share/psi4/basis/aug-cc-pvtz.gbs 


         ---------------------------------------------------------
                                   SCF
               by Justin Turney, Rob Parrish, Andy Simmonett
                          and Daniel G. A. Smith
                              RHF Reference
                        8 Threads,  38146 MiB Core
         ---------------------------------------------------------

  ==> Geometry <==

    Molecular point group: c1
    Full point group: C1

    Geometry (in Angstrom), charge = 0, multiplicity = 1:

       Center              X                  Y                   Z               Mass       
    ------------   -----------------  -----------------  -----------------  -----------------
         C            0.060556143154     0.183065869248     2.049422206137    12.000000000000
         O            0.087468143154     1.368139869248     1.757581206137    15.994914619570
         N            1.193136143154    -0.568811130752     2.152242206137    14.003074004430
         H            2.064076143154    -0.146231130752     1.883580206137     1.007825032230
         H            1.154198143154    -1.560698130752     2.283665206137     1.007825032230
         C           -1.229664856846    -0.555871130752     2.313876206137    12.000000000000
         H           -1.082414856846    -1.516592130752     2.801000206137     1.007825032230
         H           -1.735892856846    -0.714180130752     1.363063206137     1.007825032230
         H           -1.867608856846     0.071364869248     2.929148206137     1.007825032230

  Running in c1 symmetry.

  Rotational constants: A =      0.17654  B =      0.05622  C =      0.05472 [cm^-1]
  Rotational constants: A =   5292.53133  B =   1685.47398  C =   1640.58283 [MHz]
  Nuclear repulsion =  121.865987086681713

  Charge       = 0
  Multiplicity = 1
  Electrons    = 32
  Nalpha       = 16
  Nbeta        = 16

  ==> Algorithm <==

  SCF Algorithm Type is DF.
  DIIS enabled.
  MOM disabled.
  Fractional occupation disabled.
  Guess Type is SAD.
  Energy threshold   = 1.00e-07
  Density threshold  = 1.00e-08
  Integral threshold = 0.00e+00

  ==> Primary Basis <==

  Basis Set: AUG-CC-PVTZ
    Blend: AUG-CC-PVTZ
    Number of shells: 101
    Number of basis function: 299
    Number of Cartesian functions: 345
    Spherical Harmonics?: true
    Max angular momentum: 3

   => Loading Basis Set <=

    Name: (AUG-CC-PVTZ AUX)
    Role: JKFIT
    Keyword: DF_BASIS_SCF
    atoms 1, 6     entry C          line   162 file /home/liuchw/anaconda3/envs/psi4env/share/psi4/basis/aug-cc-pvtz-jkfit.gbs 
    atoms 2        entry O          line   286 file /home/liuchw/anaconda3/envs/psi4env/share/psi4/basis/aug-cc-pvtz-jkfit.gbs 
    atoms 3        entry N          line   224 file /home/liuchw/anaconda3/envs/psi4env/share/psi4/basis/aug-cc-pvtz-jkfit.gbs 
    atoms 4-5, 7-9 entry H          line    70 file /home/liuchw/anaconda3/envs/psi4env/share/psi4/basis/aug-cc-pvtz-jkfit.gbs 

  ==> Pre-Iterations <==

   -------------------------------------------------------
    Irrep   Nso     Nmo     Nalpha   Nbeta   Ndocc  Nsocc
   -------------------------------------------------------
     A        299     299       0       0       0       0
   -------------------------------------------------------
    Total     299     299      16      16      16       0
   -------------------------------------------------------

  ==> Integral Setup <==

  DFHelper Memory: AOs need 0.455 GiB; user supplied 27.940 GiB. Using in-core AOs.

  ==> MemDFJK: Density-Fitted J/K Matrices <==

    J tasked:                   Yes
    K tasked:                   Yes
    wK tasked:                   No
    OpenMP threads:               8
    Memory [MiB]:             28610
    Algorithm:                 Core
    Schwarz Cutoff:           1E-12
    Mask sparsity (%):       0.3378
    Fitting Condition:        1E-10

   => Auxiliary Basis Set <=

  Basis Set: (AUG-CC-PVTZ AUX)
    Blend: AUG-CC-PVTZ-JKFIT
    Number of shells: 190
    Number of basis function: 646
    Number of Cartesian functions: 799
    Spherical Harmonics?: true
    Max angular momentum: 4

  Minimum eigenvalue in the overlap matrix is 2.0017915117E-05.
  Using Symmetric Orthogonalization.

  SCF Guess: Superposition of Atomic Densities via on-the-fly atomic UHF.

  ==> Iterations <==

                           Total Energy        Delta E     RMS |[F,P]|

   @DF-RHF iter SAD:  -207.23537370237813   -2.07235e+02   0.00000e+00 
   @DF-RHF iter   1:  -207.88585184177427   -6.50478e-01   2.04071e-03 DIIS
   @DF-RHF iter   2:  -208.01918395667272   -1.33332e-01   1.18001e-03 DIIS
   @DF-RHF iter   3:  -208.06019634388525   -4.10124e-02   2.19071e-04 DIIS
   @DF-RHF iter   4:  -208.06257133270967   -2.37499e-03   9.28821e-05 DIIS
   @DF-RHF iter   5:  -208.06307471955731   -5.03387e-04   1.71161e-05 DIIS
   @DF-RHF iter   6:  -208.06310585068846   -3.11311e-05   8.25622e-06 DIIS
   @DF-RHF iter   7:  -208.06311169518995   -5.84450e-06   3.05696e-06 DIIS
   @DF-RHF iter   8:  -208.06311294324706   -1.24806e-06   9.57955e-07 DIIS
   @DF-RHF iter   9:  -208.06311308662742   -1.43380e-07   2.47408e-07 DIIS
   @DF-RHF iter  10:  -208.06311309382062   -7.19319e-09   7.94191e-08 DIIS
   @DF-RHF iter  11:  -208.06311309444965   -6.29029e-10   2.12915e-08 DIIS
   @DF-RHF iter  12:  -208.06311309449768   -4.80327e-11   4.87994e-09 DIIS
  Energy and wave function converged.


  ==> Post-Iterations <==

    Orbital Energies [Eh]
    ---------------------

    Doubly Occupied:                                                      

       1A    -20.516825     2A    -15.587544     3A    -11.354012  
       4A    -11.238078     5A     -1.378108     6A     -1.214521  
       7A     -1.007211     8A     -0.800955     9A     -0.728637  
      10A     -0.665321    11A     -0.616605    12A     -0.586595  
      13A     -0.563491    14A     -0.525280    15A     -0.425547  
      16A     -0.415984  

    Virtual:                                                              

      17A      0.021831    18A      0.036248    19A      0.044388  
      20A      0.047907    21A      0.062320    22A      0.084714  
      23A      0.103990    24A      0.106384    25A      0.116872  
      26A      0.123919    27A      0.133594    28A      0.140366  
      29A      0.149069    30A      0.152204    31A      0.166237  
      32A      0.170508    33A      0.179587    34A      0.212915  
      35A      0.226862    36A      0.233377    37A      0.245384  
      38A      0.257184    39A      0.261084    40A      0.272056  
      41A      0.292330    42A      0.295262    43A      0.309817  
      44A      0.321255    45A      0.334943    46A      0.343532  
      47A      0.346690    48A      0.355317    49A      0.358708  
      50A      0.367192    51A      0.377092    52A      0.385881  
      53A      0.400637    54A      0.408026    55A      0.411685  
      56A      0.422897    57A      0.435179    58A      0.444265  
      59A      0.460721    60A      0.467818    61A      0.476452  
      62A      0.496422    63A      0.499526    64A      0.514591  
      65A      0.520539    66A      0.536909    67A      0.538438  
      68A      0.561787    69A      0.588521    70A      0.604521  
      71A      0.622619    72A      0.636856    73A      0.639332  
      74A      0.654806    75A      0.702073    76A      0.728256  
      77A      0.736420    78A      0.765979    79A      0.771660  
      80A      0.792152    81A      0.804603    82A      0.815075  
      83A      0.836330    84A      0.847985    85A      0.858478  
      86A      0.863242    87A      0.878932    88A      0.881409  
      89A      0.896894    90A      0.908556    91A      0.917918  
      92A      0.939233    93A      0.952742    94A      0.960238  
      95A      0.978911    96A      1.003637    97A      1.011509  
      98A      1.013437    99A      1.023897   100A      1.035312  
     101A      1.041276   102A      1.059300   103A      1.062011  
     104A      1.074925   105A      1.083564   106A      1.104125  
     107A      1.112715   108A      1.121275   109A      1.136615  
     110A      1.146203   111A      1.185365   112A      1.186504  
     113A      1.206316   114A      1.219688   115A      1.233663  
     116A      1.243434   117A      1.255864   118A      1.261576  
     119A      1.283889   120A      1.301431   121A      1.306115  
     122A      1.330611   123A      1.351985   124A      1.363000  
     125A      1.406872   126A      1.413789   127A      1.431994  
     128A      1.459508   129A      1.469671   130A      1.494016  
     131A      1.520979   132A      1.526323   133A      1.551802  
     134A      1.559546   135A      1.572822   136A      1.618027  
     137A      1.632063   138A      1.642438   139A      1.651591  
     140A      1.686277   141A      1.696939   142A      1.726310  
     143A      1.729827   144A      1.782164   145A      1.797350  
     146A      1.805053   147A      1.837033   148A      1.845040  
     149A      1.866540   150A      1.895893   151A      1.922181  
     152A      1.929264   153A      2.014572   154A      2.037067  
     155A      2.060800   156A      2.072899   157A      2.086951  
     158A      2.126291   159A      2.137602   160A      2.167819  
     161A      2.197977   162A      2.213401   163A      2.229355  
     164A      2.249616   165A      2.264829   166A      2.311369  
     167A      2.331107   168A      2.371526   169A      2.390285  
     170A      2.424840   171A      2.449751   172A      2.495554  
     173A      2.513630   174A      2.525758   175A      2.564020  
     176A      2.579902   177A      2.628176   178A      2.681129  
     179A      2.691480   180A      2.716405   181A      2.773661  
     182A      2.776199   183A      2.791274   184A      2.917929  
     185A      2.932038   186A      2.965019   187A      3.005373  
     188A      3.048255   189A      3.136905   190A      3.200322  
     191A      3.206484   192A      3.315050   193A      3.379209  
     194A      3.386093   195A      3.465634   196A      3.523761  
     197A      3.543441   198A      3.557746   199A      3.600563  
     200A      3.631901   201A      3.656315   202A      3.712995  
     203A      3.740613   204A      3.773326   205A      3.797330  
     206A      3.829153   207A      3.845225   208A      3.869538  
     209A      3.889959   210A      3.926182   211A      3.932242  
     212A      3.961862   213A      3.992626   214A      4.007027  
     215A      4.072992   216A      4.087920   217A      4.120302  
     218A      4.178954   219A      4.200176   220A      4.225485  
     221A      4.242587   222A      4.252949   223A      4.304743  
     224A      4.312764   225A      4.333493   226A      4.368251  
     227A      4.405483   228A      4.430182   229A      4.445375  
     230A      4.481659   231A      4.490753   232A      4.512154  
     233A      4.580993   234A      4.659457   235A      4.664576  
     236A      4.716808   237A      4.730361   238A      4.783127  
     239A      4.796043   240A      4.819921   241A      4.854995  
     242A      4.870517   243A      4.885823   244A      4.934894  
     245A      4.978110   246A      5.004224   247A      5.040659  
     248A      5.091769   249A      5.124138   250A      5.147223  
     251A      5.200980   252A      5.251942   253A      5.282153  
     254A      5.339910   255A      5.346319   256A      5.382598  
     257A      5.426484   258A      5.491629   259A      5.519836  
     260A      5.553164   261A      5.599474   262A      5.623079  
     263A      5.641526   264A      5.725818   265A      5.766096  
     266A      5.792489   267A      5.896637   268A      5.953351  
     269A      6.088109   270A      6.105919   271A      6.124617  
     272A      6.141897   273A      6.231433   274A      6.255551  
     275A      6.323941   276A      6.336096   277A      6.594110  
     278A      6.667411   279A      6.709651   280A      6.738732  
     281A      6.778325   282A      6.811164   283A      6.982638  
     284A      7.005346   285A      7.091374   286A      7.214606  
     287A      7.358817   288A      7.416576   289A      7.424631  
     290A      7.594107   291A      7.678136   292A      7.754371  
     293A      7.795035   294A      7.906139   295A      7.968234  
     296A     15.568073   297A     16.558902   298A     17.932854  
     299A     19.396241  

    Final Occupation by Irrep:
              A 
    DOCC [    16 ]

  @DF-RHF Final Energy:  -208.06311309449768

   => Energetics <=

    Nuclear Repulsion Energy =            121.8659870866817130
    One-Electron Energy =                -524.6087715474943707
    Two-Electron Energy =                 194.6796713663150058
    Total Energy =                       -208.0631130944976803

Computation Completed


Properties will be evaluated at   0.000000,   0.000000,   0.000000 [a0]

Properties computed using the SCF density matrix

  Nuclear Dipole Moment: [e a0]
     X:     1.0760      Y:     1.6257      Z:   125.7926

  Electronic Dipole Moment: [e a0]
     X:    -0.8985      Y:    -3.2688      Z:  -125.5481

  Dipole Moment: [e a0]
     X:     0.1775      Y:    -1.6431      Z:     0.2445     Total:     1.6706

  Dipole Moment: [D]
     X:     0.4511      Y:    -4.1763      Z:     0.6214     Total:     4.2464


*** tstop() called on g2-node38.bme.utexas.edu at Sat Apr 11 21:04:50 2020
Module time:
	user time   =      40.48 seconds =       0.67 minutes
	system time =       1.28 seconds =       0.02 minutes
	total time  =         45 seconds =       0.75 minutes
Total time:
	user time   =      40.48 seconds =       0.67 minutes
	system time =       1.28 seconds =       0.02 minutes
	total time  =         45 seconds =       0.75 minutes

*** tstart() called on g2-node38.bme.utexas.edu
*** at Sat Apr 11 21:04:50 2020


  //>>>>>>>>>>>>>>>>>>>>>>>>>>>>>>>>>>>//
  //               DFMP2               //
  //<<<<<<<<<<<<<<<<<<<<<<<<<<<<<<<<<<<//

   => Loading Basis Set <=

    Name: (AUG-CC-PVTZ AUX)
    Role: RIFIT
    Keyword: DF_BASIS_MP2
    atoms 1, 6     entry C          line   148 file /home/liuchw/anaconda3/envs/psi4env/share/psi4/basis/aug-cc-pvtz-ri.gbs 
    atoms 2        entry O          line   264 file /home/liuchw/anaconda3/envs/psi4env/share/psi4/basis/aug-cc-pvtz-ri.gbs 
    atoms 3        entry N          line   206 file /home/liuchw/anaconda3/envs/psi4env/share/psi4/basis/aug-cc-pvtz-ri.gbs 
    atoms 4-5, 7-9 entry H          line    30 file /home/liuchw/anaconda3/envs/psi4env/share/psi4/basis/aug-cc-pvtz-ri.gbs 

	 --------------------------------------------------------
	                          DF-MP2                         
	      2nd-Order Density-Fitted Moller-Plesset Theory     
	              RMP2 Wavefunction,   8 Threads             
	                                                         
	        Rob Parrish, Justin Turney, Andy Simmonett,      
	           Ed Hohenstein, and C. David Sherrill          
	 --------------------------------------------------------

   => Auxiliary Basis Set <=

  Basis Set: (AUG-CC-PVTZ AUX)
    Blend: AUG-CC-PVTZ-RI
    Number of shells: 182
    Number of basis function: 654
    Number of Cartesian functions: 819
    Spherical Harmonics?: true
    Max angular momentum: 4

	 --------------------------------------------------------
	                 NBF =   299, NAUX =   654
	 --------------------------------------------------------
	   CLASS    FOCC     OCC    AOCC    AVIR     VIR    FVIR
	   PAIRS       0      16      16     283     283       0
	 --------------------------------------------------------

	-----------------------------------------------------------
	 ==================> DF-MP2 Energies <==================== 
	-----------------------------------------------------------
	 Reference Energy          =    -208.0631130944976803 [Eh]
	 Singles Energy            =      -0.0000000000000000 [Eh]
	 Same-Spin Energy          =      -0.2044960783507748 [Eh]
	 Opposite-Spin Energy      =      -0.6557355180883252 [Eh]
	 Correlation Energy        =      -0.8602315964391001 [Eh]
	 Total Energy              =    -208.9233446909367728 [Eh]
	-----------------------------------------------------------
	 ================> DF-SCS-MP2 Energies <================== 
	-----------------------------------------------------------
	 SCS Same-Spin Scale       =       0.3333333333333333 [-]
	 SCS Opposite-Spin Scale   =       1.2000000000000000 [-]
	 SCS Same-Spin Energy      =      -0.0681653594502583 [Eh]
	 SCS Opposite-Spin Energy  =      -0.7868826217059902 [Eh]
	 SCS Correlation Energy    =      -0.8550479811562485 [Eh]
	 SCS Total Energy          =    -208.9181610756539271 [Eh]
	-----------------------------------------------------------


*** tstop() called on g2-node38.bme.utexas.edu at Sat Apr 11 21:04:52 2020
Module time:
	user time   =      14.49 seconds =       0.24 minutes
	system time =       0.62 seconds =       0.01 minutes
	total time  =          2 seconds =       0.03 minutes
Total time:
	user time   =      54.98 seconds =       0.92 minutes
	system time =       1.90 seconds =       0.03 minutes
	total time  =         47 seconds =       0.78 minutes

  //>>>>>>>>>>>>>>>>>>>>>>>>>>>>>>>>>>>>//
  // CBS Computation: MP2 / AUG-CC-PVQZ //
  //<<<<<<<<<<<<<<<<<<<<<<<<<<<<<<<<<<<<//


Scratch directory: /scratch//

*** tstart() called on g2-node38.bme.utexas.edu
*** at Sat Apr 11 21:04:52 2020

   => Loading Basis Set <=

    Name: AUG-CC-PVQZ
    Role: ORBITAL
    Keyword: BASIS
    atoms 1, 6     entry C          line   303 file /home/liuchw/anaconda3/envs/psi4env/share/psi4/basis/aug-cc-pvqz.gbs 
    atoms 2        entry O          line   423 file /home/liuchw/anaconda3/envs/psi4env/share/psi4/basis/aug-cc-pvqz.gbs 
    atoms 3        entry N          line   363 file /home/liuchw/anaconda3/envs/psi4env/share/psi4/basis/aug-cc-pvqz.gbs 
    atoms 4-5, 7-9 entry H          line    40 file /home/liuchw/anaconda3/envs/psi4env/share/psi4/basis/aug-cc-pvqz.gbs 


         ---------------------------------------------------------
                                   SCF
               by Justin Turney, Rob Parrish, Andy Simmonett
                          and Daniel G. A. Smith
                              RHF Reference
                        8 Threads,  38146 MiB Core
         ---------------------------------------------------------

  ==> Geometry <==

    Molecular point group: c1
    Full point group: C1

    Geometry (in Angstrom), charge = 0, multiplicity = 1:

       Center              X                  Y                   Z               Mass       
    ------------   -----------------  -----------------  -----------------  -----------------
         C            0.060556143154     0.183065869248     2.049422206137    12.000000000000
         O            0.087468143154     1.368139869248     1.757581206137    15.994914619570
         N            1.193136143154    -0.568811130752     2.152242206137    14.003074004430
         H            2.064076143154    -0.146231130752     1.883580206137     1.007825032230
         H            1.154198143154    -1.560698130752     2.283665206137     1.007825032230
         C           -1.229664856846    -0.555871130752     2.313876206137    12.000000000000
         H           -1.082414856846    -1.516592130752     2.801000206137     1.007825032230
         H           -1.735892856846    -0.714180130752     1.363063206137     1.007825032230
         H           -1.867608856846     0.071364869248     2.929148206137     1.007825032230

  Running in c1 symmetry.

  Rotational constants: A =      0.17654  B =      0.05622  C =      0.05472 [cm^-1]
  Rotational constants: A =   5292.53133  B =   1685.47398  C =   1640.58283 [MHz]
  Nuclear repulsion =  121.865987086681713

  Charge       = 0
  Multiplicity = 1
  Electrons    = 32
  Nalpha       = 16
  Nbeta        = 16

  ==> Algorithm <==

  SCF Algorithm Type is DF.
  DIIS enabled.
  MOM disabled.
  Fractional occupation disabled.
  Guess Type is SAD.
  Energy threshold   = 1.00e-07
  Density threshold  = 1.00e-08
  Integral threshold = 0.00e+00

  ==> Primary Basis <==

  Basis Set: AUG-CC-PVQZ
    Blend: AUG-CC-PVQZ
    Number of shells: 150
    Number of basis function: 550
    Number of Cartesian functions: 695
    Spherical Harmonics?: true
    Max angular momentum: 4

   => Loading Basis Set <=

    Name: (AUG-CC-PVQZ AUX)
    Role: JKFIT
    Keyword: DF_BASIS_SCF
    atoms 1, 6     entry C          line   178 file /home/liuchw/anaconda3/envs/psi4env/share/psi4/basis/aug-cc-pvqz-jkfit.gbs 
    atoms 2        entry O          line   318 file /home/liuchw/anaconda3/envs/psi4env/share/psi4/basis/aug-cc-pvqz-jkfit.gbs 
    atoms 3        entry N          line   248 file /home/liuchw/anaconda3/envs/psi4env/share/psi4/basis/aug-cc-pvqz-jkfit.gbs 
    atoms 4-5, 7-9 entry H          line    70 file /home/liuchw/anaconda3/envs/psi4env/share/psi4/basis/aug-cc-pvqz-jkfit.gbs 

  ==> Pre-Iterations <==

   -------------------------------------------------------
    Irrep   Nso     Nmo     Nalpha   Nbeta   Ndocc  Nsocc
   -------------------------------------------------------
     A        550     550       0       0       0       0
   -------------------------------------------------------
    Total     550     550      16      16      16       0
   -------------------------------------------------------

  ==> Integral Setup <==

  DFHelper Memory: AOs need 2.197 GiB; user supplied 27.940 GiB. Using in-core AOs.

  ==> MemDFJK: Density-Fitted J/K Matrices <==

    J tasked:                   Yes
    K tasked:                   Yes
    wK tasked:                   No
    OpenMP threads:               8
    Memory [MiB]:             28610
    Algorithm:                 Core
    Schwarz Cutoff:           1E-12
    Mask sparsity (%):       1.8175
    Fitting Condition:        1E-10

   => Auxiliary Basis Set <=

  Basis Set: (AUG-CC-PVQZ AUX)
    Blend: AUG-CC-PVQZ-JKFIT
    Number of shells: 226
    Number of basis function: 948
    Number of Cartesian functions: 1297
    Spherical Harmonics?: true
    Max angular momentum: 5

  Minimum eigenvalue in the overlap matrix is 4.4798461873E-06.
  Using Symmetric Orthogonalization.

  SCF Guess: Superposition of Atomic Densities via on-the-fly atomic UHF.

  ==> Iterations <==

                           Total Energy        Delta E     RMS |[F,P]|

   @DF-RHF iter SAD:  -207.24850641833285   -2.07249e+02   0.00000e+00 
   @DF-RHF iter   1:  -207.89853234323891   -6.50026e-01   1.11168e-03 DIIS
   @DF-RHF iter   2:  -208.03217060489337   -1.33638e-01   6.43968e-04 DIIS
   @DF-RHF iter   3:  -208.07336610438352   -4.11955e-02   1.19497e-04 DIIS
   @DF-RHF iter   4:  -208.07574932828177   -2.38322e-03   5.08134e-05 DIIS
   @DF-RHF iter   5:  -208.07625612966106   -5.06801e-04   9.41750e-06 DIIS
   @DF-RHF iter   6:  -208.07628776230433   -3.16326e-05   4.52379e-06 DIIS
   @DF-RHF iter   7:  -208.07629367077112   -5.90847e-06   1.68497e-06 DIIS
   @DF-RHF iter   8:  -208.07629493785205   -1.26708e-06   5.38036e-07 DIIS
   @DF-RHF iter   9:  -208.07629508929477   -1.51443e-07   1.39777e-07 DIIS
   @DF-RHF iter  10:  -208.07629509712808   -7.83331e-09   4.45906e-08 DIIS
   @DF-RHF iter  11:  -208.07629509778943   -6.61345e-10   1.21663e-08 DIIS
   @DF-RHF iter  12:  -208.07629509784107   -5.16422e-11   2.73967e-09 DIIS
  Energy and wave function converged.


  ==> Post-Iterations <==

    Orbital Energies [Eh]
    ---------------------

    Doubly Occupied:                                                      

       1A    -20.514108     2A    -15.585640     3A    -11.352845  
       4A    -11.237040     5A     -1.377277     6A     -1.214047  
       7A     -1.007009     8A     -0.800841     9A     -0.728695  
      10A     -0.665342    11A     -0.616712    12A     -0.586657  
      13A     -0.563638    14A     -0.525428    15A     -0.425671  
      16A     -0.416129  

    Virtual:                                                              

      17A      0.018995    18A      0.032220    19A      0.039848  
      20A      0.043208    21A      0.056766    22A      0.072221  
      23A      0.087633    24A      0.091358    25A      0.098785  
      26A      0.107110    27A      0.116062    28A      0.122104  
      29A      0.128656    30A      0.131290    31A      0.145027  
      32A      0.155628    33A      0.162619    34A      0.182238  
      35A      0.193050    36A      0.198925    37A      0.204422  
      38A      0.213396    39A      0.222144    40A      0.235544  
      41A      0.244596    42A      0.249947    43A      0.261806  
      44A      0.269569    45A      0.276384    46A      0.283203  
      47A      0.291280    48A      0.293813    49A      0.297879  
      50A      0.307034    51A      0.312683    52A      0.316100  
      53A      0.323347    54A      0.331600    55A      0.332923  
      56A      0.350731    57A      0.357966    58A      0.367129  
      59A      0.371738    60A      0.388179    61A      0.391795  
      62A      0.397161    63A      0.406715    64A      0.412306  
      65A      0.419915    66A      0.433279    67A      0.444938  
      68A      0.453766    69A      0.465214    70A      0.487231  
      71A      0.508201    72A      0.514669    73A      0.520214  
      74A      0.536267    75A      0.544638    76A      0.567636  
      77A      0.583996    78A      0.596374    79A      0.599751  
      80A      0.605737    81A      0.625343    82A      0.639237  
      83A      0.645884    84A      0.662359    85A      0.665833  
      86A      0.669192    87A      0.677283    88A      0.686506  
      89A      0.698920    90A      0.701771    91A      0.712553  
      92A      0.716413    93A      0.727885    94A      0.734529  
      95A      0.740480    96A      0.751896    97A      0.758438  
      98A      0.763908    99A      0.770132   100A      0.788409  
     101A      0.789907   102A      0.793910   103A      0.810381  
     104A      0.820301   105A      0.824140   106A      0.838227  
     107A      0.845326   108A      0.855333   109A      0.858235  
     110A      0.882035   111A      0.884395   112A      0.898103  
     113A      0.915903   114A      0.929834   115A      0.933597  
     116A      0.947668   117A      0.967550   118A      0.969786  
     119A      0.980011   120A      0.991547   121A      1.005105  
     122A      1.007219   123A      1.018954   124A      1.037080  
     125A      1.041013   126A      1.058547   127A      1.061438  
     128A      1.085375   129A      1.104145   130A      1.112997  
     131A      1.123124   132A      1.135886   133A      1.161062  
     134A      1.171149   135A      1.179081   136A      1.195730  
     137A      1.207877   138A      1.224702   139A      1.228621  
     140A      1.237587   141A      1.244248   142A      1.262860  
     143A      1.272237   144A      1.296561   145A      1.322398  
     146A      1.353091   147A      1.361666   148A      1.405698  
     149A      1.407965   150A      1.426771   151A      1.442754  
     152A      1.460787   153A      1.472540   154A      1.490209  
     155A      1.497566   156A      1.513409   157A      1.515039  
     158A      1.543664   159A      1.552864   160A      1.571707  
     161A      1.577864   162A      1.589981   163A      1.600366  
     164A      1.619308   165A      1.621717   166A      1.664471  
     167A      1.673456   168A      1.678108   169A      1.694298  
     170A      1.704729   171A      1.717930   172A      1.728854  
     173A      1.739082   174A      1.756052   175A      1.760658  
     176A      1.784659   177A      1.798844   178A      1.814809  
     179A      1.828860   180A      1.842838   181A      1.850418  
     182A      1.853849   183A      1.882138   184A      1.898374  
     185A      1.901954   186A      1.912655   187A      1.922199  
     188A      1.933180   189A      1.946912   190A      1.957285  
     191A      1.978515   192A      1.986502   193A      2.006299  
     194A      2.008831   195A      2.013532   196A      2.026951  
     197A      2.043669   198A      2.051304   199A      2.058058  
     200A      2.073983   201A      2.081856   202A      2.100874  
     203A      2.112047   204A      2.121224   205A      2.134558  
     206A      2.144638   207A      2.157314   208A      2.164536  
     209A      2.178488   210A      2.184245   211A      2.191537  
     212A      2.208028   213A      2.225317   214A      2.233480  
     215A      2.249372   216A      2.269476   217A      2.277165  
     218A      2.288551   219A      2.291146   220A      2.306585  
     221A      2.316624   222A      2.340535   223A      2.359804  
     224A      2.380707   225A      2.383056   226A      2.404117  
     227A      2.419814   228A      2.446327   229A      2.453912  
     230A      2.476156   231A      2.508093   232A      2.545656  
     233A      2.554988   234A      2.567788   235A      2.578890  
     236A      2.612044   237A      2.623277   238A      2.666277  
     239A      2.675441   240A      2.693762   241A      2.703346  
     242A      2.738007   243A      2.772486   244A      2.803219  
     245A      2.812314   246A      2.834678   247A      2.838629  
     248A      2.855952   249A      2.863240   250A      2.873601  
     251A      2.905443   252A      2.921550   253A      2.946960  
     254A      2.963459   255A      2.974909   256A      2.984573  
     257A      3.004324   258A      3.018771   259A      3.031612  
     260A      3.033677   261A      3.058865   262A      3.079810  
     263A      3.088722   264A      3.114426   265A      3.132386  
     266A      3.154170   267A      3.182103   268A      3.193304  
     269A      3.216106   270A      3.231276   271A      3.253619  
     272A      3.265859   273A      3.273201   274A      3.297774  
     275A      3.326962   276A      3.332490   277A      3.349913  
     278A      3.413037   279A      3.417890   280A      3.435475  
     281A      3.462239   282A      3.508064   283A      3.516230  
     284A      3.548672   285A      3.597939   286A      3.610369  
     287A      3.655776   288A      3.670941   289A      3.694940  
     290A      3.702093   291A      3.728282   292A      3.754654  
     293A      3.770265   294A      3.816780   295A      3.840527  
     296A      3.854722   297A      3.884622   298A      3.906925  
     299A      3.957609   300A      3.963195   301A      3.979189  
     302A      4.007424   303A      4.021823   304A      4.038101  
     305A      4.054990   306A      4.063270   307A      4.085539  
     308A      4.090729   309A      4.108386   310A      4.119694  
     311A      4.140031   312A      4.167794   313A      4.186025  
     314A      4.217230   315A      4.224925   316A      4.240280  
     317A      4.278209   318A      4.285095   319A      4.306751  
     320A      4.330215   321A      4.376249   322A      4.386710  
     323A      4.404646   324A      4.408339   325A      4.435179  
     326A      4.449391   327A      4.471646   328A      4.507133  
     329A      4.528858   330A      4.545080   331A      4.576320  
     332A      4.604183   333A      4.631218   334A      4.657204  
     335A      4.681436   336A      4.687999   337A      4.705998  
     338A      4.751957   339A      4.798324   340A      4.807323  
     341A      4.838813   342A      4.868308   343A      4.878555  
     344A      4.896243   345A      4.973705   346A      4.986066  
     347A      5.028590   348A      5.066883   349A      5.078068  
     350A      5.127497   351A      5.147044   352A      5.183207  
     353A      5.201635   354A      5.247090   355A      5.322437  
     356A      5.382339   357A      5.416703   358A      5.486356  
     359A      5.534904   360A      5.584977   361A      5.619895  
     362A      5.649039   363A      5.707487   364A      5.774969  
     365A      5.797322   366A      5.878714   367A      5.998488  
     368A      6.105140   369A      6.144398   370A      6.197727  
     371A      6.224769   372A      6.267679   373A      6.309400  
     374A      6.354890   375A      6.358025   376A      6.412935  
     377A      6.486951   378A      6.509781   379A      6.599227  
     380A      6.612334   381A      6.623908   382A      6.681225  
     383A      6.721558   384A      6.763287   385A      6.808225  
     386A      6.816883   387A      6.858657   388A      6.878793  
     389A      6.889571   390A      6.922737   391A      6.941145  
     392A      6.959962   393A      7.005605   394A      7.028520  
     395A      7.070345   396A      7.081671   397A      7.112925  
     398A      7.143182   399A      7.148232   400A      7.190778  
     401A      7.200987   402A      7.252385   403A      7.266636  
     404A      7.313942   405A      7.331531   406A      7.354154  
     407A      7.409166   408A      7.453625   409A      7.491597  
     410A      7.535818   411A      7.555501   412A      7.587390  
     413A      7.641770   414A      7.666544   415A      7.696247  
     416A      7.715989   417A      7.739855   418A      7.789404  
     419A      7.814977   420A      7.830295   421A      7.833750  
     422A      7.884823   423A      7.914381   424A      7.978137  
     425A      7.992308   426A      8.009701   427A      8.047605  
     428A      8.056705   429A      8.096639   430A      8.190312  
     431A      8.204404   432A      8.210621   433A      8.321503  
     434A      8.384471   435A      8.406249   436A      8.454448  
     437A      8.484552   438A      8.512174   439A      8.533401  
     440A      8.591757   441A      8.626438   442A      8.649184  
     443A      8.678430   444A      8.685446   445A      8.693931  
     446A      8.719465   447A      8.730158   448A      8.761137  
     449A      8.786150   450A      8.797210   451A      8.846920  
     452A      8.905744   453A      8.958773   454A      9.010409  
     455A      9.025545   456A      9.101038   457A      9.105770  
     458A      9.155700   459A      9.163611   460A      9.196429  
     461A      9.229550   462A      9.249625   463A      9.277030  
     464A      9.296900   465A      9.334214   466A      9.360884  
     467A      9.427230   468A      9.453057   469A      9.499505  
     470A      9.547038   471A      9.594064   472A      9.598279  
     473A      9.625158   474A      9.636025   475A      9.686222  
     476A      9.744943   477A      9.771631   478A      9.834004  
     479A      9.860515   480A      9.913375   481A      9.928088  
     482A      9.953712   483A     10.000852   484A     10.026364  
     485A     10.070504   486A     10.134546   487A     10.173719  
     488A     10.216192   489A     10.247896   490A     10.262731  
     491A     10.273437   492A     10.331759   493A     10.368094  
     494A     10.443555   495A     10.502801   496A     10.570052  
     497A     10.596838   498A     10.623121   499A     10.783561  
     500A     10.843791   501A     10.870027   502A     10.894416  
     503A     10.951921   504A     10.982583   505A     11.048971  
     506A     11.074451   507A     11.124374   508A     11.185404  
     509A     11.216810   510A     11.300777   511A     11.352079  
     512A     11.419704   513A     11.445033   514A     11.490572  
     515A     11.542649   516A     11.594543   517A     11.676444  
     518A     11.697861   519A     11.841741   520A     11.921550  
     521A     12.028385   522A     12.149719   523A     12.220598  
     524A     12.283907   525A     12.307014   526A     12.345597  
     527A     12.438710   528A     12.624317   529A     12.813809  
     530A     12.856483   531A     12.926437   532A     12.967432  
     533A     13.192303   534A     13.288880   535A     13.338644  
     536A     13.417634   537A     13.426683   538A     13.476640  
     539A     13.625028   540A     13.716761   541A     14.110878  
     542A     14.134011   543A     14.733341   544A     14.954107  
     545A     15.061639   546A     15.336002   547A     26.453145  
     548A     29.148010   549A     35.791642   550A     44.146532  

    Final Occupation by Irrep:
              A 
    DOCC [    16 ]

  @DF-RHF Final Energy:  -208.07629509784107

   => Energetics <=

    Nuclear Repulsion Energy =            121.8659870866817130
    One-Electron Energy =                -524.6504065462154358
    Two-Electron Energy =                 194.7081243616926827
    Total Energy =                       -208.0762950978410686

Computation Completed


Properties will be evaluated at   0.000000,   0.000000,   0.000000 [a0]

Properties computed using the SCF density matrix

  Nuclear Dipole Moment: [e a0]
     X:     1.0760      Y:     1.6257      Z:   125.7926

  Electronic Dipole Moment: [e a0]
     X:    -0.8984      Y:    -3.2676      Z:  -125.5484

  Dipole Moment: [e a0]
     X:     0.1776      Y:    -1.6419      Z:     0.2443     Total:     1.6695

  Dipole Moment: [D]
     X:     0.4514      Y:    -4.1734      Z:     0.6209     Total:     4.2434


*** tstop() called on g2-node38.bme.utexas.edu at Sat Apr 11 21:05:10 2020
Module time:
	user time   =     120.02 seconds =       2.00 minutes
	system time =       3.52 seconds =       0.06 minutes
	total time  =         18 seconds =       0.30 minutes
Total time:
	user time   =     175.08 seconds =       2.92 minutes
	system time =       5.42 seconds =       0.09 minutes
	total time  =         65 seconds =       1.08 minutes

*** tstart() called on g2-node38.bme.utexas.edu
*** at Sat Apr 11 21:05:10 2020


  //>>>>>>>>>>>>>>>>>>>>>>>>>>>>>>>>>>>//
  //               DFMP2               //
  //<<<<<<<<<<<<<<<<<<<<<<<<<<<<<<<<<<<//

   => Loading Basis Set <=

    Name: (AUG-CC-PVQZ AUX)
    Role: RIFIT
    Keyword: DF_BASIS_MP2
    atoms 1, 6     entry C          line   184 file /home/liuchw/anaconda3/envs/psi4env/share/psi4/basis/aug-cc-pvqz-ri.gbs 
    atoms 2        entry O          line   332 file /home/liuchw/anaconda3/envs/psi4env/share/psi4/basis/aug-cc-pvqz-ri.gbs 
    atoms 3        entry N          line   258 file /home/liuchw/anaconda3/envs/psi4env/share/psi4/basis/aug-cc-pvqz-ri.gbs 
    atoms 4-5, 7-9 entry H          line    30 file /home/liuchw/anaconda3/envs/psi4env/share/psi4/basis/aug-cc-pvqz-ri.gbs 

	 --------------------------------------------------------
	                          DF-MP2                         
	      2nd-Order Density-Fitted Moller-Plesset Theory     
	              RMP2 Wavefunction,   8 Threads             
	                                                         
	        Rob Parrish, Justin Turney, Andy Simmonett,      
	           Ed Hohenstein, and C. David Sherrill          
	 --------------------------------------------------------

   => Auxiliary Basis Set <=

  Basis Set: (AUG-CC-PVQZ AUX)
    Blend: AUG-CC-PVQZ-RI
    Number of shells: 244
    Number of basis function: 1072
    Number of Cartesian functions: 1473
    Spherical Harmonics?: true
    Max angular momentum: 5

	 --------------------------------------------------------
	                 NBF =   550, NAUX =  1072
	 --------------------------------------------------------
	   CLASS    FOCC     OCC    AOCC    AVIR     VIR    FVIR
	   PAIRS       0      16      16     534     534       0
	 --------------------------------------------------------

	-----------------------------------------------------------
	 ==================> DF-MP2 Energies <==================== 
	-----------------------------------------------------------
	 Reference Energy          =    -208.0762950978410686 [Eh]
	 Singles Energy            =      -0.0000000000000000 [Eh]
	 Same-Spin Energy          =      -0.2170274917302653 [Eh]
	 Opposite-Spin Energy      =      -0.7396088515595882 [Eh]
	 Correlation Energy        =      -0.9566363432898535 [Eh]
	 Total Energy              =    -209.0329314411309269 [Eh]
	-----------------------------------------------------------
	 ================> DF-SCS-MP2 Energies <================== 
	-----------------------------------------------------------
	 SCS Same-Spin Scale       =       0.3333333333333333 [-]
	 SCS Opposite-Spin Scale   =       1.2000000000000000 [-]
	 SCS Same-Spin Energy      =      -0.0723424972434218 [Eh]
	 SCS Opposite-Spin Energy  =      -0.8875306218715059 [Eh]
	 SCS Correlation Energy    =      -0.9598731191149277 [Eh]
	 SCS Total Energy          =    -209.0361682169559856 [Eh]
	-----------------------------------------------------------


*** tstop() called on g2-node38.bme.utexas.edu at Sat Apr 11 21:05:21 2020
Module time:
	user time   =      54.93 seconds =       0.92 minutes
	system time =       2.22 seconds =       0.04 minutes
	total time  =         11 seconds =       0.18 minutes
Total time:
	user time   =     230.01 seconds =       3.83 minutes
	system time =       7.64 seconds =       0.13 minutes
	total time  =         76 seconds =       1.27 minutes

  //>>>>>>>>>>>>>>>>>>>>>>>>>>>>>>>>>>>//
  //  CBS Results: mp2/aug-cc-pv[tq]z  //
  //<<<<<<<<<<<<<<<<<<<<<<<<<<<<<<<<<<<//


   ==> HF <==

   HI-zeta (4) Energy:               -208.076295097841


   ==> Helgaker 2-point correlated extrapolation for method: MP2 <==

   LO-zeta (3) Energy:               -208.923344690937
   HI-zeta (4) Energy:               -209.032931441131
   Alpha (exponent) Value:             3.000000000000
   Extrapolated Energy:              -209.112900150732

   @Extrapolated MP2/(T,Q):          -209.112900150732



   ==> Helgaker 2-point correlated extrapolation for method: HF <==

   LO-zeta (3) Energy:               -208.063113094498
   HI-zeta (4) Energy:               -208.076295097841
   Alpha (exponent) Value:             3.000000000000
   Extrapolated Energy:              -208.085914397578

   @Extrapolated HF/(T,Q):           -208.085914397578


   ==> Components <==

  ---------------------------------------------------------------------------------------------------------
                          Method / Basis                      Rqd      Energy [Eh]   Variable
  ---------------------------------------------------------------------------------------------------------
                              hf / aug-cc-pvtz                  *    -208.06311309   HF TOTAL ENERGY
                             mp2 / aug-cc-pvtz                  *    -208.92334469   MP2 TOTAL ENERGY
                              hf / aug-cc-pvqz                  *    -208.07629510   HF TOTAL ENERGY
                             mp2 / aug-cc-pvqz                  *    -209.03293144   MP2 TOTAL ENERGY
  ---------------------------------------------------------------------------------------------------------

   ==> Stages <==

  ---------------------------------------------------------------------------------------------------------
      Stage               Method / Basis                       Wt      Energy [Eh]   Scheme
  ---------------------------------------------------------------------------------------------------------
        scf                   hf / aug-cc-pvqz                  1    -208.07629510   xtpl_highest_1
       corl                  mp2 / aug-cc-pv[tq]z               1    -209.11290015   corl_xtpl_helgaker_2
       corl                   hf / aug-cc-pv[tq]z              -1    -208.08591440   corl_xtpl_helgaker_2
  ---------------------------------------------------------------------------------------------------------

   ==> CBS <==

  ---------------------------------------------------------------------------------------------------------
      Stage               Method / Basis                               Energy [Eh]   Scheme
  ---------------------------------------------------------------------------------------------------------
        scf                   hf / aug-cc-pvqz                       -208.07629510   xtpl_highest_1
       corl                  mp2 / aug-cc-pv[tq]z                      -1.02698575   corl_xtpl_helgaker_2
      total                  CBS                                     -209.10328085   
  ---------------------------------------------------------------------------------------------------------
   => Loading Basis Set <=

    Name: DEF2-SVP
    Role: ORBITAL
    Keyword: BASIS
    atoms 1, 6     entry C          line    90 file /home/liuchw/anaconda3/envs/psi4env/share/psi4/basis/def2-svp.gbs 
    atoms 2        entry O          line   130 file /home/liuchw/anaconda3/envs/psi4env/share/psi4/basis/def2-svp.gbs 
    atoms 3        entry N          line   110 file /home/liuchw/anaconda3/envs/psi4env/share/psi4/basis/def2-svp.gbs 
    atoms 4-5, 7-9 entry H          line    15 file /home/liuchw/anaconda3/envs/psi4env/share/psi4/basis/def2-svp.gbs 


       N-Body: Complex Energy (fragments = (2,), basis = (2,):  -209.10328085099499)

       N-Body: Computing complex (2/4) with fragments (2,) in the basis of fragments (1, 2).


Scratch directory: /scratch//

  //>>>>>>>>>>>>>>>>>>>>>>>>>>>>>>>>>>>//
  //   CBS Setup: mp2/aug-cc-pv[tq]z   //
  //<<<<<<<<<<<<<<<<<<<<<<<<<<<<<<<<<<<//

    Naive listing of computations required.
             hf / aug-cc-pvqz              for  HF TOTAL ENERGY
            mp2 / aug-cc-pvtz              for  MP2 TOTAL ENERGY
            mp2 / aug-cc-pvqz              for  MP2 TOTAL ENERGY
             hf / aug-cc-pvtz              for  HF TOTAL ENERGY
             hf / aug-cc-pvqz              for  HF TOTAL ENERGY

    Enlightened listing of computations required.
            mp2 / aug-cc-pvtz              for  MP2 TOTAL ENERGY
            mp2 / aug-cc-pvqz              for  MP2 TOTAL ENERGY

    Full listing of computations to be obtained (required and bonus).
             hf / aug-cc-pvtz              for  HF TOTAL ENERGY
            mp2 / aug-cc-pvtz              for  MP2 TOTAL ENERGY
             hf / aug-cc-pvqz              for  HF TOTAL ENERGY
            mp2 / aug-cc-pvqz              for  MP2 TOTAL ENERGY

  //>>>>>>>>>>>>>>>>>>>>>>>>>>>>>>>>>>>>//
  // CBS Computation: MP2 / AUG-CC-PVTZ //
  //<<<<<<<<<<<<<<<<<<<<<<<<<<<<<<<<<<<<//


Scratch directory: /scratch//

*** tstart() called on g2-node38.bme.utexas.edu
*** at Sat Apr 11 21:05:23 2020

   => Loading Basis Set <=

    Name: AUG-CC-PVTZ
    Role: ORBITAL
    Keyword: BASIS
    atoms 1, 5, 8, 11, 14, 18, 23                    entry C          line   239 file /home/liuchw/anaconda3/envs/psi4env/share/psi4/basis/aug-cc-pvtz.gbs 
    atoms 2-4, 6-7, 9-10, 12-13, 15-17, 21-22, 24-26 entry H          line    40 file /home/liuchw/anaconda3/envs/psi4env/share/psi4/basis/aug-cc-pvtz.gbs 
    atoms 19                                         entry O          line   331 file /home/liuchw/anaconda3/envs/psi4env/share/psi4/basis/aug-cc-pvtz.gbs 
    atoms 20                                         entry N          line   285 file /home/liuchw/anaconda3/envs/psi4env/share/psi4/basis/aug-cc-pvtz.gbs 


         ---------------------------------------------------------
                                   SCF
               by Justin Turney, Rob Parrish, Andy Simmonett
                          and Daniel G. A. Smith
                              RHF Reference
                        8 Threads,  38146 MiB Core
         ---------------------------------------------------------

  ==> Geometry <==

    Molecular point group: c1
    Full point group: C1

    Geometry (in Angstrom), charge = 0, multiplicity = 1:

       Center              X                  Y                   Z               Mass       
    ------------   -----------------  -----------------  -----------------  -----------------
      Gh(C)          -2.573557856846    -0.350212130752    -1.794012793863    12.000000000000
      Gh(H)          -2.596170856846    -0.903472130752    -2.733089793863     1.007825032230
      Gh(H)          -2.645525856846    -1.078993130752    -0.985756793863     1.007825032230
      Gh(H)          -3.461816856846     0.278518869248    -1.754509793863     1.007825032230
      Gh(C)          -1.295341856846     0.470287869248    -1.678407793863    12.000000000000
      Gh(H)          -1.303032856846     1.056155869248    -0.757129793863     1.007825032230
      Gh(H)          -1.248158856846     1.188467869248    -2.500246793863     1.007825032230
      Gh(C)          -0.042611856846    -0.395366130752    -1.705030793863    12.000000000000
      Gh(H)          -0.071956856846    -1.100465130752    -0.867595793863     1.007825032230
      Gh(H)          -0.039590856846    -1.003949130752    -2.614944793863     1.007825032230
      Gh(C)           1.245814143154     0.412959869248    -1.631438793863    12.000000000000
      Gh(H)           1.227501143154     1.026455869248    -0.728877793863     1.007825032230
      Gh(H)           1.280515143154     1.104270869248    -2.476576793863     1.007825032230
      Gh(C)           2.486793143154    -0.470250130752    -1.644249793863    12.000000000000
      Gh(H)           2.534937143154    -1.062369130752    -2.558367793863     1.007825032230
      Gh(H)           3.401952143154     0.116983869248    -1.579561793863     1.007825032230
      Gh(H)           2.473515143154    -1.166470130752    -0.804852793863     1.007825032230
         C            0.060556143154     0.183065869248     2.049422206137    12.000000000000
         O            0.087468143154     1.368139869248     1.757581206137    15.994914619570
         N            1.193136143154    -0.568811130752     2.152242206137    14.003074004430
         H            2.064076143154    -0.146231130752     1.883580206137     1.007825032230
         H            1.154198143154    -1.560698130752     2.283665206137     1.007825032230
         C           -1.229664856846    -0.555871130752     2.313876206137    12.000000000000
         H           -1.082414856846    -1.516592130752     2.801000206137     1.007825032230
         H           -1.735892856846    -0.714180130752     1.363063206137     1.007825032230
         H           -1.867608856846     0.071364869248     2.929148206137     1.007825032230

  Running in c1 symmetry.

  Rotational constants: A =      0.04608  B =      0.03136  C =      0.02185 [cm^-1]
  Rotational constants: A =   1381.51829  B =    940.10346  C =    654.90874 [MHz]
  Nuclear repulsion =  121.865987086681713

  Charge       = 0
  Multiplicity = 1
  Electrons    = 32
  Nalpha       = 16
  Nbeta        = 16

  ==> Algorithm <==

  SCF Algorithm Type is DF.
  DIIS enabled.
  MOM disabled.
  Fractional occupation disabled.
  Guess Type is SAD.
  Energy threshold   = 1.00e-07
  Density threshold  = 1.00e-08
  Integral threshold = 0.00e+00

  ==> Primary Basis <==

  Basis Set: AUG-CC-PVTZ
    Blend: AUG-CC-PVTZ
    Number of shells: 279
    Number of basis function: 805
    Number of Cartesian functions: 920
    Spherical Harmonics?: true
    Max angular momentum: 3

   => Loading Basis Set <=

    Name: (AUG-CC-PVTZ AUX)
    Role: JKFIT
    Keyword: DF_BASIS_SCF
    atoms 1, 5, 8, 11, 14, 18, 23                    entry C          line   162 file /home/liuchw/anaconda3/envs/psi4env/share/psi4/basis/aug-cc-pvtz-jkfit.gbs 
    atoms 2-4, 6-7, 9-10, 12-13, 15-17, 21-22, 24-26 entry H          line    70 file /home/liuchw/anaconda3/envs/psi4env/share/psi4/basis/aug-cc-pvtz-jkfit.gbs 
    atoms 19                                         entry O          line   286 file /home/liuchw/anaconda3/envs/psi4env/share/psi4/basis/aug-cc-pvtz-jkfit.gbs 
    atoms 20                                         entry N          line   224 file /home/liuchw/anaconda3/envs/psi4env/share/psi4/basis/aug-cc-pvtz-jkfit.gbs 

  ==> Pre-Iterations <==

   -------------------------------------------------------
    Irrep   Nso     Nmo     Nalpha   Nbeta   Ndocc  Nsocc
   -------------------------------------------------------
     A        805     805       0       0       0       0
   -------------------------------------------------------
    Total     805     805      16      16      16       0
   -------------------------------------------------------

  ==> Integral Setup <==

  DFHelper Memory: AOs need 7.870 GiB; user supplied 27.940 GiB. Using in-core AOs.

  ==> MemDFJK: Density-Fitted J/K Matrices <==

    J tasked:                   Yes
    K tasked:                   Yes
    wK tasked:                   No
    OpenMP threads:               8
    Memory [MiB]:             28610
    Algorithm:                 Core
    Schwarz Cutoff:           1E-12
    Mask sparsity (%):       7.4207
    Fitting Condition:        1E-10

   => Auxiliary Basis Set <=

  Basis Set: (AUG-CC-PVTZ AUX)
    Blend: AUG-CC-PVTZ-JKFIT
    Number of shells: 508
    Number of basis function: 1718
    Number of Cartesian functions: 2114
    Spherical Harmonics?: true
    Max angular momentum: 4

  Minimum eigenvalue in the overlap matrix is 2.4927720018E-06.
  Using Symmetric Orthogonalization.

  SCF Guess: Superposition of Atomic Densities via on-the-fly atomic UHF.

  ==> Iterations <==

                           Total Energy        Delta E     RMS |[F,P]|

   @DF-RHF iter SAD:  -207.23537461838205   -2.07235e+02   0.00000e+00 
   @DF-RHF iter   1:  -207.88601715329986   -6.50643e-01   7.57999e-04 DIIS
   @DF-RHF iter   2:  -208.01937482183416   -1.33358e-01   4.38297e-04 DIIS
   @DF-RHF iter   3:  -208.06038424354034   -4.10094e-02   8.13638e-05 DIIS
   @DF-RHF iter   4:  -208.06275935944802   -2.37512e-03   3.45084e-05 DIIS
   @DF-RHF iter   5:  -208.06326297479382   -5.03615e-04   6.36012e-06 DIIS
   @DF-RHF iter   6:  -208.06329414977620   -3.11750e-05   3.06739e-06 DIIS
   @DF-RHF iter   7:  -208.06329999931393   -5.84954e-06   1.13611e-06 DIIS
   @DF-RHF iter   8:  -208.06330124937867   -1.25006e-06   3.56374e-07 DIIS
   @DF-RHF iter   9:  -208.06330139324004   -1.43861e-07   9.19706e-08 DIIS
   @DF-RHF iter  10:  -208.06330140044244   -7.20240e-09   2.95211e-08 DIIS
   @DF-RHF iter  11:  -208.06330140107377   -6.31331e-10   7.92035e-09 DIIS
  Energy and wave function converged.


  ==> Post-Iterations <==

    Orbital Energies [Eh]
    ---------------------

    Doubly Occupied:                                                      

       1A    -20.516727     2A    -15.587505     3A    -11.353959  
       4A    -11.238074     5A     -1.378056     6A     -1.214486  
       7A     -1.007193     8A     -0.800929     9A     -0.728607  
      10A     -0.665288    11A     -0.616594    12A     -0.586555  
      13A     -0.563474    14A     -0.525268    15A     -0.425508  
      16A     -0.415970  

    Virtual:                                                              

      17A      0.016037    18A      0.026857    19A      0.028479  
      20A      0.036397    21A      0.043193    22A      0.046229  
      23A      0.050053    24A      0.052103    25A      0.057366  
      26A      0.066877    27A      0.068616    28A      0.070259  
      29A      0.076178    30A      0.079562    31A      0.082137  
      32A      0.084097    33A      0.089853    34A      0.094746  
      35A      0.098846    36A      0.103334    37A      0.107079  
      38A      0.113629    39A      0.122687    40A      0.126373  
      41A      0.130503    42A      0.135017    43A      0.138852  
      44A      0.139937    45A      0.144399    46A      0.145659  
      47A      0.148486    48A      0.151051    49A      0.157699  
      50A      0.163046    51A      0.163944    52A      0.166795  
      53A      0.171420    54A      0.175735    55A      0.177161  
      56A      0.183957    57A      0.186037    58A      0.187056  
      59A      0.193957    60A      0.198568    61A      0.209734  
      62A      0.212417    63A      0.219334    64A      0.224459  
      65A      0.226444    66A      0.236527    67A      0.243251  
      68A      0.246746    69A      0.257366    70A      0.263357  
      71A      0.273332    72A      0.277433    73A      0.281389  
      74A      0.291141    75A      0.293402    76A      0.294161  
      77A      0.297009    78A      0.300710    79A      0.306303  
      80A      0.308288    81A      0.314194    82A      0.320877  
      83A      0.328104    84A      0.329676    85A      0.332145  
      86A      0.334656    87A      0.340118    88A      0.345520  
      89A      0.348728    90A      0.353628    91A      0.355485  
      92A      0.358447    93A      0.361761    94A      0.365869  
      95A      0.371181    96A      0.373588    97A      0.379225  
      98A      0.385146    99A      0.389130   100A      0.391416  
     101A      0.395685   102A      0.398056   103A      0.400693  
     104A      0.407879   105A      0.409735   106A      0.412217  
     107A      0.414104   108A      0.419693   109A      0.420775  
     110A      0.424605   111A      0.433771   112A      0.435819  
     113A      0.439832   114A      0.446248   115A      0.450445  
     116A      0.459618   117A      0.462886   118A      0.468473  
     119A      0.476507   120A      0.476555   121A      0.481124  
     122A      0.483394   123A      0.489239   124A      0.491754  
     125A      0.501205   126A      0.502048   127A      0.508158  
     128A      0.512944   129A      0.517233   130A      0.519954  
     131A      0.523234   132A      0.528539   133A      0.534565  
     134A      0.540785   135A      0.543179   136A      0.548318  
     137A      0.551789   138A      0.557241   139A      0.562160  
     140A      0.566795   141A      0.575388   142A      0.578254  
     143A      0.579731   144A      0.585644   145A      0.592551  
     146A      0.598275   147A      0.603863   148A      0.609591  
     149A      0.615199   150A      0.616283   151A      0.621227  
     152A      0.624918   153A      0.626957   154A      0.641306  
     155A      0.646634   156A      0.647498   157A      0.653184  
     158A      0.657598   159A      0.662679   160A      0.667936  
     161A      0.674765   162A      0.676407   163A      0.680089  
     164A      0.681006   165A      0.685861   166A      0.691078  
     167A      0.697132   168A      0.699774   169A      0.709386  
     170A      0.714364   171A      0.714965   172A      0.720777  
     173A      0.727927   174A      0.730620   175A      0.735157  
     176A      0.742884   177A      0.747226   178A      0.750826  
     179A      0.758938   180A      0.762567   181A      0.770525  
     182A      0.775295   183A      0.784396   184A      0.786656  
     185A      0.788733   186A      0.791456   187A      0.795800  
     188A      0.806907   189A      0.810945   190A      0.821738  
     191A      0.829048   192A      0.831089   193A      0.839432  
     194A      0.852850   195A      0.855432   196A      0.859413  
     197A      0.863925   198A      0.874112   199A      0.878373  
     200A      0.882549   201A      0.890154   202A      0.891901  
     203A      0.899858   204A      0.900761   205A      0.918011  
     206A      0.921739   207A      0.933214   208A      0.935506  
     209A      0.943051   210A      0.945683   211A      0.953239  
     212A      0.965023   213A      0.969736   214A      0.977114  
     215A      0.985656   216A      0.992381   217A      0.995827  
     218A      1.004093   219A      1.007446   220A      1.024547  
     221A      1.027180   222A      1.037280   223A      1.042525  
     224A      1.046544   225A      1.054265   226A      1.063352  
     227A      1.064093   228A      1.064646   229A      1.067170  
     230A      1.076283   231A      1.080516   232A      1.089023  
     233A      1.091723   234A      1.093984   235A      1.099278  
     236A      1.107892   237A      1.109889   238A      1.123936  
     239A      1.127451   240A      1.132268   241A      1.137245  
     242A      1.147001   243A      1.151402   244A      1.153179  
     245A      1.154302   246A      1.163462   247A      1.168940  
     248A      1.176700   249A      1.180790   250A      1.184293  
     251A      1.189262   252A      1.192512   253A      1.197111  
     254A      1.203183   255A      1.204115   256A      1.213772  
     257A      1.217400   258A      1.224666   259A      1.229429  
     260A      1.230643   261A      1.234639   262A      1.237950  
     263A      1.246578   264A      1.250457   265A      1.252226  
     266A      1.264160   267A      1.265077   268A      1.270170  
     269A      1.281890   270A      1.285606   271A      1.289371  
     272A      1.291740   273A      1.293659   274A      1.303333  
     275A      1.308996   276A      1.312968   277A      1.316706  
     278A      1.323595   279A      1.326273   280A      1.327950  
     281A      1.339545   282A      1.344166   283A      1.355242  
     284A      1.357617   285A      1.361229   286A      1.366982  
     287A      1.376518   288A      1.377874   289A      1.384408  
     290A      1.389046   291A      1.394073   292A      1.399750  
     293A      1.405392   294A      1.408802   295A      1.415535  
     296A      1.420245   297A      1.423990   298A      1.427843  
     299A      1.436105   300A      1.442987   301A      1.449003  
     302A      1.454921   303A      1.456533   304A      1.465120  
     305A      1.469429   306A      1.473830   307A      1.486028  
     308A      1.489983   309A      1.493745   310A      1.502777  
     311A      1.509421   312A      1.512008   313A      1.514967  
     314A      1.522830   315A      1.525279   316A      1.527182  
     317A      1.539211   318A      1.542854   319A      1.548999  
     320A      1.552383   321A      1.555421   322A      1.562539  
     323A      1.564574   324A      1.577469   325A      1.582202  
     326A      1.585946   327A      1.592471   328A      1.598717  
     329A      1.604996   330A      1.616975   331A      1.623889  
     332A      1.635976   333A      1.638590   334A      1.642506  
     335A      1.650460   336A      1.658616   337A      1.670331  
     338A      1.680152   339A      1.687320   340A      1.694948  
     341A      1.698746   342A      1.711769   343A      1.712923  
     344A      1.724815   345A      1.731229   346A      1.739673  
     347A      1.748022   348A      1.754798   349A      1.756398  
     350A      1.760275   351A      1.771562   352A      1.781097  
     353A      1.784776   354A      1.793695   355A      1.796003  
     356A      1.804601   357A      1.807269   358A      1.812255  
     359A      1.819381   360A      1.833786   361A      1.839606  
     362A      1.847762   363A      1.853155   364A      1.861667  
     365A      1.867657   366A      1.882451   367A      1.892101  
     368A      1.897163   369A      1.903654   370A      1.911296  
     371A      1.918114   372A      1.922051   373A      1.943207  
     374A      1.946637   375A      1.956150   376A      1.965651  
     377A      1.971298   378A      1.978113   379A      1.988452  
     380A      2.009539   381A      2.011164   382A      2.025544  
     383A      2.039691   384A      2.043945   385A      2.055498  
     386A      2.065589   387A      2.073465   388A      2.076870  
     389A      2.098965   390A      2.107394   391A      2.114990  
     392A      2.122636   393A      2.124625   394A      2.135116  
     395A      2.138147   396A      2.140194   397A      2.147560  
     398A      2.160161   399A      2.174025   400A      2.178712  
     401A      2.184580   402A      2.192094   403A      2.202406  
     404A      2.209327   405A      2.213227   406A      2.225185  
     407A      2.234391   408A      2.240737   409A      2.245668  
     410A      2.255283   411A      2.269327   412A      2.272859  
     413A      2.280965   414A      2.288831   415A      2.292187  
     416A      2.297458   417A      2.304865   418A      2.311718  
     419A      2.316031   420A      2.328927   421A      2.334374  
     422A      2.342712   423A      2.344718   424A      2.356949  
     425A      2.368064   426A      2.373249   427A      2.379932  
     428A      2.395377   429A      2.409840   430A      2.411794  
     431A      2.429585   432A      2.436082   433A      2.449163  
     434A      2.465354   435A      2.467481   436A      2.475189  
     437A      2.479861   438A      2.488353   439A      2.491185  
     440A      2.505655   441A      2.538766   442A      2.544761  
     443A      2.550701   444A      2.563682   445A      2.571795  
     446A      2.584247   447A      2.599123   448A      2.604197  
     449A      2.607567   450A      2.633538   451A      2.635044  
     452A      2.641483   453A      2.645425   454A      2.657736  
     455A      2.675241   456A      2.697667   457A      2.700360  
     458A      2.715894   459A      2.720471   460A      2.724312  
     461A      2.734964   462A      2.740306   463A      2.754052  
     464A      2.759317   465A      2.774388   466A      2.781678  
     467A      2.789949   468A      2.803792   469A      2.816212  
     470A      2.823777   471A      2.837152   472A      2.840385  
     473A      2.851578   474A      2.855049   475A      2.868751  
     476A      2.885643   477A      2.889361   478A      2.917281  
     479A      2.938051   480A      2.955910   481A      2.969408  
     482A      2.991443   483A      3.000414   484A      3.002824  
     485A      3.019013   486A      3.026787   487A      3.038509  
     488A      3.056941   489A      3.070900   490A      3.093861  
     491A      3.110357   492A      3.122778   493A      3.142431  
     494A      3.197729   495A      3.218997   496A      3.261180  
     497A      3.299453   498A      3.313072   499A      3.320000  
     500A      3.325141   501A      3.336724   502A      3.377806  
     503A      3.459049   504A      3.486306   505A      3.491748  
     506A      3.517033   507A      3.555257   508A      3.573818  
     509A      3.600376   510A      3.634574   511A      3.656374  
     512A      3.700350   513A      3.706134   514A      3.766166  
     515A      3.804874   516A      3.830640   517A      3.876578  
     518A      3.889576   519A      3.900842   520A      3.921829  
     521A      3.946165   522A      3.968892   523A      3.986408  
     524A      3.991457   525A      4.013708   526A      4.026893  
     527A      4.060249   528A      4.081882   529A      4.101139  
     530A      4.114467   531A      4.131253   532A      4.140440  
     533A      4.145070   534A      4.159170   535A      4.163340  
     536A      4.174857   537A      4.185069   538A      4.210511  
     539A      4.211707   540A      4.221706   541A      4.230677  
     542A      4.240857   543A      4.245913   544A      4.252068  
     545A      4.259585   546A      4.271272   547A      4.276950  
     548A      4.279940   549A      4.286264   550A      4.297568  
     551A      4.305068   552A      4.311703   553A      4.317258  
     554A      4.328073   555A      4.336246   556A      4.343704  
     557A      4.352718   558A      4.365040   559A      4.377060  
     560A      4.386416   561A      4.402827   562A      4.411749  
     563A      4.421670   564A      4.435303   565A      4.440066  
     566A      4.443737   567A      4.462644   568A      4.477331  
     569A      4.480501   570A      4.499368   571A      4.505951  
     572A      4.521698   573A      4.542133   574A      4.548157  
     575A      4.554331   576A      4.557687   577A      4.563889  
     578A      4.567652   579A      4.581898   580A      4.599628  
     581A      4.605458   582A      4.618821   583A      4.634946  
     584A      4.644161   585A      4.660022   586A      4.691986  
     587A      4.700657   588A      4.709466   589A      4.721163  
     590A      4.728290   591A      4.731632   592A      4.732921  
     593A      4.742439   594A      4.760946   595A      4.767592  
     596A      4.774864   597A      4.791583   598A      4.807912  
     599A      4.826963   600A      4.840267   601A      4.853114  
     602A      4.864868   603A      4.867675   604A      4.875780  
     605A      4.882599   606A      4.885657   607A      4.901928  
     608A      4.908275   609A      4.916098   610A      4.928057  
     611A      4.939453   612A      4.943987   613A      4.952531  
     614A      4.957117   615A      4.962441   616A      4.969115  
     617A      4.976701   618A      4.990373   619A      5.009933  
     620A      5.013865   621A      5.015494   622A      5.026024  
     623A      5.029273   624A      5.040878   625A      5.057188  
     626A      5.064282   627A      5.068232   628A      5.075857  
     629A      5.077525   630A      5.088835   631A      5.091708  
     632A      5.103728   633A      5.108080   634A      5.115398  
     635A      5.128575   636A      5.151718   637A      5.166368  
     638A      5.181362   639A      5.198451   640A      5.224187  
     641A      5.243025   642A      5.258909   643A      5.271777  
     644A      5.286545   645A      5.291686   646A      5.296993  
     647A      5.326673   648A      5.333298   649A      5.361102  
     650A      5.375062   651A      5.380275   652A      5.385519  
     653A      5.418460   654A      5.418848   655A      5.434697  
     656A      5.449604   657A      5.455146   658A      5.462523  
     659A      5.471560   660A      5.478010   661A      5.487564  
     662A      5.492540   663A      5.530601   664A      5.542045  
     665A      5.557631   666A      5.559400   667A      5.574507  
     668A      5.577509   669A      5.593617   670A      5.598160  
     671A      5.605960   672A      5.612682   673A      5.624848  
     674A      5.639655   675A      5.642094   676A      5.660761  
     677A      5.664754   678A      5.670782   679A      5.677782  
     680A      5.687005   681A      5.697638   682A      5.718136  
     683A      5.734715   684A      5.743018   685A      5.766520  
     686A      5.769201   687A      5.790836   688A      5.798236  
     689A      5.802292   690A      5.806830   691A      5.819812  
     692A      5.823676   693A      5.845909   694A      5.850792  
     695A      5.867664   696A      5.885170   697A      5.891989  
     698A      5.914804   699A      5.925943   700A      5.931973  
     701A      5.949597   702A      5.974598   703A      5.990619  
     704A      6.020148   705A      6.031551   706A      6.042938  
     707A      6.109605   708A      6.117489   709A      6.124664  
     710A      6.140401   711A      6.144874   712A      6.163203  
     713A      6.165299   714A      6.178990   715A      6.188095  
     716A      6.223563   717A      6.230982   718A      6.272957  
     719A      6.280786   720A      6.288416   721A      6.294081  
     722A      6.303641   723A      6.318053   724A      6.347887  
     725A      6.371999   726A      6.394527   727A      6.413456  
     728A      6.439506   729A      6.489995   730A      6.552046  
     731A      6.581739   732A      6.604296   733A      6.638702  
     734A      6.700314   735A      6.777540   736A      6.800340  
     737A      6.845725   738A      6.864059   739A      6.907045  
     740A      6.922403   741A      6.938074   742A      6.953997  
     743A      6.971201   744A      7.002823   745A      7.007743  
     746A      7.017981   747A      7.033284   748A      7.091900  
     749A      7.096762   750A      7.104710   751A      7.140330  
     752A      7.156368   753A      7.192263   754A      7.279935  
     755A      7.305283   756A      7.309148   757A      7.356072  
     758A      7.436741   759A      7.444183   760A      7.458171  
     761A      7.487484   762A      7.500394   763A      7.547685  
     764A      7.675200   765A      7.719721   766A      7.794940  
     767A      7.837772   768A      7.854366   769A      7.874944  
     770A      7.882109   771A      7.885863   772A      7.896512  
     773A      7.900947   774A      7.952232   775A      7.965285  
     776A      7.981335   777A      8.017040   778A      8.049083  
     779A      8.109166   780A      8.133331   781A      8.268074  
     782A      8.320262   783A      8.375818   784A      8.378992  
     785A      8.480966   786A      8.578765   787A      8.607185  
     788A      9.005777   789A      9.094250   790A      9.231981  
     791A      9.682939   792A     10.507916   793A     10.526976  
     794A     10.575489   795A     10.736629   796A     10.934827  
     797A     16.152192   798A     17.287736   799A     18.636691  
     800A     20.319266   801A     53.037111   802A     53.882149  
     803A     54.031116   804A     54.460729   805A     56.153985  

    Final Occupation by Irrep:
              A 
    DOCC [    16 ]

  @DF-RHF Final Energy:  -208.06330140107377

   => Energetics <=

    Nuclear Repulsion Energy =            121.8659870866817130
    One-Electron Energy =                -524.6101942784706580
    Two-Electron Energy =                 194.6809057907152010
    Total Energy =                       -208.0633014010737725

Computation Completed


Properties will be evaluated at   0.000000,   0.000000,   0.000000 [a0]

Properties computed using the SCF density matrix

  Nuclear Dipole Moment: [e a0]
     X:     1.0760      Y:     1.6257      Z:   125.7926

  Electronic Dipole Moment: [e a0]
     X:    -0.8984      Y:    -3.2678      Z:  -125.5480

  Dipole Moment: [e a0]
     X:     0.1776      Y:    -1.6422      Z:     0.2446     Total:     1.6698

  Dipole Moment: [D]
     X:     0.4515      Y:    -4.1740      Z:     0.6218     Total:     4.2441


*** tstop() called on g2-node38.bme.utexas.edu at Sat Apr 11 21:06:14 2020
Module time:
	user time   =     365.97 seconds =       6.10 minutes
	system time =       9.17 seconds =       0.15 minutes
	total time  =         51 seconds =       0.85 minutes
Total time:
	user time   =     599.43 seconds =       9.99 minutes
	system time =      16.89 seconds =       0.28 minutes
	total time  =        129 seconds =       2.15 minutes

*** tstart() called on g2-node38.bme.utexas.edu
*** at Sat Apr 11 21:06:14 2020


  //>>>>>>>>>>>>>>>>>>>>>>>>>>>>>>>>>>>//
  //               DFMP2               //
  //<<<<<<<<<<<<<<<<<<<<<<<<<<<<<<<<<<<//

   => Loading Basis Set <=

    Name: (AUG-CC-PVTZ AUX)
    Role: RIFIT
    Keyword: DF_BASIS_MP2
    atoms 1, 5, 8, 11, 14, 18, 23                    entry C          line   148 file /home/liuchw/anaconda3/envs/psi4env/share/psi4/basis/aug-cc-pvtz-ri.gbs 
    atoms 2-4, 6-7, 9-10, 12-13, 15-17, 21-22, 24-26 entry H          line    30 file /home/liuchw/anaconda3/envs/psi4env/share/psi4/basis/aug-cc-pvtz-ri.gbs 
    atoms 19                                         entry O          line   264 file /home/liuchw/anaconda3/envs/psi4env/share/psi4/basis/aug-cc-pvtz-ri.gbs 
[...]
    1067A      7.005730  1068A      7.014558  1069A      7.020352  
    1070A      7.031487  1071A      7.039023  1072A      7.045607  
    1073A      7.048473  1074A      7.055261  1075A      7.065357  
    1076A      7.073830  1077A      7.082544  1078A      7.090145  
    1079A      7.095770  1080A      7.099844  1081A      7.102852  
    1082A      7.107177  1083A      7.118085  1084A      7.123120  
    1085A      7.127452  1086A      7.132710  1087A      7.147379  
    1088A      7.149588  1089A      7.156842  1090A      7.164820  
    1091A      7.167095  1092A      7.184004  1093A      7.193734  
    1094A      7.196530  1095A      7.200224  1096A      7.204872  
    1097A      7.219018  1098A      7.225372  1099A      7.233440  
    1100A      7.237170  1101A      7.248503  1102A      7.255561  
    1103A      7.261559  1104A      7.265797  1105A      7.266951  
    1106A      7.293814  1107A      7.305595  1108A      7.315834  
    1109A      7.324656  1110A      7.336241  1111A      7.344772  
    1112A      7.352086  1113A      7.368525  1114A      7.376539  
    1115A      7.380889  1116A      7.388701  1117A      7.394648  
    1118A      7.409242  1119A      7.413637  1120A      7.420583  
    1121A      7.423867  1122A      7.444914  1123A      7.445354  
    1124A      7.460782  1125A      7.476067  1126A      7.480835  
    1127A      7.497215  1128A      7.516481  1129A      7.521788  
    1130A      7.536556  1131A      7.551127  1132A      7.554498  
    1133A      7.572256  1134A      7.587040  1135A      7.589516  
    1136A      7.597897  1137A      7.607518  1138A      7.622142  
    1139A      7.637263  1140A      7.645775  1141A      7.653740  
    1142A      7.675845  1143A      7.689995  1144A      7.698250  
    1145A      7.702174  1146A      7.713703  1147A      7.734056  
    1148A      7.741463  1149A      7.752865  1150A      7.759983  
    1151A      7.768431  1152A      7.783239  1153A      7.795724  
    1154A      7.810434  1155A      7.812280  1156A      7.833387  
    1157A      7.841106  1158A      7.843842  1159A      7.853076  
    1160A      7.861933  1161A      7.877289  1162A      7.886674  
    1163A      7.892741  1164A      7.899626  1165A      7.906293  
    1166A      7.913623  1167A      7.926002  1168A      7.928322  
    1169A      7.938378  1170A      7.952709  1171A      7.957119  
    1172A      7.983418  1173A      7.996311  1174A      8.004025  
    1175A      8.010540  1176A      8.023533  1177A      8.035955  
    1178A      8.044959  1179A      8.045408  1180A      8.053517  
    1181A      8.060114  1182A      8.067894  1183A      8.075673  
    1184A      8.093921  1185A      8.102793  1186A      8.113126  
    1187A      8.114033  1188A      8.126302  1189A      8.134325  
    1190A      8.160208  1191A      8.171146  1192A      8.181100  
    1193A      8.186794  1194A      8.204748  1195A      8.223419  
    1196A      8.230441  1197A      8.234304  1198A      8.254379  
    1199A      8.296068  1200A      8.309268  1201A      8.311215  
    1202A      8.319855  1203A      8.333182  1204A      8.339819  
    1205A      8.353537  1206A      8.363675  1207A      8.376821  
    1208A      8.396718  1209A      8.412273  1210A      8.423253  
    1211A      8.428645  1212A      8.465915  1213A      8.484399  
    1214A      8.496705  1215A      8.513513  1216A      8.531694  
    1217A      8.572226  1218A      8.587371  1219A      8.590311  
    1220A      8.599435  1221A      8.612847  1222A      8.617529  
    1223A      8.622485  1224A      8.644679  1225A      8.646834  
    1226A      8.664374  1227A      8.673320  1228A      8.680611  
    1229A      8.686178  1230A      8.698747  1231A      8.707882  
    1232A      8.720688  1233A      8.732016  1234A      8.743934  
    1235A      8.750484  1236A      8.757384  1237A      8.763176  
    1238A      8.764300  1239A      8.773460  1240A      8.791037  
    1241A      8.798832  1242A      8.808294  1243A      8.812215  
    1244A      8.820802  1245A      8.829192  1246A      8.852889  
    1247A      8.853528  1248A      8.858973  1249A      8.867697  
    1250A      8.872637  1251A      8.876719  1252A      8.885215  
    1253A      8.911716  1254A      8.917825  1255A      8.930914  
    1256A      8.944426  1257A      8.965758  1258A      8.976938  
    1259A      8.983589  1260A      8.993800  1261A      9.001535  
    1262A      9.014959  1263A      9.027138  1264A      9.036471  
    1265A      9.064078  1266A      9.069686  1267A      9.088611  
    1268A      9.107582  1269A      9.123114  1270A      9.145160  
    1271A      9.161359  1272A      9.174625  1273A      9.201572  
    1274A      9.212893  1275A      9.231713  1276A      9.239919  
    1277A      9.243446  1278A      9.274213  1279A      9.295740  
    1280A      9.305558  1281A      9.308293  1282A      9.323102  
    1283A      9.326598  1284A      9.335957  1285A      9.356674  
    1286A      9.369058  1287A      9.379736  1288A      9.398086  
    1289A      9.402902  1290A      9.419107  1291A      9.429075  
    1292A      9.443243  1293A      9.454673  1294A      9.457950  
    1295A      9.465922  1296A      9.490218  1297A      9.496411  
    1298A      9.501397  1299A      9.503001  1300A      9.531148  
    1301A      9.543129  1302A      9.551354  1303A      9.561352  
    1304A      9.564175  1305A      9.594076  1306A      9.604399  
    1307A      9.617331  1308A      9.620805  1309A      9.626285  
    1310A      9.646117  1311A      9.647749  1312A      9.655908  
    1313A      9.659438  1314A      9.666832  1315A      9.671159  
    1316A      9.676621  1317A      9.683345  1318A      9.697163  
    1319A      9.701296  1320A      9.714091  1321A      9.721375  
    1322A      9.731339  1323A      9.738353  1324A      9.748092  
    1325A      9.754925  1326A      9.767697  1327A      9.775930  
    1328A      9.793493  1329A      9.814497  1330A      9.827633  
    1331A      9.846778  1332A      9.859547  1333A      9.872043  
    1334A      9.884939  1335A      9.888134  1336A      9.897865  
    1337A      9.907284  1338A      9.913794  1339A      9.924908  
    1340A      9.931396  1341A      9.939818  1342A      9.952253  
    1343A      9.977751  1344A      9.990242  1345A      9.998147  
    1346A     10.008718  1347A     10.011751  1348A     10.024546  
    1349A     10.034811  1350A     10.047929  1351A     10.063544  
    1352A     10.071384  1353A     10.087227  1354A     10.102134  
    1355A     10.107123  1356A     10.114173  1357A     10.144779  
    1358A     10.155939  1359A     10.170750  1360A     10.176943  
    1361A     10.186039  1362A     10.198382  1363A     10.219495  
    1364A     10.226493  1365A     10.232197  1366A     10.239487  
    1367A     10.242256  1368A     10.255357  1369A     10.277564  
    1370A     10.294683  1371A     10.311706  1372A     10.328411  
    1373A     10.331352  1374A     10.338388  1375A     10.345913  
    1376A     10.358582  1377A     10.365988  1378A     10.379181  
    1379A     10.379310  1380A     10.397292  1381A     10.430159  
    1382A     10.442791  1383A     10.454907  1384A     10.469097  
    1385A     10.483710  1386A     10.487626  1387A     10.516866  
    1388A     10.531989  1389A     10.532573  1390A     10.537502  
    1391A     10.551408  1392A     10.551882  1393A     10.558125  
    1394A     10.569657  1395A     10.577310  1396A     10.594639  
    1397A     10.611302  1398A     10.629494  1399A     10.635689  
    1400A     10.660962  1401A     10.682783  1402A     10.692670  
    1403A     10.703911  1404A     10.753548  1405A     10.782422  
    1406A     10.837819  1407A     10.849065  1408A     10.926136  
    1409A     10.942695  1410A     10.948142  1411A     10.977785  
    1412A     11.000495  1413A     11.029557  1414A     11.032559  
    1415A     11.042146  1416A     11.061850  1417A     11.071785  
    1418A     11.078154  1419A     11.094973  1420A     11.106156  
    1421A     11.118806  1422A     11.129037  1423A     11.141342  
    1424A     11.152131  1425A     11.168954  1426A     11.175295  
    1427A     11.186985  1428A     11.202013  1429A     11.257674  
    1430A     11.266637  1431A     11.282769  1432A     11.299289  
    1433A     11.324751  1434A     11.342604  1435A     11.343923  
    1436A     11.387420  1437A     11.427452  1438A     11.499618  
    1439A     11.503064  1440A     11.514259  1441A     11.530656  
    1442A     11.535810  1443A     11.548399  1444A     11.552540  
    1445A     11.564952  1446A     11.588112  1447A     11.665056  
    1448A     11.676337  1449A     11.685586  1450A     11.719713  
    1451A     11.755473  1452A     11.797577  1453A     11.842365  
    1454A     11.913275  1455A     12.010088  1456A     12.089511  
    1457A     12.212503  1458A     12.309480  1459A     12.354382  
    1460A     12.378247  1461A     12.444399  1462A     12.512722  
    1463A     12.642492  1464A     12.872053  1465A     12.904459  
    1466A     12.980135  1467A     13.147194  1468A     13.257502  
    1469A     13.407113  1470A     13.465116  1471A     13.475549  
    1472A     13.499947  1473A     13.507574  1474A     13.528489  
    1475A     13.530962  1476A     13.554775  1477A     13.583426  
    1478A     13.607192  1479A     13.658961  1480A     13.691632  
    1481A     13.706634  1482A     13.727747  1483A     13.751542  
    1484A     13.789750  1485A     13.843143  1486A     13.878016  
    1487A     13.937827  1488A     14.148162  1489A     14.200689  
    1490A     14.782498  1491A     15.142504  1492A     15.223342  
    1493A     15.431400  1494A     26.721043  1495A     28.509679  
    1496A     28.602744  1497A     28.686476  1498A     29.163757  
    1499A     29.195207  1500A     29.317841  1501A     36.089384  
    1502A     44.742664  

    Final Occupation by Irrep:
              A 
    DOCC [    37 ]

  @DF-RHF Final Energy:  -404.49097473418749

   => Energetics <=

    Nuclear Repulsion Energy =            471.5518728873280452
    One-Electron Energy =               -1483.9858189822157328
    Two-Electron Energy =                 607.9429713607001986
    Total Energy =                       -404.4909747341874890

Computation Completed


Properties will be evaluated at   0.000000,   0.000000,   0.000000 [a0]

Properties computed using the SCF density matrix

  Nuclear Dipole Moment: [e a0]
     X:    -1.7987      Y:    -5.0646      Z:    -8.5298

  Electronic Dipole Moment: [e a0]
     X:     1.9653      Y:     3.6171      Z:     8.8171

  Dipole Moment: [e a0]
     X:     0.1666      Y:    -1.4475      Z:     0.2873     Total:     1.4851

  Dipole Moment: [D]
     X:     0.4233      Y:    -3.6793      Z:     0.7304     Total:     3.7749


*** tstop() called on g2-node38.bme.utexas.edu at Sat Apr 11 22:10:15 2020
Module time:
	user time   =    4641.09 seconds =      77.35 minutes
	system time =      42.03 seconds =       0.70 minutes
	total time  =       2094 seconds =      34.90 minutes
Total time:
	user time   =   16924.09 seconds =     282.07 minutes
	system time =     218.19 seconds =       3.64 minutes
	total time  =       3970 seconds =      66.17 minutes

*** tstart() called on g2-node38.bme.utexas.edu
*** at Sat Apr 11 22:10:15 2020


  //>>>>>>>>>>>>>>>>>>>>>>>>>>>>>>>>>>>//
  //               DFMP2               //
  //<<<<<<<<<<<<<<<<<<<<<<<<<<<<<<<<<<<//

   => Loading Basis Set <=

    Name: (AUG-CC-PVQZ AUX)
    Role: RIFIT
    Keyword: DF_BASIS_MP2
    atoms 1, 5, 8, 11, 14, 18, 23                    entry C          line   184 file /home/liuchw/anaconda3/envs/psi4env/share/psi4/basis/aug-cc-pvqz-ri.gbs 
    atoms 2-4, 6-7, 9-10, 12-13, 15-17, 21-22, 24-26 entry H          line    30 file /home/liuchw/anaconda3/envs/psi4env/share/psi4/basis/aug-cc-pvqz-ri.gbs 
    atoms 19                                         entry O          line   332 file /home/liuchw/anaconda3/envs/psi4env/share/psi4/basis/aug-cc-pvqz-ri.gbs 
    atoms 20                                         entry N          line   258 file /home/liuchw/anaconda3/envs/psi4env/share/psi4/basis/aug-cc-pvqz-ri.gbs 

	 --------------------------------------------------------
	                          DF-MP2                         
	      2nd-Order Density-Fitted Moller-Plesset Theory     
	              RMP2 Wavefunction,   8 Threads             
	                                                         
	        Rob Parrish, Justin Turney, Andy Simmonett,      
	           Ed Hohenstein, and C. David Sherrill          
	 --------------------------------------------------------

   => Auxiliary Basis Set <=

  Basis Set: (AUG-CC-PVQZ AUX)
    Blend: AUG-CC-PVQZ-RI
    Number of shells: 664
    Number of basis function: 2872
    Number of Cartesian functions: 3918
    Spherical Harmonics?: true
    Max angular momentum: 5

	 --------------------------------------------------------
	                 NBF =  1502, NAUX =  2872
	 --------------------------------------------------------
	   CLASS    FOCC     OCC    AOCC    AVIR     VIR    FVIR
	   PAIRS       0      37      37    1465    1465       0
	 --------------------------------------------------------

	-----------------------------------------------------------
	 ==================> DF-MP2 Energies <==================== 
	-----------------------------------------------------------
	 Reference Energy          =    -404.4909747341874890 [Eh]
	 Singles Energy            =      -0.0000000000000000 [Eh]
	 Same-Spin Energy          =      -0.4402504326915514 [Eh]
	 Opposite-Spin Energy      =      -1.6226515459997106 [Eh]
	 Correlation Energy        =      -2.0629019786912619 [Eh]
	 Total Energy              =    -406.5538767128787754 [Eh]
	-----------------------------------------------------------
	 ================> DF-SCS-MP2 Energies <================== 
	-----------------------------------------------------------
	 SCS Same-Spin Scale       =       0.3333333333333333 [-]
	 SCS Opposite-Spin Scale   =       1.2000000000000000 [-]
	 SCS Same-Spin Energy      =      -0.1467501442305171 [Eh]
	 SCS Opposite-Spin Energy  =      -1.9471818551996527 [Eh]
	 SCS Correlation Energy    =      -2.0939319994301697 [Eh]
	 SCS Total Energy          =    -406.5849067336176859 [Eh]
	-----------------------------------------------------------


*** tstop() called on g2-node38.bme.utexas.edu at Sat Apr 11 22:13:54 2020
Module time:
	user time   =    1249.30 seconds =      20.82 minutes
	system time =      24.67 seconds =       0.41 minutes
	total time  =        219 seconds =       3.65 minutes
Total time:
	user time   =   18173.39 seconds =     302.89 minutes
	system time =     242.86 seconds =       4.05 minutes
	total time  =       4189 seconds =      69.82 minutes

  //>>>>>>>>>>>>>>>>>>>>>>>>>>>>>>>>>>>//
  //  CBS Results: mp2/aug-cc-pv[tq]z  //
  //<<<<<<<<<<<<<<<<<<<<<<<<<<<<<<<<<<<//


   ==> HF <==

   HI-zeta (4) Energy:               -404.490974734187


   ==> Helgaker 2-point correlated extrapolation for method: MP2 <==

   LO-zeta (3) Energy:               -406.337744785123
   HI-zeta (4) Energy:               -406.553876712879
   Alpha (exponent) Value:             3.000000000000
   Extrapolated Energy:              -406.711594606106

   @Extrapolated MP2/(T,Q):          -406.711594606106



   ==> Helgaker 2-point correlated extrapolation for method: HF <==

   LO-zeta (3) Energy:               -404.466123406894
   HI-zeta (4) Energy:               -404.490974734187
   Alpha (exponent) Value:             3.000000000000
   Extrapolated Energy:              -404.509109486537

   @Extrapolated HF/(T,Q):           -404.509109486537


   ==> Components <==

  ---------------------------------------------------------------------------------------------------------
                          Method / Basis                      Rqd      Energy [Eh]   Variable
  ---------------------------------------------------------------------------------------------------------
                              hf / aug-cc-pvtz                  *    -404.46612341   HF TOTAL ENERGY
                             mp2 / aug-cc-pvtz                  *    -406.33774479   MP2 TOTAL ENERGY
                              hf / aug-cc-pvqz                  *    -404.49097473   HF TOTAL ENERGY
                             mp2 / aug-cc-pvqz                  *    -406.55387671   MP2 TOTAL ENERGY
  ---------------------------------------------------------------------------------------------------------

   ==> Stages <==

  ---------------------------------------------------------------------------------------------------------
      Stage               Method / Basis                       Wt      Energy [Eh]   Scheme
  ---------------------------------------------------------------------------------------------------------
        scf                   hf / aug-cc-pvqz                  1    -404.49097473   xtpl_highest_1
       corl                  mp2 / aug-cc-pv[tq]z               1    -406.71159461   corl_xtpl_helgaker_2
       corl                   hf / aug-cc-pv[tq]z              -1    -404.50910949   corl_xtpl_helgaker_2
  ---------------------------------------------------------------------------------------------------------

   ==> CBS <==

  ---------------------------------------------------------------------------------------------------------
      Stage               Method / Basis                               Energy [Eh]   Scheme
  ---------------------------------------------------------------------------------------------------------
        scf                   hf / aug-cc-pvqz                       -404.49097473   xtpl_highest_1
       corl                  mp2 / aug-cc-pv[tq]z                      -2.20248512   corl_xtpl_helgaker_2
      total                  CBS                                     -406.69345985   
  ---------------------------------------------------------------------------------------------------------
   => Loading Basis Set <=

    Name: DEF2-SVP
    Role: ORBITAL
    Keyword: BASIS
    atoms 1, 5, 8, 11, 14, 18, 23                    entry C          line    90 file /home/liuchw/anaconda3/envs/psi4env/share/psi4/basis/def2-svp.gbs 
    atoms 2-4, 6-7, 9-10, 12-13, 15-17, 21-22, 24-26 entry H          line    15 file /home/liuchw/anaconda3/envs/psi4env/share/psi4/basis/def2-svp.gbs 
    atoms 19                                         entry O          line   130 file /home/liuchw/anaconda3/envs/psi4env/share/psi4/basis/def2-svp.gbs 
    atoms 20                                         entry N          line   110 file /home/liuchw/anaconda3/envs/psi4env/share/psi4/basis/def2-svp.gbs 


       N-Body: Complex Energy (fragments = (1, 2), basis = (1, 2):  -406.69345985375708)

   ==> N-Body: Counterpoise Corrected (CP) energies <==

   n-Body     Total Energy [Eh]       I.E. [kcal/mol]      Delta [kcal/mol]
        1     -406.688431614286        0.000000000000        0.000000000000
        2     -406.693871048691       -3.413296621159       -3.413296621159

   => Loading Basis Set <=

    Name: DEF2-SVP
    Role: ORBITAL
    Keyword: BASIS
    atoms 1, 5, 8, 11, 14, 18, 23                    entry C          line    90 file /home/liuchw/anaconda3/envs/psi4env/share/psi4/basis/def2-svp.gbs 
    atoms 2-4, 6-7, 9-10, 12-13, 15-17, 21-22, 24-26 entry H          line    15 file /home/liuchw/anaconda3/envs/psi4env/share/psi4/basis/def2-svp.gbs 
    atoms 19                                         entry O          line   130 file /home/liuchw/anaconda3/envs/psi4env/share/psi4/basis/def2-svp.gbs 
    atoms 20                                         entry N          line   110 file /home/liuchw/anaconda3/envs/psi4env/share/psi4/basis/def2-svp.gbs 


    Psi4 stopped on: Saturday, 11 April 2020 10:13PM
    Psi4 wall time for execution: 1:09:50.68

*** Psi4 exiting successfully. Buy a developer a beer!
