
    -----------------------------------------------------------------------
          Psi4: An Open-Source Ab Initio Electronic Structure Package
                               Psi4 1.4a2.dev224 

                         Git: Rev {master} e453b16 


    R. M. Parrish, L. A. Burns, D. G. A. Smith, A. C. Simmonett,
    A. E. DePrince III, E. G. Hohenstein, U. Bozkaya, A. Yu. Sokolov,
    R. Di Remigio, R. M. Richard, J. F. Gonthier, A. M. James,
    H. R. McAlexander, A. Kumar, M. Saitow, X. Wang, B. P. Pritchard,
    P. Verma, H. F. Schaefer III, K. Patkowski, R. A. King, E. F. Valeev,
    F. A. Evangelista, J. M. Turney, T. D. Crawford, and C. D. Sherrill,
    J. Chem. Theory Comput. 13(7) pp 3185--3197 (2017).
    (doi: 10.1021/acs.jctc.7b00174)


                         Additional Contributions by
    P. Kraus, H. Kruse, M. H. Lechner, M. C. Schieber, R. A. Shaw,
    A. Alenaizan, R. Galvelis, Z. L. Glick, S. Lehtola, and J. P. Misiewicz

    -----------------------------------------------------------------------


    Psi4 started on: Saturday, 11 April 2020 08:58PM

    Process ID: 15683
    Host:       node51.bme.utexas.edu
    PSIDATADIR: /home/liuchw/anaconda3/envs/psi4env/share/psi4
    Memory:     500.0 MiB
    Threads:    8
    
  ==> Input File <==

--------------------------------------------------------------------------
#Generated by lconvert.py for cbs job

memory 40 GB

molecule  {
0 1
  C       -2.5877760    -0.3231060     0.4694580
  H       -2.6103890    -0.8763660    -0.4696190
  H       -2.6597440    -1.0518870     1.2777140
  H       -3.4760350     0.3056250     0.5089610
  C       -1.3095600     0.4973940     0.5850630
  H       -1.3172510     1.0832620     1.5063410
  H       -1.2623770     1.2155740    -0.2367760
  C       -0.0568300    -0.3682600     0.5584400
  H       -0.0861750    -1.0733590     1.3958750
  H       -0.0538090    -0.9768430    -0.3514740
  C        1.2315960     0.4400660     0.6320320
  H        1.2132830     1.0535620     1.5345930
  H        1.2662970     1.1313770    -0.2131060
  C        2.4725750    -0.4431440     0.6192210
  H        2.5207190    -1.0352630    -0.2948970
  H        3.3877340     0.1440900     0.6839090
  H        2.4592970    -1.1393640     1.4586180
--
0 1
  C        0.0322660     0.1800750     3.6510390
  O        0.0591780     1.3651490     3.3591980
  N        1.1648460    -0.5718020     3.7538590
  H        2.0357860    -0.1492220     3.4851970
  H        1.1259080    -1.5636890     3.8852820
  C       -1.2579550    -0.5588620     3.9154930
  H       -1.1107050    -1.5195830     4.4026170
  H       -1.7641830    -0.7171710     2.9646800
  H       -1.8958990     0.0683740     4.5307650
units angstrom
no_reorient
symmetry c1
}

set {
scf_type DF
mp2_type DF
e_convergence 7
reference rhf
}

energy('mp2/aug-cc-pv[tq]z', bsse_type='cp')
--------------------------------------------------------------------------

  Memory set to  37.253 GiB by Python driver.

Scratch directory: /scratch//


   ===> N-Body Interaction Abacus <===
        BSSE Treatment:                     cp
        Number of 1-body computations:     4
        Number of 2-body computations:     1

   ==> N-Body: Now computing 1-body complexes <==


       N-Body: Computing complex (1/4) with fragments (2,) in the basis of fragments (2,).


Scratch directory: /scratch//

  //>>>>>>>>>>>>>>>>>>>>>>>>>>>>>>>>>>>//
  //   CBS Setup: mp2/aug-cc-pv[tq]z   //
  //<<<<<<<<<<<<<<<<<<<<<<<<<<<<<<<<<<<//

    Naive listing of computations required.
             hf / aug-cc-pvqz              for  HF TOTAL ENERGY
            mp2 / aug-cc-pvtz              for  MP2 TOTAL ENERGY
            mp2 / aug-cc-pvqz              for  MP2 TOTAL ENERGY
             hf / aug-cc-pvtz              for  HF TOTAL ENERGY
             hf / aug-cc-pvqz              for  HF TOTAL ENERGY

    Enlightened listing of computations required.
            mp2 / aug-cc-pvtz              for  MP2 TOTAL ENERGY
            mp2 / aug-cc-pvqz              for  MP2 TOTAL ENERGY

    Full listing of computations to be obtained (required and bonus).
             hf / aug-cc-pvtz              for  HF TOTAL ENERGY
            mp2 / aug-cc-pvtz              for  MP2 TOTAL ENERGY
             hf / aug-cc-pvqz              for  HF TOTAL ENERGY
            mp2 / aug-cc-pvqz              for  MP2 TOTAL ENERGY

  //>>>>>>>>>>>>>>>>>>>>>>>>>>>>>>>>>>>>//
  // CBS Computation: MP2 / AUG-CC-PVTZ //
  //<<<<<<<<<<<<<<<<<<<<<<<<<<<<<<<<<<<<//


Scratch directory: /scratch//

*** tstart() called on node51.bme.utexas.edu
*** at Sat Apr 11 20:58:11 2020

   => Loading Basis Set <=

    Name: AUG-CC-PVTZ
    Role: ORBITAL
    Keyword: BASIS
    atoms 1, 6     entry C          line   239 file /home/liuchw/anaconda3/envs/psi4env/share/psi4/basis/aug-cc-pvtz.gbs 
    atoms 2        entry O          line   331 file /home/liuchw/anaconda3/envs/psi4env/share/psi4/basis/aug-cc-pvtz.gbs 
    atoms 3        entry N          line   285 file /home/liuchw/anaconda3/envs/psi4env/share/psi4/basis/aug-cc-pvtz.gbs 
    atoms 4-5, 7-9 entry H          line    40 file /home/liuchw/anaconda3/envs/psi4env/share/psi4/basis/aug-cc-pvtz.gbs 


         ---------------------------------------------------------
                                   SCF
               by Justin Turney, Rob Parrish, Andy Simmonett
                          and Daniel G. A. Smith
                              RHF Reference
                        8 Threads,  38146 MiB Core
         ---------------------------------------------------------

  ==> Geometry <==

    Molecular point group: c1
    Full point group: C1

    Geometry (in Angstrom), charge = 0, multiplicity = 1:

       Center              X                  Y                   Z               Mass       
    ------------   -----------------  -----------------  -----------------  -----------------
         C            0.052819564797     0.166518981895     1.685544624255    12.000000000000
         O            0.079731564797     1.351592981895     1.393703624255    15.994914619570
         N            1.185399564797    -0.585358018105     1.788364624255    14.003074004430
         H            2.056339564797    -0.162778018105     1.519702624255     1.007825032230
         H            1.146461564797    -1.577245018105     1.919787624255     1.007825032230
         C           -1.237401435203    -0.572418018105     1.949998624255    12.000000000000
         H           -1.090151435203    -1.533139018105     2.437122624255     1.007825032230
         H           -1.743629435203    -0.730727018105     0.999185624255     1.007825032230
         H           -1.875345435203     0.054817981895     2.565270624255     1.007825032230

  Running in c1 symmetry.

  Rotational constants: A =      0.17695  B =      0.07706  C =      0.07424 [cm^-1]
  Rotational constants: A =   5304.91332  B =   2310.22069  C =   2225.64274 [MHz]
  Nuclear repulsion =  121.865987086681713

  Charge       = 0
  Multiplicity = 1
  Electrons    = 32
  Nalpha       = 16
  Nbeta        = 16

  ==> Algorithm <==

  SCF Algorithm Type is DF.
  DIIS enabled.
  MOM disabled.
  Fractional occupation disabled.
  Guess Type is SAD.
  Energy threshold   = 1.00e-07
  Density threshold  = 1.00e-08
  Integral threshold = 0.00e+00

  ==> Primary Basis <==

  Basis Set: AUG-CC-PVTZ
    Blend: AUG-CC-PVTZ
    Number of shells: 101
    Number of basis function: 299
    Number of Cartesian functions: 345
    Spherical Harmonics?: true
    Max angular momentum: 3

   => Loading Basis Set <=

    Name: (AUG-CC-PVTZ AUX)
    Role: JKFIT
    Keyword: DF_BASIS_SCF
    atoms 1, 6     entry C          line   162 file /home/liuchw/anaconda3/envs/psi4env/share/psi4/basis/aug-cc-pvtz-jkfit.gbs 
    atoms 2        entry O          line   286 file /home/liuchw/anaconda3/envs/psi4env/share/psi4/basis/aug-cc-pvtz-jkfit.gbs 
    atoms 3        entry N          line   224 file /home/liuchw/anaconda3/envs/psi4env/share/psi4/basis/aug-cc-pvtz-jkfit.gbs 
    atoms 4-5, 7-9 entry H          line    70 file /home/liuchw/anaconda3/envs/psi4env/share/psi4/basis/aug-cc-pvtz-jkfit.gbs 

  ==> Pre-Iterations <==

   -------------------------------------------------------
    Irrep   Nso     Nmo     Nalpha   Nbeta   Ndocc  Nsocc
   -------------------------------------------------------
     A        299     299       0       0       0       0
   -------------------------------------------------------
    Total     299     299      16      16      16       0
   -------------------------------------------------------

  ==> Integral Setup <==

  DFHelper Memory: AOs need 0.455 GiB; user supplied 27.940 GiB. Using in-core AOs.

  ==> MemDFJK: Density-Fitted J/K Matrices <==

    J tasked:                   Yes
    K tasked:                   Yes
    wK tasked:                   No
    OpenMP threads:               8
    Memory [MiB]:             28610
    Algorithm:                 Core
    Schwarz Cutoff:           1E-12
    Mask sparsity (%):       0.3378
    Fitting Condition:        1E-10

   => Auxiliary Basis Set <=

  Basis Set: (AUG-CC-PVTZ AUX)
    Blend: AUG-CC-PVTZ-JKFIT
    Number of shells: 190
    Number of basis function: 646
    Number of Cartesian functions: 799
    Spherical Harmonics?: true
    Max angular momentum: 4

  Minimum eigenvalue in the overlap matrix is 2.0017915117E-05.
  Using Symmetric Orthogonalization.

  SCF Guess: Superposition of Atomic Densities via on-the-fly atomic UHF.

  ==> Iterations <==

                           Total Energy        Delta E     RMS |[F,P]|

   @DF-RHF iter SAD:  -207.23537370245862   -2.07235e+02   0.00000e+00 
   @DF-RHF iter   1:  -207.88585184185277   -6.50478e-01   2.04071e-03 DIIS
   @DF-RHF iter   2:  -208.01918395675105   -1.33332e-01   1.18001e-03 DIIS
   @DF-RHF iter   3:  -208.06019634396489   -4.10124e-02   2.19071e-04 DIIS
   @DF-RHF iter   4:  -208.06257133278908   -2.37499e-03   9.28821e-05 DIIS
   @DF-RHF iter   5:  -208.06307471963709   -5.03387e-04   1.71161e-05 DIIS
   @DF-RHF iter   6:  -208.06310585076750   -3.11311e-05   8.25622e-06 DIIS
   @DF-RHF iter   7:  -208.06311169526882   -5.84450e-06   3.05696e-06 DIIS
   @DF-RHF iter   8:  -208.06311294332636   -1.24806e-06   9.57955e-07 DIIS
   @DF-RHF iter   9:  -208.06311308670661   -1.43380e-07   2.47408e-07 DIIS
   @DF-RHF iter  10:  -208.06311309389955   -7.19294e-09   7.94191e-08 DIIS
   @DF-RHF iter  11:  -208.06311309452883   -6.29285e-10   2.12915e-08 DIIS
   @DF-RHF iter  12:  -208.06311309457658   -4.77485e-11   4.87994e-09 DIIS
  Energy and wave function converged.


  ==> Post-Iterations <==

    Orbital Energies [Eh]
    ---------------------

    Doubly Occupied:                                                      

       1A    -20.516825     2A    -15.587544     3A    -11.354012  
       4A    -11.238078     5A     -1.378108     6A     -1.214521  
       7A     -1.007211     8A     -0.800955     9A     -0.728637  
      10A     -0.665321    11A     -0.616605    12A     -0.586595  
      13A     -0.563491    14A     -0.525280    15A     -0.425547  
      16A     -0.415984  

    Virtual:                                                              

      17A      0.021831    18A      0.036248    19A      0.044388  
      20A      0.047907    21A      0.062320    22A      0.084714  
      23A      0.103990    24A      0.106384    25A      0.116872  
      26A      0.123919    27A      0.133594    28A      0.140366  
      29A      0.149069    30A      0.152204    31A      0.166237  
      32A      0.170508    33A      0.179587    34A      0.212916  
      35A      0.226862    36A      0.233377    37A      0.245384  
      38A      0.257184    39A      0.261084    40A      0.272056  
      41A      0.292330    42A      0.295262    43A      0.309817  
      44A      0.321255    45A      0.334943    46A      0.343532  
      47A      0.346690    48A      0.355317    49A      0.358708  
      50A      0.367192    51A      0.377092    52A      0.385881  
      53A      0.400637    54A      0.408026    55A      0.411685  
      56A      0.422897    57A      0.435179    58A      0.444265  
      59A      0.460721    60A      0.467818    61A      0.476452  
      62A      0.496422    63A      0.499526    64A      0.514591  
      65A      0.520539    66A      0.536909    67A      0.538438  
      68A      0.561787    69A      0.588521    70A      0.604521  
      71A      0.622619    72A      0.636856    73A      0.639332  
      74A      0.654806    75A      0.702073    76A      0.728256  
      77A      0.736420    78A      0.765979    79A      0.771660  
      80A      0.792152    81A      0.804603    82A      0.815075  
      83A      0.836330    84A      0.847985    85A      0.858478  
      86A      0.863242    87A      0.878932    88A      0.881409  
      89A      0.896894    90A      0.908556    91A      0.917918  
      92A      0.939233    93A      0.952742    94A      0.960238  
      95A      0.978911    96A      1.003637    97A      1.011509  
      98A      1.013437    99A      1.023897   100A      1.035312  
     101A      1.041276   102A      1.059300   103A      1.062011  
     104A      1.074925   105A      1.083564   106A      1.104125  
     107A      1.112715   108A      1.121275   109A      1.136615  
     110A      1.146203   111A      1.185365   112A      1.186504  
     113A      1.206316   114A      1.219688   115A      1.233663  
     116A      1.243434   117A      1.255864   118A      1.261576  
     119A      1.283889   120A      1.301431   121A      1.306115  
     122A      1.330611   123A      1.351985   124A      1.363000  
     125A      1.406872   126A      1.413789   127A      1.431994  
     128A      1.459508   129A      1.469671   130A      1.494016  
     131A      1.520979   132A      1.526323   133A      1.551802  
     134A      1.559546   135A      1.572822   136A      1.618027  
     137A      1.632063   138A      1.642438   139A      1.651591  
     140A      1.686277   141A      1.696939   142A      1.726310  
     143A      1.729827   144A      1.782164   145A      1.797350  
     146A      1.805053   147A      1.837033   148A      1.845040  
     149A      1.866540   150A      1.895893   151A      1.922181  
     152A      1.929264   153A      2.014572   154A      2.037067  
     155A      2.060800   156A      2.072899   157A      2.086951  
     158A      2.126291   159A      2.137602   160A      2.167819  
     161A      2.197977   162A      2.213401   163A      2.229355  
     164A      2.249616   165A      2.264829   166A      2.311369  
     167A      2.331107   168A      2.371526   169A      2.390285  
     170A      2.424840   171A      2.449751   172A      2.495554  
     173A      2.513630   174A      2.525758   175A      2.564020  
     176A      2.579902   177A      2.628176   178A      2.681129  
     179A      2.691480   180A      2.716405   181A      2.773661  
     182A      2.776199   183A      2.791274   184A      2.917929  
     185A      2.932038   186A      2.965019   187A      3.005373  
     188A      3.048255   189A      3.136905   190A      3.200322  
     191A      3.206484   192A      3.315050   193A      3.379209  
     194A      3.386093   195A      3.465634   196A      3.523761  
     197A      3.543441   198A      3.557746   199A      3.600563  
     200A      3.631901   201A      3.656315   202A      3.712995  
     203A      3.740613   204A      3.773326   205A      3.797330  
     206A      3.829153   207A      3.845225   208A      3.869538  
     209A      3.889959   210A      3.926182   211A      3.932242  
     212A      3.961862   213A      3.992626   214A      4.007027  
     215A      4.072992   216A      4.087920   217A      4.120302  
     218A      4.178954   219A      4.200176   220A      4.225485  
     221A      4.242587   222A      4.252949   223A      4.304743  
     224A      4.312764   225A      4.333493   226A      4.368251  
     227A      4.405483   228A      4.430182   229A      4.445375  
     230A      4.481659   231A      4.490753   232A      4.512154  
     233A      4.580993   234A      4.659457   235A      4.664576  
     236A      4.716808   237A      4.730361   238A      4.783127  
     239A      4.796043   240A      4.819921   241A      4.854995  
     242A      4.870517   243A      4.885823   244A      4.934894  
     245A      4.978110   246A      5.004224   247A      5.040659  
     248A      5.091769   249A      5.124138   250A      5.147223  
     251A      5.200980   252A      5.251942   253A      5.282153  
     254A      5.339910   255A      5.346319   256A      5.382598  
     257A      5.426484   258A      5.491629   259A      5.519836  
     260A      5.553164   261A      5.599474   262A      5.623079  
     263A      5.641526   264A      5.725818   265A      5.766096  
     266A      5.792489   267A      5.896637   268A      5.953351  
     269A      6.088109   270A      6.105919   271A      6.124617  
     272A      6.141897   273A      6.231433   274A      6.255551  
     275A      6.323941   276A      6.336096   277A      6.594110  
     278A      6.667411   279A      6.709651   280A      6.738732  
     281A      6.778325   282A      6.811164   283A      6.982638  
     284A      7.005346   285A      7.091374   286A      7.214606  
     287A      7.358817   288A      7.416576   289A      7.424631  
     290A      7.594107   291A      7.678136   292A      7.754371  
     293A      7.795035   294A      7.906139   295A      7.968234  
     296A     15.568073   297A     16.558902   298A     17.932854  
     299A     19.396241  

    Final Occupation by Irrep:
              A 
    DOCC [    16 ]

  @DF-RHF Final Energy:  -208.06311309457658

   => Energetics <=

    Nuclear Repulsion Energy =            121.8659870866817130
    One-Electron Energy =                -524.6087715474848210
    Two-Electron Energy =                 194.6796713662265574
    Total Energy =                       -208.0631130945765790

Computation Completed


Properties will be evaluated at   0.000000,   0.000000,   0.000000 [a0]

Properties computed using the SCF density matrix

  Nuclear Dipole Moment: [e a0]
     X:     0.6082      Y:     0.6251      Z:   103.7885

  Electronic Dipole Moment: [e a0]
     X:    -0.4307      Y:    -2.2682      Z:  -103.5440

  Dipole Moment: [e a0]
     X:     0.1775      Y:    -1.6431      Z:     0.2445     Total:     1.6706

  Dipole Moment: [D]
     X:     0.4511      Y:    -4.1763      Z:     0.6214     Total:     4.2464


*** tstop() called on node51.bme.utexas.edu at Sat Apr 11 20:58:15 2020
Module time:
	user time   =      24.93 seconds =       0.42 minutes
	system time =       1.00 seconds =       0.02 minutes
	total time  =          4 seconds =       0.07 minutes
Total time:
	user time   =      24.93 seconds =       0.42 minutes
	system time =       1.00 seconds =       0.02 minutes
	total time  =          4 seconds =       0.07 minutes

*** tstart() called on node51.bme.utexas.edu
*** at Sat Apr 11 20:58:15 2020


  //>>>>>>>>>>>>>>>>>>>>>>>>>>>>>>>>>>>//
  //               DFMP2               //
  //<<<<<<<<<<<<<<<<<<<<<<<<<<<<<<<<<<<//

   => Loading Basis Set <=

    Name: (AUG-CC-PVTZ AUX)
    Role: RIFIT
    Keyword: DF_BASIS_MP2
    atoms 1, 6     entry C          line   148 file /home/liuchw/anaconda3/envs/psi4env/share/psi4/basis/aug-cc-pvtz-ri.gbs 
    atoms 2        entry O          line   264 file /home/liuchw/anaconda3/envs/psi4env/share/psi4/basis/aug-cc-pvtz-ri.gbs 
    atoms 3        entry N          line   206 file /home/liuchw/anaconda3/envs/psi4env/share/psi4/basis/aug-cc-pvtz-ri.gbs 
    atoms 4-5, 7-9 entry H          line    30 file /home/liuchw/anaconda3/envs/psi4env/share/psi4/basis/aug-cc-pvtz-ri.gbs 

	 --------------------------------------------------------
	                          DF-MP2                         
	      2nd-Order Density-Fitted Moller-Plesset Theory     
	              RMP2 Wavefunction,   8 Threads             
	                                                         
	        Rob Parrish, Justin Turney, Andy Simmonett,      
	           Ed Hohenstein, and C. David Sherrill          
	 --------------------------------------------------------

   => Auxiliary Basis Set <=

  Basis Set: (AUG-CC-PVTZ AUX)
    Blend: AUG-CC-PVTZ-RI
    Number of shells: 182
    Number of basis function: 654
    Number of Cartesian functions: 819
    Spherical Harmonics?: true
    Max angular momentum: 4

	 --------------------------------------------------------
	                 NBF =   299, NAUX =   654
	 --------------------------------------------------------
	   CLASS    FOCC     OCC    AOCC    AVIR     VIR    FVIR
	   PAIRS       0      16      16     283     283       0
	 --------------------------------------------------------

	-----------------------------------------------------------
	 ==================> DF-MP2 Energies <==================== 
	-----------------------------------------------------------
	 Reference Energy          =    -208.0631130945765790 [Eh]
	 Singles Energy            =      -0.0000000000000000 [Eh]
	 Same-Spin Energy          =      -0.2044960783496306 [Eh]
	 Opposite-Spin Energy      =      -0.6557355180813726 [Eh]
	 Correlation Energy        =      -0.8602315964310032 [Eh]
	 Total Energy              =    -208.9233446910075713 [Eh]
	-----------------------------------------------------------
	 ================> DF-SCS-MP2 Energies <================== 
	-----------------------------------------------------------
	 SCS Same-Spin Scale       =       0.3333333333333333 [-]
	 SCS Opposite-Spin Scale   =       1.2000000000000000 [-]
	 SCS Same-Spin Energy      =      -0.0681653594498769 [Eh]
	 SCS Opposite-Spin Energy  =      -0.7868826216976471 [Eh]
	 SCS Correlation Energy    =      -0.8550479811475240 [Eh]
	 SCS Total Energy          =    -208.9181610757241003 [Eh]
	-----------------------------------------------------------


*** tstop() called on node51.bme.utexas.edu at Sat Apr 11 20:58:16 2020
Module time:
	user time   =      10.03 seconds =       0.17 minutes
	system time =       0.46 seconds =       0.01 minutes
	total time  =          1 seconds =       0.02 minutes
Total time:
	user time   =      34.97 seconds =       0.58 minutes
	system time =       1.46 seconds =       0.02 minutes
	total time  =          5 seconds =       0.08 minutes

  //>>>>>>>>>>>>>>>>>>>>>>>>>>>>>>>>>>>>//
  // CBS Computation: MP2 / AUG-CC-PVQZ //
  //<<<<<<<<<<<<<<<<<<<<<<<<<<<<<<<<<<<<//


Scratch directory: /scratch//

*** tstart() called on node51.bme.utexas.edu
*** at Sat Apr 11 20:58:16 2020

   => Loading Basis Set <=

    Name: AUG-CC-PVQZ
    Role: ORBITAL
    Keyword: BASIS
    atoms 1, 6     entry C          line   303 file /home/liuchw/anaconda3/envs/psi4env/share/psi4/basis/aug-cc-pvqz.gbs 
    atoms 2        entry O          line   423 file /home/liuchw/anaconda3/envs/psi4env/share/psi4/basis/aug-cc-pvqz.gbs 
    atoms 3        entry N          line   363 file /home/liuchw/anaconda3/envs/psi4env/share/psi4/basis/aug-cc-pvqz.gbs 
    atoms 4-5, 7-9 entry H          line    40 file /home/liuchw/anaconda3/envs/psi4env/share/psi4/basis/aug-cc-pvqz.gbs 


         ---------------------------------------------------------
                                   SCF
               by Justin Turney, Rob Parrish, Andy Simmonett
                          and Daniel G. A. Smith
                              RHF Reference
                        8 Threads,  38146 MiB Core
         ---------------------------------------------------------

  ==> Geometry <==

    Molecular point group: c1
    Full point group: C1

    Geometry (in Angstrom), charge = 0, multiplicity = 1:

       Center              X                  Y                   Z               Mass       
    ------------   -----------------  -----------------  -----------------  -----------------
         C            0.052819564797     0.166518981895     1.685544624255    12.000000000000
         O            0.079731564797     1.351592981895     1.393703624255    15.994914619570
         N            1.185399564797    -0.585358018105     1.788364624255    14.003074004430
         H            2.056339564797    -0.162778018105     1.519702624255     1.007825032230
         H            1.146461564797    -1.577245018105     1.919787624255     1.007825032230
         C           -1.237401435203    -0.572418018105     1.949998624255    12.000000000000
         H           -1.090151435203    -1.533139018105     2.437122624255     1.007825032230
         H           -1.743629435203    -0.730727018105     0.999185624255     1.007825032230
         H           -1.875345435203     0.054817981895     2.565270624255     1.007825032230

  Running in c1 symmetry.

  Rotational constants: A =      0.17695  B =      0.07706  C =      0.07424 [cm^-1]
  Rotational constants: A =   5304.91332  B =   2310.22069  C =   2225.64274 [MHz]
  Nuclear repulsion =  121.865987086681713

  Charge       = 0
  Multiplicity = 1
  Electrons    = 32
  Nalpha       = 16
  Nbeta        = 16

  ==> Algorithm <==

  SCF Algorithm Type is DF.
  DIIS enabled.
  MOM disabled.
  Fractional occupation disabled.
  Guess Type is SAD.
  Energy threshold   = 1.00e-07
  Density threshold  = 1.00e-08
  Integral threshold = 0.00e+00

  ==> Primary Basis <==

  Basis Set: AUG-CC-PVQZ
    Blend: AUG-CC-PVQZ
    Number of shells: 150
    Number of basis function: 550
    Number of Cartesian functions: 695
    Spherical Harmonics?: true
    Max angular momentum: 4

   => Loading Basis Set <=

    Name: (AUG-CC-PVQZ AUX)
    Role: JKFIT
    Keyword: DF_BASIS_SCF
    atoms 1, 6     entry C          line   178 file /home/liuchw/anaconda3/envs/psi4env/share/psi4/basis/aug-cc-pvqz-jkfit.gbs 
    atoms 2        entry O          line   318 file /home/liuchw/anaconda3/envs/psi4env/share/psi4/basis/aug-cc-pvqz-jkfit.gbs 
    atoms 3        entry N          line   248 file /home/liuchw/anaconda3/envs/psi4env/share/psi4/basis/aug-cc-pvqz-jkfit.gbs 
    atoms 4-5, 7-9 entry H          line    70 file /home/liuchw/anaconda3/envs/psi4env/share/psi4/basis/aug-cc-pvqz-jkfit.gbs 

  ==> Pre-Iterations <==

   -------------------------------------------------------
    Irrep   Nso     Nmo     Nalpha   Nbeta   Ndocc  Nsocc
   -------------------------------------------------------
     A        550     550       0       0       0       0
   -------------------------------------------------------
    Total     550     550      16      16      16       0
   -------------------------------------------------------

  ==> Integral Setup <==

  DFHelper Memory: AOs need 2.197 GiB; user supplied 27.940 GiB. Using in-core AOs.

  ==> MemDFJK: Density-Fitted J/K Matrices <==

    J tasked:                   Yes
    K tasked:                   Yes
    wK tasked:                   No
    OpenMP threads:               8
    Memory [MiB]:             28610
    Algorithm:                 Core
    Schwarz Cutoff:           1E-12
    Mask sparsity (%):       1.8175
    Fitting Condition:        1E-10

   => Auxiliary Basis Set <=

  Basis Set: (AUG-CC-PVQZ AUX)
    Blend: AUG-CC-PVQZ-JKFIT
    Number of shells: 226
    Number of basis function: 948
    Number of Cartesian functions: 1297
    Spherical Harmonics?: true
    Max angular momentum: 5

  Minimum eigenvalue in the overlap matrix is 4.4798461872E-06.
  Using Symmetric Orthogonalization.

  SCF Guess: Superposition of Atomic Densities via on-the-fly atomic UHF.

  ==> Iterations <==

                           Total Energy        Delta E     RMS |[F,P]|

   @DF-RHF iter SAD:  -207.24850641862548   -2.07249e+02   0.00000e+00 
   @DF-RHF iter   1:  -207.89853234356053   -6.50026e-01   1.11168e-03 DIIS
   @DF-RHF iter   2:  -208.03217060522030   -1.33638e-01   6.43968e-04 DIIS
   @DF-RHF iter   3:  -208.07336610470918   -4.11955e-02   1.19497e-04 DIIS
   @DF-RHF iter   4:  -208.07574932860621   -2.38322e-03   5.08134e-05 DIIS
   @DF-RHF iter   5:  -208.07625612998524   -5.06801e-04   9.41750e-06 DIIS
   @DF-RHF iter   6:  -208.07628776262888   -3.16326e-05   4.52379e-06 DIIS
   @DF-RHF iter   7:  -208.07629367109556   -5.90847e-06   1.68497e-06 DIIS
   @DF-RHF iter   8:  -208.07629493817717   -1.26708e-06   5.38036e-07 DIIS
   @DF-RHF iter   9:  -208.07629508961932   -1.51442e-07   1.39777e-07 DIIS
   @DF-RHF iter  10:  -208.07629509745288   -7.83356e-09   4.45906e-08 DIIS
   @DF-RHF iter  11:  -208.07629509811426   -6.61373e-10   1.21663e-08 DIIS
   @DF-RHF iter  12:  -208.07629509816522   -5.09601e-11   2.73967e-09 DIIS
  Energy and wave function converged.


  ==> Post-Iterations <==

    Orbital Energies [Eh]
    ---------------------

    Doubly Occupied:                                                      

       1A    -20.514108     2A    -15.585640     3A    -11.352845  
       4A    -11.237040     5A     -1.377277     6A     -1.214047  
       7A     -1.007009     8A     -0.800841     9A     -0.728695  
      10A     -0.665342    11A     -0.616712    12A     -0.586657  
      13A     -0.563638    14A     -0.525428    15A     -0.425671  
      16A     -0.416129  

    Virtual:                                                              

      17A      0.018995    18A      0.032220    19A      0.039848  
      20A      0.043208    21A      0.056766    22A      0.072221  
      23A      0.087633    24A      0.091358    25A      0.098785  
      26A      0.107110    27A      0.116062    28A      0.122104  
      29A      0.128656    30A      0.131290    31A      0.145027  
      32A      0.155628    33A      0.162619    34A      0.182238  
      35A      0.193050    36A      0.198925    37A      0.204422  
      38A      0.213396    39A      0.222144    40A      0.235544  
      41A      0.244596    42A      0.249947    43A      0.261806  
      44A      0.269569    45A      0.276384    46A      0.283203  
      47A      0.291280    48A      0.293813    49A      0.297879  
      50A      0.307034    51A      0.312683    52A      0.316100  
      53A      0.323347    54A      0.331600    55A      0.332923  
      56A      0.350731    57A      0.357966    58A      0.367129  
      59A      0.371739    60A      0.388179    61A      0.391795  
      62A      0.397161    63A      0.406715    64A      0.412306  
      65A      0.419915    66A      0.433279    67A      0.444938  
      68A      0.453766    69A      0.465214    70A      0.487231  
      71A      0.508201    72A      0.514669    73A      0.520214  
      74A      0.536267    75A      0.544638    76A      0.567636  
      77A      0.583996    78A      0.596374    79A      0.599751  
      80A      0.605737    81A      0.625343    82A      0.639237  
      83A      0.645884    84A      0.662359    85A      0.665833  
      86A      0.669192    87A      0.677283    88A      0.686506  
      89A      0.698920    90A      0.701771    91A      0.712553  
      92A      0.716413    93A      0.727885    94A      0.734529  
      95A      0.740480    96A      0.751896    97A      0.758438  
      98A      0.763908    99A      0.770132   100A      0.788409  
     101A      0.789907   102A      0.793910   103A      0.810381  
     104A      0.820301   105A      0.824140   106A      0.838227  
     107A      0.845326   108A      0.855333   109A      0.858235  
     110A      0.882035   111A      0.884395   112A      0.898103  
     113A      0.915903   114A      0.929834   115A      0.933597  
     116A      0.947668   117A      0.967550   118A      0.969786  
     119A      0.980011   120A      0.991547   121A      1.005105  
     122A      1.007219   123A      1.018954   124A      1.037080  
     125A      1.041013   126A      1.058547   127A      1.061437  
     128A      1.085375   129A      1.104145   130A      1.112997  
     131A      1.123124   132A      1.135886   133A      1.161062  
     134A      1.171149   135A      1.179081   136A      1.195730  
     137A      1.207877   138A      1.224702   139A      1.228621  
     140A      1.237587   141A      1.244248   142A      1.262860  
     143A      1.272237   144A      1.296561   145A      1.322398  
     146A      1.353091   147A      1.361666   148A      1.405698  
     149A      1.407965   150A      1.426771   151A      1.442754  
     152A      1.460787   153A      1.472540   154A      1.490209  
     155A      1.497566   156A      1.513409   157A      1.515039  
     158A      1.543664   159A      1.552864   160A      1.571707  
     161A      1.577864   162A      1.589981   163A      1.600366  
     164A      1.619308   165A      1.621717   166A      1.664471  
     167A      1.673456   168A      1.678108   169A      1.694298  
     170A      1.704729   171A      1.717930   172A      1.728854  
     173A      1.739082   174A      1.756052   175A      1.760658  
     176A      1.784659   177A      1.798844   178A      1.814809  
     179A      1.828860   180A      1.842838   181A      1.850418  
     182A      1.853849   183A      1.882138   184A      1.898374  
     185A      1.901954   186A      1.912655   187A      1.922199  
     188A      1.933180   189A      1.946912   190A      1.957285  
     191A      1.978515   192A      1.986502   193A      2.006299  
     194A      2.008831   195A      2.013532   196A      2.026951  
     197A      2.043669   198A      2.051304   199A      2.058058  
     200A      2.073983   201A      2.081856   202A      2.100874  
     203A      2.112047   204A      2.121223   205A      2.134558  
     206A      2.144638   207A      2.157314   208A      2.164536  
     209A      2.178488   210A      2.184245   211A      2.191537  
     212A      2.208028   213A      2.225317   214A      2.233480  
     215A      2.249372   216A      2.269476   217A      2.277165  
     218A      2.288551   219A      2.291146   220A      2.306585  
     221A      2.316624   222A      2.340535   223A      2.359804  
     224A      2.380707   225A      2.383056   226A      2.404117  
     227A      2.419814   228A      2.446327   229A      2.453912  
     230A      2.476156   231A      2.508093   232A      2.545656  
     233A      2.554988   234A      2.567788   235A      2.578890  
     236A      2.612044   237A      2.623277   238A      2.666277  
     239A      2.675441   240A      2.693762   241A      2.703346  
     242A      2.738007   243A      2.772486   244A      2.803219  
     245A      2.812314   246A      2.834678   247A      2.838629  
     248A      2.855952   249A      2.863240   250A      2.873601  
     251A      2.905443   252A      2.921550   253A      2.946960  
     254A      2.963459   255A      2.974909   256A      2.984573  
     257A      3.004324   258A      3.018771   259A      3.031612  
     260A      3.033677   261A      3.058865   262A      3.079810  
     263A      3.088722   264A      3.114426   265A      3.132386  
     266A      3.154170   267A      3.182103   268A      3.193304  
     269A      3.216106   270A      3.231276   271A      3.253619  
     272A      3.265859   273A      3.273201   274A      3.297774  
     275A      3.326962   276A      3.332490   277A      3.349913  
     278A      3.413037   279A      3.417890   280A      3.435475  
     281A      3.462239   282A      3.508064   283A      3.516230  
     284A      3.548672   285A      3.597939   286A      3.610369  
     287A      3.655776   288A      3.670941   289A      3.694940  
     290A      3.702093   291A      3.728282   292A      3.754654  
     293A      3.770265   294A      3.816780   295A      3.840527  
     296A      3.854722   297A      3.884622   298A      3.906925  
     299A      3.957609   300A      3.963195   301A      3.979189  
     302A      4.007424   303A      4.021823   304A      4.038101  
     305A      4.054990   306A      4.063270   307A      4.085539  
     308A      4.090729   309A      4.108386   310A      4.119694  
     311A      4.140031   312A      4.167794   313A      4.186025  
     314A      4.217230   315A      4.224925   316A      4.240280  
     317A      4.278209   318A      4.285095   319A      4.306751  
     320A      4.330215   321A      4.376249   322A      4.386710  
     323A      4.404646   324A      4.408339   325A      4.435179  
     326A      4.449391   327A      4.471646   328A      4.507133  
     329A      4.528858   330A      4.545080   331A      4.576320  
     332A      4.604183   333A      4.631218   334A      4.657204  
     335A      4.681436   336A      4.687999   337A      4.705998  
     338A      4.751957   339A      4.798324   340A      4.807323  
     341A      4.838813   342A      4.868308   343A      4.878555  
     344A      4.896243   345A      4.973705   346A      4.986066  
     347A      5.028590   348A      5.066883   349A      5.078068  
     350A      5.127497   351A      5.147044   352A      5.183207  
     353A      5.201635   354A      5.247090   355A      5.322437  
     356A      5.382339   357A      5.416703   358A      5.486356  
     359A      5.534904   360A      5.584977   361A      5.619895  
     362A      5.649039   363A      5.707487   364A      5.774969  
     365A      5.797322   366A      5.878714   367A      5.998488  
     368A      6.105140   369A      6.144398   370A      6.197727  
     371A      6.224769   372A      6.267679   373A      6.309400  
     374A      6.354890   375A      6.358025   376A      6.412935  
     377A      6.486951   378A      6.509781   379A      6.599227  
     380A      6.612334   381A      6.623908   382A      6.681225  
     383A      6.721558   384A      6.763287   385A      6.808225  
     386A      6.816883   387A      6.858657   388A      6.878793  
     389A      6.889571   390A      6.922737   391A      6.941145  
     392A      6.959962   393A      7.005605   394A      7.028520  
     395A      7.070345   396A      7.081671   397A      7.112925  
     398A      7.143182   399A      7.148232   400A      7.190778  
     401A      7.200987   402A      7.252385   403A      7.266636  
     404A      7.313942   405A      7.331531   406A      7.354154  
     407A      7.409166   408A      7.453625   409A      7.491597  
     410A      7.535818   411A      7.555501   412A      7.587390  
     413A      7.641770   414A      7.666544   415A      7.696247  
     416A      7.715989   417A      7.739855   418A      7.789404  
     419A      7.814977   420A      7.830295   421A      7.833750  
     422A      7.884823   423A      7.914381   424A      7.978137  
     425A      7.992308   426A      8.009701   427A      8.047605  
     428A      8.056705   429A      8.096639   430A      8.190312  
     431A      8.204404   432A      8.210621   433A      8.321503  
     434A      8.384471   435A      8.406249   436A      8.454448  
     437A      8.484552   438A      8.512174   439A      8.533401  
     440A      8.591757   441A      8.626438   442A      8.649184  
     443A      8.678430   444A      8.685446   445A      8.693931  
     446A      8.719465   447A      8.730158   448A      8.761137  
     449A      8.786150   450A      8.797210   451A      8.846920  
     452A      8.905744   453A      8.958773   454A      9.010409  
     455A      9.025545   456A      9.101038   457A      9.105770  
     458A      9.155700   459A      9.163611   460A      9.196429  
     461A      9.229550   462A      9.249625   463A      9.277030  
     464A      9.296900   465A      9.334214   466A      9.360884  
     467A      9.427230   468A      9.453057   469A      9.499505  
     470A      9.547038   471A      9.594064   472A      9.598279  
     473A      9.625158   474A      9.636025   475A      9.686222  
     476A      9.744943   477A      9.771631   478A      9.834004  
     479A      9.860515   480A      9.913375   481A      9.928088  
     482A      9.953712   483A     10.000852   484A     10.026364  
     485A     10.070504   486A     10.134546   487A     10.173719  
     488A     10.216192   489A     10.247896   490A     10.262731  
     491A     10.273437   492A     10.331759   493A     10.368094  
     494A     10.443555   495A     10.502801   496A     10.570052  
     497A     10.596838   498A     10.623121   499A     10.783561  
     500A     10.843791   501A     10.870027   502A     10.894416  
     503A     10.951921   504A     10.982583   505A     11.048971  
     506A     11.074451   507A     11.124374   508A     11.185404  
     509A     11.216810   510A     11.300777   511A     11.352079  
     512A     11.419704   513A     11.445033   514A     11.490572  
     515A     11.542649   516A     11.594543   517A     11.676444  
     518A     11.697861   519A     11.841741   520A     11.921550  
     521A     12.028385   522A     12.149719   523A     12.220598  
     524A     12.283907   525A     12.307014   526A     12.345597  
     527A     12.438710   528A     12.624317   529A     12.813809  
     530A     12.856483   531A     12.926437   532A     12.967432  
     533A     13.192303   534A     13.288880   535A     13.338644  
     536A     13.417634   537A     13.426683   538A     13.476640  
     539A     13.625028   540A     13.716761   541A     14.110878  
     542A     14.134011   543A     14.733341   544A     14.954107  
     545A     15.061639   546A     15.336002   547A     26.453145  
     548A     29.148010   549A     35.791642   550A     44.146532  

    Final Occupation by Irrep:
              A 
    DOCC [    16 ]

  @DF-RHF Final Energy:  -208.07629509816522

   => Energetics <=

    Nuclear Repulsion Energy =            121.8659870866817130
    One-Electron Energy =                -524.6504065464771429
    Two-Electron Energy =                 194.7081243616302402
    Total Energy =                       -208.0762950981652182

Computation Completed


Properties will be evaluated at   0.000000,   0.000000,   0.000000 [a0]

Properties computed using the SCF density matrix

  Nuclear Dipole Moment: [e a0]
     X:     0.6082      Y:     0.6251      Z:   103.7885

  Electronic Dipole Moment: [e a0]
     X:    -0.4306      Y:    -2.2670      Z:  -103.5442

  Dipole Moment: [e a0]
     X:     0.1776      Y:    -1.6419      Z:     0.2443     Total:     1.6695

  Dipole Moment: [D]
     X:     0.4514      Y:    -4.1734      Z:     0.6209     Total:     4.2434


*** tstop() called on node51.bme.utexas.edu at Sat Apr 11 20:58:27 2020
Module time:
	user time   =      75.80 seconds =       1.26 minutes
	system time =       2.35 seconds =       0.04 minutes
	total time  =         11 seconds =       0.18 minutes
Total time:
	user time   =     110.82 seconds =       1.85 minutes
	system time =       3.81 seconds =       0.06 minutes
	total time  =         16 seconds =       0.27 minutes

*** tstart() called on node51.bme.utexas.edu
*** at Sat Apr 11 20:58:27 2020


  //>>>>>>>>>>>>>>>>>>>>>>>>>>>>>>>>>>>//
  //               DFMP2               //
  //<<<<<<<<<<<<<<<<<<<<<<<<<<<<<<<<<<<//

   => Loading Basis Set <=

    Name: (AUG-CC-PVQZ AUX)
    Role: RIFIT
    Keyword: DF_BASIS_MP2
    atoms 1, 6     entry C          line   184 file /home/liuchw/anaconda3/envs/psi4env/share/psi4/basis/aug-cc-pvqz-ri.gbs 
    atoms 2        entry O          line   332 file /home/liuchw/anaconda3/envs/psi4env/share/psi4/basis/aug-cc-pvqz-ri.gbs 
    atoms 3        entry N          line   258 file /home/liuchw/anaconda3/envs/psi4env/share/psi4/basis/aug-cc-pvqz-ri.gbs 
    atoms 4-5, 7-9 entry H          line    30 file /home/liuchw/anaconda3/envs/psi4env/share/psi4/basis/aug-cc-pvqz-ri.gbs 

	 --------------------------------------------------------
	                          DF-MP2                         
	      2nd-Order Density-Fitted Moller-Plesset Theory     
	              RMP2 Wavefunction,   8 Threads             
	                                                         
	        Rob Parrish, Justin Turney, Andy Simmonett,      
	           Ed Hohenstein, and C. David Sherrill          
	 --------------------------------------------------------

   => Auxiliary Basis Set <=

  Basis Set: (AUG-CC-PVQZ AUX)
    Blend: AUG-CC-PVQZ-RI
    Number of shells: 244
    Number of basis function: 1072
    Number of Cartesian functions: 1473
    Spherical Harmonics?: true
    Max angular momentum: 5

	 --------------------------------------------------------
	                 NBF =   550, NAUX =  1072
	 --------------------------------------------------------
	   CLASS    FOCC     OCC    AOCC    AVIR     VIR    FVIR
	   PAIRS       0      16      16     534     534       0
	 --------------------------------------------------------

	-----------------------------------------------------------
	 ==================> DF-MP2 Energies <==================== 
	-----------------------------------------------------------
	 Reference Energy          =    -208.0762950981652182 [Eh]
	 Singles Energy            =      -0.0000000000000000 [Eh]
	 Same-Spin Energy          =      -0.2170274917331707 [Eh]
	 Opposite-Spin Energy      =      -0.7396088515750832 [Eh]
	 Correlation Energy        =      -0.9566363433082539 [Eh]
	 Total Energy              =    -209.0329314414734654 [Eh]
	-----------------------------------------------------------
	 ================> DF-SCS-MP2 Energies <================== 
	-----------------------------------------------------------
	 SCS Same-Spin Scale       =       0.3333333333333333 [-]
	 SCS Opposite-Spin Scale   =       1.2000000000000000 [-]
	 SCS Same-Spin Energy      =      -0.0723424972443902 [Eh]
	 SCS Opposite-Spin Energy  =      -0.8875306218900998 [Eh]
	 SCS Correlation Energy    =      -0.9598731191344900 [Eh]
	 SCS Total Energy          =    -209.0361682172997178 [Eh]
	-----------------------------------------------------------


*** tstop() called on node51.bme.utexas.edu at Sat Apr 11 20:58:33 2020
Module time:
	user time   =      33.72 seconds =       0.56 minutes
	system time =       1.07 seconds =       0.02 minutes
	total time  =          6 seconds =       0.10 minutes
Total time:
	user time   =     144.55 seconds =       2.41 minutes
	system time =       4.88 seconds =       0.08 minutes
	total time  =         22 seconds =       0.37 minutes

  //>>>>>>>>>>>>>>>>>>>>>>>>>>>>>>>>>>>//
  //  CBS Results: mp2/aug-cc-pv[tq]z  //
  //<<<<<<<<<<<<<<<<<<<<<<<<<<<<<<<<<<<//


   ==> HF <==

   HI-zeta (4) Energy:               -208.076295098165


   ==> Helgaker 2-point correlated extrapolation for method: MP2 <==

   LO-zeta (3) Energy:               -208.923344691008
   HI-zeta (4) Energy:               -209.032931441473
   Alpha (exponent) Value:             3.000000000000
   Extrapolated Energy:              -209.112900151273

   @Extrapolated MP2/(T,Q):          -209.112900151273



   ==> Helgaker 2-point correlated extrapolation for method: HF <==

   LO-zeta (3) Energy:               -208.063113094577
   HI-zeta (4) Energy:               -208.076295098165
   Alpha (exponent) Value:             3.000000000000
   Extrapolated Energy:              -208.085914398081

   @Extrapolated HF/(T,Q):           -208.085914398081


   ==> Components <==

  ---------------------------------------------------------------------------------------------------------
                          Method / Basis                      Rqd      Energy [Eh]   Variable
  ---------------------------------------------------------------------------------------------------------
                              hf / aug-cc-pvtz                  *    -208.06311309   HF TOTAL ENERGY
                             mp2 / aug-cc-pvtz                  *    -208.92334469   MP2 TOTAL ENERGY
                              hf / aug-cc-pvqz                  *    -208.07629510   HF TOTAL ENERGY
                             mp2 / aug-cc-pvqz                  *    -209.03293144   MP2 TOTAL ENERGY
  ---------------------------------------------------------------------------------------------------------

   ==> Stages <==

  ---------------------------------------------------------------------------------------------------------
      Stage               Method / Basis                       Wt      Energy [Eh]   Scheme
  ---------------------------------------------------------------------------------------------------------
        scf                   hf / aug-cc-pvqz                  1    -208.07629510   xtpl_highest_1
       corl                  mp2 / aug-cc-pv[tq]z               1    -209.11290015   corl_xtpl_helgaker_2
       corl                   hf / aug-cc-pv[tq]z              -1    -208.08591440   corl_xtpl_helgaker_2
  ---------------------------------------------------------------------------------------------------------

   ==> CBS <==

  ---------------------------------------------------------------------------------------------------------
      Stage               Method / Basis                               Energy [Eh]   Scheme
  ---------------------------------------------------------------------------------------------------------
        scf                   hf / aug-cc-pvqz                       -208.07629510   xtpl_highest_1
       corl                  mp2 / aug-cc-pv[tq]z                      -1.02698575   corl_xtpl_helgaker_2
      total                  CBS                                     -209.10328085   
  ---------------------------------------------------------------------------------------------------------
   => Loading Basis Set <=

    Name: DEF2-SVP
    Role: ORBITAL
    Keyword: BASIS
    atoms 1, 6     entry C          line    90 file /home/liuchw/anaconda3/envs/psi4env/share/psi4/basis/def2-svp.gbs 
    atoms 2        entry O          line   130 file /home/liuchw/anaconda3/envs/psi4env/share/psi4/basis/def2-svp.gbs 
    atoms 3        entry N          line   110 file /home/liuchw/anaconda3/envs/psi4env/share/psi4/basis/def2-svp.gbs 
    atoms 4-5, 7-9 entry H          line    15 file /home/liuchw/anaconda3/envs/psi4env/share/psi4/basis/def2-svp.gbs 


       N-Body: Complex Energy (fragments = (2,), basis = (2,):  -209.10328085135689)

       N-Body: Computing complex (2/4) with fragments (2,) in the basis of fragments (1, 2).


Scratch directory: /scratch//

  //>>>>>>>>>>>>>>>>>>>>>>>>>>>>>>>>>>>//
  //   CBS Setup: mp2/aug-cc-pv[tq]z   //
  //<<<<<<<<<<<<<<<<<<<<<<<<<<<<<<<<<<<//

    Naive listing of computations required.
             hf / aug-cc-pvqz              for  HF TOTAL ENERGY
            mp2 / aug-cc-pvtz              for  MP2 TOTAL ENERGY
            mp2 / aug-cc-pvqz              for  MP2 TOTAL ENERGY
             hf / aug-cc-pvtz              for  HF TOTAL ENERGY
             hf / aug-cc-pvqz              for  HF TOTAL ENERGY

    Enlightened listing of computations required.
            mp2 / aug-cc-pvtz              for  MP2 TOTAL ENERGY
            mp2 / aug-cc-pvqz              for  MP2 TOTAL ENERGY

    Full listing of computations to be obtained (required and bonus).
             hf / aug-cc-pvtz              for  HF TOTAL ENERGY
            mp2 / aug-cc-pvtz              for  MP2 TOTAL ENERGY
             hf / aug-cc-pvqz              for  HF TOTAL ENERGY
            mp2 / aug-cc-pvqz              for  MP2 TOTAL ENERGY

  //>>>>>>>>>>>>>>>>>>>>>>>>>>>>>>>>>>>>//
  // CBS Computation: MP2 / AUG-CC-PVTZ //
  //<<<<<<<<<<<<<<<<<<<<<<<<<<<<<<<<<<<<//


Scratch directory: /scratch//

*** tstart() called on node51.bme.utexas.edu
*** at Sat Apr 11 20:58:35 2020

   => Loading Basis Set <=

    Name: AUG-CC-PVTZ
    Role: ORBITAL
    Keyword: BASIS
    atoms 1, 5, 8, 11, 14, 18, 23                    entry C          line   239 file /home/liuchw/anaconda3/envs/psi4env/share/psi4/basis/aug-cc-pvtz.gbs 
    atoms 2-4, 6-7, 9-10, 12-13, 15-17, 21-22, 24-26 entry H          line    40 file /home/liuchw/anaconda3/envs/psi4env/share/psi4/basis/aug-cc-pvtz.gbs 
    atoms 19                                         entry O          line   331 file /home/liuchw/anaconda3/envs/psi4env/share/psi4/basis/aug-cc-pvtz.gbs 
    atoms 20                                         entry N          line   285 file /home/liuchw/anaconda3/envs/psi4env/share/psi4/basis/aug-cc-pvtz.gbs 


         ---------------------------------------------------------
                                   SCF
               by Justin Turney, Rob Parrish, Andy Simmonett
                          and Daniel G. A. Smith
                              RHF Reference
                        8 Threads,  38146 MiB Core
         ---------------------------------------------------------

  ==> Geometry <==

    Molecular point group: c1
    Full point group: C1

    Geometry (in Angstrom), charge = 0, multiplicity = 1:

       Center              X                  Y                   Z               Mass       
    ------------   -----------------  -----------------  -----------------  -----------------
      Gh(C)          -2.567222435203    -0.336662018105    -1.496036375745    12.000000000000
      Gh(H)          -2.589835435203    -0.889922018105    -2.435113375745     1.007825032230
      Gh(H)          -2.639190435203    -1.065443018105    -0.687780375745     1.007825032230
      Gh(H)          -3.455481435203     0.292068981895    -1.456533375745     1.007825032230
      Gh(C)          -1.289006435203     0.483837981895    -1.380431375745    12.000000000000
      Gh(H)          -1.296697435203     1.069705981895    -0.459153375745     1.007825032230
      Gh(H)          -1.241823435203     1.202017981895    -2.202270375745     1.007825032230
      Gh(C)          -0.036276435203    -0.381816018105    -1.407054375745    12.000000000000
      Gh(H)          -0.065621435203    -1.086915018105    -0.569619375745     1.007825032230
      Gh(H)          -0.033255435203    -0.990399018105    -2.316968375745     1.007825032230
      Gh(C)           1.252149564797     0.426509981895    -1.333462375745    12.000000000000
      Gh(H)           1.233836564797     1.040005981895    -0.430901375745     1.007825032230
      Gh(H)           1.286850564797     1.117820981895    -2.178600375745     1.007825032230
      Gh(C)           2.493128564797    -0.456700018105    -1.346273375745    12.000000000000
      Gh(H)           2.541272564797    -1.048819018105    -2.260391375745     1.007825032230
      Gh(H)           3.408287564797     0.130533981895    -1.281585375745     1.007825032230
      Gh(H)           2.479850564797    -1.152920018105    -0.506876375745     1.007825032230
         C            0.052819564797     0.166518981895     1.685544624255    12.000000000000
         O            0.079731564797     1.351592981895     1.393703624255    15.994914619570
         N            1.185399564797    -0.585358018105     1.788364624255    14.003074004430
         H            2.056339564797    -0.162778018105     1.519702624255     1.007825032230
         H            1.146461564797    -1.577245018105     1.919787624255     1.007825032230
         C           -1.237401435203    -0.572418018105     1.949998624255    12.000000000000
         H           -1.090151435203    -1.533139018105     2.437122624255     1.007825032230
         H           -1.743629435203    -0.730727018105     0.999185624255     1.007825032230
         H           -1.875345435203     0.054817981895     2.565270624255     1.007825032230

  Running in c1 symmetry.

  Rotational constants: A =      0.04640  B =      0.04295  C =      0.02701 [cm^-1]
  Rotational constants: A =   1391.15365  B =   1287.72565  C =    809.70693 [MHz]
  Nuclear repulsion =  121.865987086681713

  Charge       = 0
  Multiplicity = 1
  Electrons    = 32
  Nalpha       = 16
  Nbeta        = 16

  ==> Algorithm <==

  SCF Algorithm Type is DF.
  DIIS enabled.
  MOM disabled.
  Fractional occupation disabled.
  Guess Type is SAD.
  Energy threshold   = 1.00e-07
  Density threshold  = 1.00e-08
  Integral threshold = 0.00e+00

  ==> Primary Basis <==

  Basis Set: AUG-CC-PVTZ
    Blend: AUG-CC-PVTZ
    Number of shells: 279
    Number of basis function: 805
    Number of Cartesian functions: 920
    Spherical Harmonics?: true
    Max angular momentum: 3

   => Loading Basis Set <=

    Name: (AUG-CC-PVTZ AUX)
    Role: JKFIT
    Keyword: DF_BASIS_SCF
    atoms 1, 5, 8, 11, 14, 18, 23                    entry C          line   162 file /home/liuchw/anaconda3/envs/psi4env/share/psi4/basis/aug-cc-pvtz-jkfit.gbs 
    atoms 2-4, 6-7, 9-10, 12-13, 15-17, 21-22, 24-26 entry H          line    70 file /home/liuchw/anaconda3/envs/psi4env/share/psi4/basis/aug-cc-pvtz-jkfit.gbs 
    atoms 19                                         entry O          line   286 file /home/liuchw/anaconda3/envs/psi4env/share/psi4/basis/aug-cc-pvtz-jkfit.gbs 
    atoms 20                                         entry N          line   224 file /home/liuchw/anaconda3/envs/psi4env/share/psi4/basis/aug-cc-pvtz-jkfit.gbs 

  ==> Pre-Iterations <==

   -------------------------------------------------------
    Irrep   Nso     Nmo     Nalpha   Nbeta   Ndocc  Nsocc
   -------------------------------------------------------
     A        805     805       0       0       0       0
   -------------------------------------------------------
    Total     805     805      16      16      16       0
   -------------------------------------------------------

  ==> Integral Setup <==

  DFHelper Memory: AOs need 8.043 GiB; user supplied 27.940 GiB. Using in-core AOs.

  ==> MemDFJK: Density-Fitted J/K Matrices <==

    J tasked:                   Yes
    K tasked:                   Yes
    wK tasked:                   No
    OpenMP threads:               8
    Memory [MiB]:             28610
    Algorithm:                 Core
    Schwarz Cutoff:           1E-12
    Mask sparsity (%):       5.3331
    Fitting Condition:        1E-10

   => Auxiliary Basis Set <=

  Basis Set: (AUG-CC-PVTZ AUX)
    Blend: AUG-CC-PVTZ-JKFIT
    Number of shells: 508
    Number of basis function: 1718
    Number of Cartesian functions: 2114
    Spherical Harmonics?: true
    Max angular momentum: 4

  Minimum eigenvalue in the overlap matrix is 1.7653077450E-06.
  Using Symmetric Orthogonalization.

  SCF Guess: Superposition of Atomic Densities via on-the-fly atomic UHF.

  ==> Iterations <==

                           Total Energy        Delta E     RMS |[F,P]|

   @DF-RHF iter SAD:  -207.23537542101468   -2.07235e+02   0.00000e+00 
   @DF-RHF iter   1:  -207.88613041334276   -6.50755e-01   7.57998e-04 DIIS
   @DF-RHF iter   2:  -208.01950615964904   -1.33376e-01   4.38262e-04 DIIS
   @DF-RHF iter   3:  -208.06050761225819   -4.10015e-02   8.13506e-05 DIIS
   @DF-RHF iter   4:  -208.06288220409647   -2.37459e-03   3.45145e-05 DIIS
   @DF-RHF iter   5:  -208.06338586785256   -5.03664e-04   6.36145e-06 DIIS
   @DF-RHF iter   6:  -208.06341706576023   -3.11979e-05   3.06758e-06 DIIS
   @DF-RHF iter   7:  -208.06342291587686   -5.85012e-06   1.13635e-06 DIIS
   @DF-RHF iter   8:  -208.06342416652450   -1.25065e-06   3.56696e-07 DIIS
   @DF-RHF iter   9:  -208.06342431061748   -1.44093e-07   9.20616e-08 DIIS
   @DF-RHF iter  10:  -208.06342431783042   -7.21295e-09   2.95464e-08 DIIS
   @DF-RHF iter  11:  -208.06342431846275   -6.32326e-10   7.92780e-09 DIIS
  Energy and wave function converged.


  ==> Post-Iterations <==

    Orbital Energies [Eh]
    ---------------------

    Doubly Occupied:                                                      

       1A    -20.516686     2A    -15.587484     3A    -11.353951  
       4A    -11.238069     5A     -1.378035     6A     -1.214475  
       7A     -1.007185     8A     -0.800920     9A     -0.728598  
      10A     -0.665276    11A     -0.616592    12A     -0.586537  
      13A     -0.563469    14A     -0.525266    15A     -0.425497  
      16A     -0.415970  

    Virtual:                                                              

      17A      0.015925    18A      0.026719    19A      0.029250  
      20A      0.036308    21A      0.044168    22A      0.047017  
      23A      0.049832    24A      0.053279    25A      0.059253  
      26A      0.068218    27A      0.069364    28A      0.070870  
      29A      0.075602    30A      0.080727    31A      0.083077  
      32A      0.083885    33A      0.090498    34A      0.094717  
      35A      0.098904    36A      0.106433    37A      0.107391  
      38A      0.114206    39A      0.124832    40A      0.127191  
      41A      0.130687    42A      0.138100    43A      0.139414  
      44A      0.141417    45A      0.147144    46A      0.148247  
      47A      0.150504    48A      0.152686    49A      0.161256  
      50A      0.166966    51A      0.168510    52A      0.169247  
      53A      0.173455    54A      0.178453    55A      0.181317  
      56A      0.184803    57A      0.188955    58A      0.190604  
      59A      0.199173    60A      0.202574    61A      0.210174  
      62A      0.213136    63A      0.222923    64A      0.227363  
      65A      0.230378    66A      0.240182    67A      0.256109  
      68A      0.257490    69A      0.264285    70A      0.266578  
      71A      0.281063    72A      0.282741    73A      0.290847  
      74A      0.293309    75A      0.297192    76A      0.301978  
      77A      0.303064    78A      0.310714    79A      0.313739  
      80A      0.314575    81A      0.324352    82A      0.328463  
      83A      0.332923    84A      0.336338    85A      0.338820  
      86A      0.340259    87A      0.345825    88A      0.349798  
      89A      0.352549    90A      0.355069    91A      0.359238  
      92A      0.362000    93A      0.367681    94A      0.372875  
      95A      0.376397    96A      0.380968    97A      0.391211  
      98A      0.392376    99A      0.394562   100A      0.402359  
     101A      0.404529   102A      0.409217   103A      0.410846  
     104A      0.414058   105A      0.419067   106A      0.421180  
     107A      0.425425   108A      0.429520   109A      0.432575  
     110A      0.441400   111A      0.444085   112A      0.444803  
     113A      0.453369   114A      0.456695   115A      0.463462  
     116A      0.469155   117A      0.472740   118A      0.477115  
     119A      0.483054   120A      0.487991   121A      0.494536  
     122A      0.498739   123A      0.503185   124A      0.505713  
     125A      0.509589   126A      0.517818   127A      0.519601  
     128A      0.526386   129A      0.533090   130A      0.538559  
     131A      0.541126   132A      0.544521   133A      0.546077  
     134A      0.555605   135A      0.559658   136A      0.559914  
     137A      0.567923   138A      0.574673   139A      0.580520  
     140A      0.588574   141A      0.594270   142A      0.597066  
     143A      0.600482   144A      0.603338   145A      0.607245  
     146A      0.612849   147A      0.620791   148A      0.623285  
     149A      0.629613   150A      0.633273   151A      0.637940  
     152A      0.642666   153A      0.650235   154A      0.653010  
     155A      0.658529   156A      0.664987   157A      0.670955  
     158A      0.675189   159A      0.678047   160A      0.680752  
     161A      0.684978   162A      0.690213   163A      0.691789  
     164A      0.697470   165A      0.700888   166A      0.707219  
     167A      0.713938   168A      0.714599   169A      0.722417  
     170A      0.725543   171A      0.735698   172A      0.739017  
     173A      0.742604   174A      0.751010   175A      0.753674  
     176A      0.758864   177A      0.759744   178A      0.769897  
     179A      0.780026   180A      0.782416   181A      0.790671  
     182A      0.795108   183A      0.797556   184A      0.804285  
     185A      0.807998   186A      0.810450   187A      0.816173  
     188A      0.830336   189A      0.833080   190A      0.838157  
     191A      0.844620   192A      0.855010   193A      0.862887  
     194A      0.866649   195A      0.871765   196A      0.880049  
     197A      0.888785   198A      0.895044   199A      0.897098  
     200A      0.903115   201A      0.904779   202A      0.911718  
     203A      0.916854   204A      0.930941   205A      0.941191  
     206A      0.942568   207A      0.949448   208A      0.953789  
     209A      0.963022   210A      0.969891   211A      0.976456  
     212A      0.982078   213A      0.991764   214A      0.994124  
     215A      1.009455   216A      1.022986   217A      1.024802  
     218A      1.030008   219A      1.036494   220A      1.048617  
     221A      1.051674   222A      1.057566   223A      1.060893  
     224A      1.065418   225A      1.075156   226A      1.081463  
     227A      1.086874   228A      1.089409   229A      1.091721  
     230A      1.099633   231A      1.111085   232A      1.115161  
     233A      1.118583   234A      1.127754   235A      1.136099  
     236A      1.141197   237A      1.143065   238A      1.147969  
     239A      1.154993   240A      1.163687   241A      1.164559  
     242A      1.169048   243A      1.175859   244A      1.185474  
     245A      1.191017   246A      1.197587   247A      1.200665  
     248A      1.206311   249A      1.212281   250A      1.215630  
     251A      1.219549   252A      1.227913   253A      1.238130  
     254A      1.240270   255A      1.242392   256A      1.243938  
     257A      1.253031   258A      1.255786   259A      1.261679  
     260A      1.264724   261A      1.268636   262A      1.279073  
     263A      1.284073   264A      1.289334   265A      1.291228  
     266A      1.295383   267A      1.297011   268A      1.300586  
     269A      1.307797   270A      1.309068   271A      1.321757  
     272A      1.323935   273A      1.329742   274A      1.333863  
     275A      1.338499   276A      1.346629   277A      1.351339  
     278A      1.357128   279A      1.360987   280A      1.365128  
     281A      1.373911   282A      1.380878   283A      1.386338  
     284A      1.388794   285A      1.394130   286A      1.405390  
     287A      1.410558   288A      1.411648   289A      1.418921  
     290A      1.422703   291A      1.428991   292A      1.436312  
     293A      1.440709   294A      1.447345   295A      1.452193  
     296A      1.459474   297A      1.468050   298A      1.471947  
     299A      1.480104   300A      1.485761   301A      1.493987  
     302A      1.503005   303A      1.505808   304A      1.508517  
     305A      1.515467   306A      1.520466   307A      1.524095  
     308A      1.531036   309A      1.536514   310A      1.541557  
     311A      1.550678   312A      1.553302   313A      1.558039  
     314A      1.565697   315A      1.569643   316A      1.579069  
     317A      1.587504   318A      1.588516   319A      1.594024  
     320A      1.596630   321A      1.613454   322A      1.621300  
     323A      1.630784   324A      1.638664   325A      1.642778  
     326A      1.650744   327A      1.651852   328A      1.658174  
     329A      1.665665   330A      1.667656   331A      1.673473  
     332A      1.683044   333A      1.689434   334A      1.697556  
     335A      1.704301   336A      1.710267   337A      1.722087  
     338A      1.729987   339A      1.736536   340A      1.744892  
     341A      1.755966   342A      1.756359   343A      1.769030  
     344A      1.774089   345A      1.786259   346A      1.797456  
     347A      1.799709   348A      1.808690   349A      1.817825  
     350A      1.825948   351A      1.832325   352A      1.835257  
     353A      1.839962   354A      1.849906   355A      1.860040  
     356A      1.864314   357A      1.875099   358A      1.885392  
     359A      1.889843   360A      1.892160   361A      1.896144  
     362A      1.907883   363A      1.910678   364A      1.926744  
     365A      1.932861   366A      1.944640   367A      1.953724  
     368A      1.957949   369A      1.967579   370A      1.979837  
     371A      1.983747   372A      1.992441   373A      2.006969  
     374A      2.016127   375A      2.033152   376A      2.034316  
     377A      2.042084   378A      2.052002   379A      2.056656  
     380A      2.057495   381A      2.072984   382A      2.080498  
     383A      2.087645   384A      2.097301   385A      2.116257  
     386A      2.117265   387A      2.120209   388A      2.138702  
     389A      2.143722   390A      2.148523   391A      2.162067  
     392A      2.168786   393A      2.177115   394A      2.178599  
     395A      2.184549   396A      2.196685   397A      2.210430  
     398A      2.213218   399A      2.220388   400A      2.233690  
     401A      2.237401   402A      2.244252   403A      2.252395  
     404A      2.255710   405A      2.260988   406A      2.273581  
     407A      2.277536   408A      2.292031   409A      2.293053  
     410A      2.308158   411A      2.313782   412A      2.319081  
     413A      2.325028   414A      2.327982   415A      2.339392  
     416A      2.351391   417A      2.354565   418A      2.367285  
     419A      2.372829   420A      2.385131   421A      2.389197  
     422A      2.403742   423A      2.408038   424A      2.424619  
     425A      2.430991   426A      2.443192   427A      2.448717  
     428A      2.460815   429A      2.468544   430A      2.475711  
     431A      2.490121   432A      2.498729   433A      2.506682  
     434A      2.521600   435A      2.526806   436A      2.531794  
     437A      2.536983   438A      2.553183   439A      2.565670  
     440A      2.571341   441A      2.576226   442A      2.584942  
     443A      2.600137   444A      2.614652   445A      2.625735  
     446A      2.637727   447A      2.642231   448A      2.650765  
     449A      2.667940   450A      2.680695   451A      2.689277  
     452A      2.696547   453A      2.718909   454A      2.721718  
     455A      2.729676   456A      2.733683   457A      2.750902  
     458A      2.753844   459A      2.763282   460A      2.783661  
     461A      2.790666   462A      2.791331   463A      2.802649  
     464A      2.810241   465A      2.820337   466A      2.830031  
     467A      2.843369   468A      2.859070   469A      2.872200  
     470A      2.880898   471A      2.891436   472A      2.901584  
     473A      2.904958   474A      2.933144   475A      2.942797  
     476A      2.947219   477A      2.951848   478A      2.994810  
     479A      3.006601   480A      3.016397   481A      3.024286  
     482A      3.034366   483A      3.061963   484A      3.077645  
     485A      3.096115   486A      3.105704   487A      3.114650  
     488A      3.120869   489A      3.143931   490A      3.182919  
     491A      3.194876   492A      3.210730   493A      3.269527  
     494A      3.291034   495A      3.306728   496A      3.342873  
     497A      3.352367   498A      3.383673   499A      3.397796  
     500A      3.416844   501A      3.446724   502A      3.485033  
     503A      3.506640   504A      3.536381   505A      3.589509  
     506A      3.619366   507A      3.635189   508A      3.663229  
     509A      3.692473   510A      3.713909   511A      3.753343  
     512A      3.777560   513A      3.802992   514A      3.836167  
     515A      3.871130   516A      3.903695   517A      3.928672  
     518A      3.958667   519A      3.968269   520A      3.996510  
     521A      4.027650   522A      4.035974   523A      4.037913  
     524A      4.048284   525A      4.078699   526A      4.088111  
     527A      4.110761   528A      4.130553   529A      4.144512  
     530A      4.157162   531A      4.170331   532A      4.178055  
     533A      4.186228   534A      4.200293   535A      4.215309  
     536A      4.227492   537A      4.234205   538A      4.249758  
     539A      4.254826   540A      4.259819   541A      4.266801  
     542A      4.273192   543A      4.284496   544A      4.294216  
     545A      4.296738   546A      4.310092   547A      4.317147  
     548A      4.325641   549A      4.329371   550A      4.346464  
     551A      4.357840   552A      4.361048   553A      4.372744  
     554A      4.387672   555A      4.400206   556A      4.410735  
     557A      4.420663   558A      4.426444   559A      4.437666  
     560A      4.455092   561A      4.460286   562A      4.467709  
     563A      4.489693   564A      4.501717   565A      4.508341  
     566A      4.513352   567A      4.523935   568A      4.530886  
     569A      4.534105   570A      4.548633   571A      4.552512  
     572A      4.559820   573A      4.577112   574A      4.581388  
     575A      4.600534   576A      4.609623   577A      4.614659  
     578A      4.617623   579A      4.632890   580A      4.643195  
     581A      4.658181   582A      4.662414   583A      4.678268  
     584A      4.712201   585A      4.716178   586A      4.731355  
     587A      4.739267   588A      4.747528   589A      4.750990  
     590A      4.756131   591A      4.780633   592A      4.793205  
     593A      4.798798   594A      4.804380   595A      4.822410  
     596A      4.837860   597A      4.850147   598A      4.854257  
     599A      4.870343   600A      4.877003   601A      4.886704  
     602A      4.897170   603A      4.911822   604A      4.918529  
     605A      4.928738   606A      4.932452   607A      4.940411  
     608A      4.959332   609A      4.960445   610A      4.978192  
     611A      4.987420   612A      4.989002   613A      5.001693  
     614A      5.010602   615A      5.021195   616A      5.025551  
     617A      5.040701   618A      5.047157   619A      5.052221  
     620A      5.057258   621A      5.065602   622A      5.075085  
     623A      5.078862   624A      5.092269   625A      5.102510  
     626A      5.110192   627A      5.117257   628A      5.127361  
     629A      5.135083   630A      5.145760   631A      5.160516  
     632A      5.166165   633A      5.177776   634A      5.189698  
     635A      5.198063   636A      5.221548   637A      5.237099  
     638A      5.254652   639A      5.263285   640A      5.272245  
     641A      5.309770   642A      5.318816   643A      5.323579  
     644A      5.337462   645A      5.347341   646A      5.349506  
     647A      5.378967   648A      5.388302   649A      5.396748  
     650A      5.421903   651A      5.425957   652A      5.449896  
     653A      5.466385   654A      5.471670   655A      5.480181  
     656A      5.487351   657A      5.491477   658A      5.512123  
     659A      5.523299   660A      5.549416   661A      5.555467  
     662A      5.563184   663A      5.573021   664A      5.580079  
     665A      5.587219   666A      5.600212   667A      5.611150  
     668A      5.622401   669A      5.628503   670A      5.638158  
     671A      5.650848   672A      5.668176   673A      5.669096  
     674A      5.681663   675A      5.685626   676A      5.695376  
     677A      5.717386   678A      5.724983   679A      5.728901  
     680A      5.742436   681A      5.764645   682A      5.766269  
     683A      5.778259   684A      5.788788   685A      5.796720  
     686A      5.811237   687A      5.826586   688A      5.836300  
     689A      5.839381   690A      5.845241   691A      5.864731  
     692A      5.868999   693A      5.886425   694A      5.896121  
     695A      5.916686   696A      5.921594   697A      5.950555  
     698A      5.958396   699A      5.992729   700A      5.997568  
     701A      6.018174   702A      6.023304   703A      6.052690  
     704A      6.083428   705A      6.105424   706A      6.117924  
     707A      6.143368   708A      6.149793   709A      6.163538  
     710A      6.168769   711A      6.188031   712A      6.197946  
     713A      6.203302   714A      6.230623   715A      6.234779  
     716A      6.240309   717A      6.287841   718A      6.297335  
     719A      6.309205   720A      6.318601   721A      6.324544  
     722A      6.352259   723A      6.389822   724A      6.398357  
     725A      6.419584   726A      6.447183   727A      6.467595  
     728A      6.497646   729A      6.539493   730A      6.570007  
     731A      6.629880   732A      6.665418   733A      6.689211  
     734A      6.751420   735A      6.848219   736A      6.893169  
     737A      6.907808   738A      6.926714   739A      6.950997  
     740A      6.964854   741A      6.995037   742A      7.024207  
     743A      7.027385   744A      7.031151   745A      7.059443  
     746A      7.088272   747A      7.108562   748A      7.122499  
     749A      7.144478   750A      7.201970   751A      7.209152  
     752A      7.216218   753A      7.294039   754A      7.358068  
     755A      7.374561   756A      7.388613   757A      7.441826  
     758A      7.488451   759A      7.502164   760A      7.529814  
     761A      7.573590   762A      7.617982   763A      7.640711  
     764A      7.743619   765A      7.763910   766A      7.845732  
     767A      7.882765   768A      7.888457   769A      7.895427  
     770A      7.904284   771A      7.911448   772A      7.912915  
     773A      7.923873   774A      7.994949   775A      8.030750  
     776A      8.046589   777A      8.099727   778A      8.120140  
     779A      8.149179   780A      8.175862   781A      8.337664  
     782A      8.371571   783A      8.408094   784A      8.436146  
     785A      8.559877   786A      8.666423   787A      8.678361  
     788A      9.076873   789A      9.135395   790A      9.283055  
     791A      9.718046   792A     10.558597   793A     10.574383  
     794A     10.641342   795A     10.816959   796A     11.076739  
     797A     16.610721   798A     17.882875   799A     19.343404  
     800A     20.842935   801A     53.403339   802A     54.099674  
     803A     54.586701   804A     54.985663   805A     56.916286  

    Final Occupation by Irrep:
              A 
    DOCC [    16 ]

  @DF-RHF Final Energy:  -208.06342431846275

   => Energetics <=

    Nuclear Repulsion Energy =            121.8659870866817130
    One-Electron Energy =                -524.6108061399396547
    Two-Electron Energy =                 194.6813947347952194
    Total Energy =                       -208.0634243184627508

Computation Completed


Properties will be evaluated at   0.000000,   0.000000,   0.000000 [a0]

Properties computed using the SCF density matrix

  Nuclear Dipole Moment: [e a0]
     X:     0.6082      Y:     0.6251      Z:   103.7885

  Electronic Dipole Moment: [e a0]
     X:    -0.4305      Y:    -2.2670      Z:  -103.5440

  Dipole Moment: [e a0]
     X:     0.1777      Y:    -1.6420      Z:     0.2445     Total:     1.6696

  Dipole Moment: [D]
     X:     0.4517      Y:    -4.1735      Z:     0.6216     Total:     4.2436


*** tstop() called on node51.bme.utexas.edu at Sat Apr 11 20:59:10 2020
Module time:
	user time   =     252.62 seconds =       4.21 minutes
	system time =       5.01 seconds =       0.08 minutes
	total time  =         35 seconds =       0.58 minutes
Total time:
	user time   =     400.07 seconds =       6.67 minutes
	system time =       9.99 seconds =       0.17 minutes
	total time  =         59 seconds =       0.98 minutes

*** tstart() called on node51.bme.utexas.edu
*** at Sat Apr 11 20:59:10 2020


  //>>>>>>>>>>>>>>>>>>>>>>>>>>>>>>>>>>>//
  //               DFMP2               //
  //<<<<<<<<<<<<<<<<<<<<<<<<<<<<<<<<<<<//

   => Loading Basis Set <=

    Name: (AUG-CC-PVTZ AUX)
    Role: RIFIT
    Keyword: DF_BASIS_MP2
    atoms 1, 5, 8, 11, 14, 18, 23                    entry C          line   148 file /home/liuchw/anaconda3/envs/psi4env/share/psi4/basis/aug-cc-pvtz-ri.gbs 
    atoms 2-4, 6-7, 9-10, 12-13, 15-17, 21-22, 24-26 entry H          line    30 file /home/liuchw/anaconda3/envs/psi4env/share/psi4/basis/aug-cc-pvtz-ri.gbs 
    atoms 19                                         entry O          line   264 file /home/liuchw/anaconda3/envs/psi4env/share/psi4/basis/aug-cc-pvtz-ri.gbs 
    atoms 20                                         entry N          line   206 file /home/liuchw/anaconda3/envs/psi4env/share/psi4/basis/aug-cc-pvtz-ri.gbs 

[...]
    1067A      7.067261  1068A      7.070199  1069A      7.082645  
    1070A      7.090111  1071A      7.097299  1072A      7.100115  
    1073A      7.114786  1074A      7.120542  1075A      7.129903  
    1076A      7.136005  1077A      7.137408  1078A      7.146680  
    1079A      7.153218  1080A      7.160548  1081A      7.164263  
    1082A      7.171128  1083A      7.178771  1084A      7.184603  
    1085A      7.187177  1086A      7.188936  1087A      7.198313  
    1088A      7.223836  1089A      7.229241  1090A      7.231818  
    1091A      7.244214  1092A      7.248612  1093A      7.255998  
    1094A      7.262705  1095A      7.277528  1096A      7.288038  
    1097A      7.290388  1098A      7.301434  1099A      7.307930  
    1100A      7.320915  1101A      7.326325  1102A      7.335716  
    1103A      7.342070  1104A      7.350467  1105A      7.366150  
    1106A      7.372506  1107A      7.380951  1108A      7.390688  
    1109A      7.398903  1110A      7.409778  1111A      7.413333  
    1112A      7.421685  1113A      7.427203  1114A      7.437203  
    1115A      7.443691  1116A      7.451657  1117A      7.471504  
    1118A      7.476150  1119A      7.491548  1120A      7.497057  
    1121A      7.518389  1122A      7.520555  1123A      7.529483  
    1124A      7.540302  1125A      7.542160  1126A      7.570313  
    1127A      7.575352  1128A      7.580802  1129A      7.590610  
    1130A      7.602538  1131A      7.616662  1132A      7.619461  
    1133A      7.626931  1134A      7.647365  1135A      7.650142  
    1136A      7.654788  1137A      7.667337  1138A      7.682547  
    1139A      7.698173  1140A      7.706979  1141A      7.711618  
    1142A      7.724903  1143A      7.746910  1144A      7.751231  
    1145A      7.761797  1146A      7.772351  1147A      7.778518  
    1148A      7.788270  1149A      7.816488  1150A      7.827632  
    1151A      7.836301  1152A      7.840533  1153A      7.858470  
    1154A      7.868733  1155A      7.876672  1156A      7.891232  
    1157A      7.900857  1158A      7.910573  1159A      7.916200  
    1160A      7.931053  1161A      7.932013  1162A      7.944786  
    1163A      7.954017  1164A      7.960682  1165A      7.968776  
    1166A      7.981116  1167A      7.993660  1168A      8.007924  
    1169A      8.024890  1170A      8.028159  1171A      8.038748  
    1172A      8.044472  1173A      8.062922  1174A      8.075036  
    1175A      8.083334  1176A      8.087891  1177A      8.092038  
    1178A      8.105204  1179A      8.112348  1180A      8.117986  
    1181A      8.132865  1182A      8.141888  1183A      8.148966  
    1184A      8.166155  1185A      8.169437  1186A      8.183605  
    1187A      8.190521  1188A      8.205888  1189A      8.220949  
    1190A      8.236056  1191A      8.254711  1192A      8.272525  
    1193A      8.281391  1194A      8.289683  1195A      8.304773  
    1196A      8.318898  1197A      8.322997  1198A      8.335805  
    1199A      8.348333  1200A      8.360440  1201A      8.375696  
    1202A      8.382599  1203A      8.403540  1204A      8.418782  
    1205A      8.426403  1206A      8.432513  1207A      8.456155  
    1208A      8.473475  1209A      8.478790  1210A      8.492860  
    1211A      8.511974  1212A      8.526117  1213A      8.564199  
    1214A      8.571824  1215A      8.593468  1216A      8.604951  
    1217A      8.618145  1218A      8.630977  1219A      8.638438  
    1220A      8.648123  1221A      8.655581  1222A      8.680605  
    1223A      8.682737  1224A      8.699081  1225A      8.706811  
    1226A      8.717918  1227A      8.722760  1228A      8.747451  
    1229A      8.748248  1230A      8.755320  1231A      8.760557  
    1232A      8.771655  1233A      8.780528  1234A      8.794290  
    1235A      8.800545  1236A      8.808504  1237A      8.819459  
    1238A      8.832122  1239A      8.838413  1240A      8.841143  
    1241A      8.859252  1242A      8.872886  1243A      8.880083  
    1244A      8.888448  1245A      8.893811  1246A      8.895475  
    1247A      8.905739  1248A      8.921991  1249A      8.937577  
    1250A      8.947479  1251A      8.956470  1252A      8.962951  
    1253A      8.971196  1254A      8.983033  1255A      9.006207  
    1256A      9.023103  1257A      9.025923  1258A      9.036699  
    1259A      9.045774  1260A      9.057418  1261A      9.071334  
    1262A      9.078456  1263A      9.106870  1264A      9.119991  
    1265A      9.139527  1266A      9.161979  1267A      9.185455  
    1268A      9.202406  1269A      9.205914  1270A      9.226662  
    1271A      9.241765  1272A      9.264450  1273A      9.268751  
    1274A      9.279109  1275A      9.286358  1276A      9.311016  
    1277A      9.317270  1278A      9.335351  1279A      9.344806  
    1280A      9.359515  1281A      9.371888  1282A      9.386911  
    1283A      9.397123  1284A      9.410406  1285A      9.434423  
    1286A      9.451033  1287A      9.462395  1288A      9.471928  
    1289A      9.475637  1290A      9.489298  1291A      9.497821  
    1292A      9.505875  1293A      9.519932  1294A      9.533310  
    1295A      9.537718  1296A      9.542859  1297A      9.548647  
    1298A      9.564725  1299A      9.572436  1300A      9.581895  
    1301A      9.590939  1302A      9.603805  1303A      9.622141  
    1304A      9.639265  1305A      9.642875  1306A      9.652080  
    1307A      9.672482  1308A      9.673961  1309A      9.677245  
    1310A      9.690802  1311A      9.692360  1312A      9.710242  
    1313A      9.720714  1314A      9.724578  1315A      9.731049  
    1316A      9.739517  1317A      9.742955  1318A      9.761521  
    1319A      9.774678  1320A      9.783210  1321A      9.795461  
    1322A      9.796296  1323A      9.811286  1324A      9.811876  
    1325A      9.839255  1326A      9.842822  1327A      9.859293  
    1328A      9.885588  1329A      9.887924  1330A      9.902590  
    1331A      9.911633  1332A      9.927365  1333A      9.935411  
    1334A      9.944876  1335A      9.948106  1336A      9.956513  
    1337A      9.971912  1338A      9.980576  1339A      9.989114  
    1340A     10.009185  1341A     10.019510  1342A     10.027285  
    1343A     10.034093  1344A     10.052232  1345A     10.065494  
    1346A     10.078393  1347A     10.089790  1348A     10.096579  
    1349A     10.111266  1350A     10.128735  1351A     10.132207  
    1352A     10.146571  1353A     10.166311  1354A     10.180235  
    1355A     10.194326  1356A     10.208142  1357A     10.219444  
    1358A     10.221296  1359A     10.230218  1360A     10.247400  
    1361A     10.255441  1362A     10.261255  1363A     10.274477  
    1364A     10.284439  1365A     10.293708  1366A     10.297638  
    1367A     10.308353  1368A     10.320753  1369A     10.336071  
    1370A     10.359005  1371A     10.365315  1372A     10.374323  
    1373A     10.390831  1374A     10.402368  1375A     10.407712  
    1376A     10.411811  1377A     10.426749  1378A     10.448954  
    1379A     10.451684  1380A     10.471445  1381A     10.480112  
    1382A     10.514825  1383A     10.523572  1384A     10.531645  
    1385A     10.541976  1386A     10.554005  1387A     10.560065  
    1388A     10.564614  1389A     10.578702  1390A     10.588681  
    1391A     10.593989  1392A     10.604263  1393A     10.627486  
    1394A     10.632049  1395A     10.640310  1396A     10.660297  
    1397A     10.661511  1398A     10.684126  1399A     10.707410  
    1400A     10.721699  1401A     10.730771  1402A     10.748160  
    1403A     10.761505  1404A     10.806654  1405A     10.841720  
    1406A     10.894042  1407A     10.898661  1408A     10.964408  
    1409A     10.976633  1410A     11.023502  1411A     11.061155  
    1412A     11.068574  1413A     11.082410  1414A     11.097274  
    1415A     11.102452  1416A     11.115190  1417A     11.137190  
    1418A     11.141161  1419A     11.155691  1420A     11.176139  
    1421A     11.187532  1422A     11.204273  1423A     11.225537  
    1424A     11.240123  1425A     11.248235  1426A     11.261651  
    1427A     11.274798  1428A     11.314158  1429A     11.329800  
    1430A     11.353757  1431A     11.362443  1432A     11.378703  
    1433A     11.401661  1434A     11.416488  1435A     11.434800  
    1436A     11.443019  1437A     11.483899  1438A     11.525225  
    1439A     11.542437  1440A     11.547448  1441A     11.571061  
    1442A     11.576171  1443A     11.588289  1444A     11.627855  
    1445A     11.677385  1446A     11.707624  1447A     11.728709  
    1448A     11.768070  1449A     11.785993  1450A     11.838807  
    1451A     11.856074  1452A     11.941263  1453A     11.974416  
    1454A     12.026388  1455A     12.125040  1456A     12.230318  
    1457A     12.263163  1458A     12.369761  1459A     12.385656  
    1460A     12.476742  1461A     12.518780  1462A     12.609502  
    1463A     12.663725  1464A     12.942021  1465A     12.976232  
    1466A     13.034511  1467A     13.258674  1468A     13.336671  
    1469A     13.495966  1470A     13.538628  1471A     13.558901  
    1472A     13.584577  1473A     13.601389  1474A     13.612188  
    1475A     13.633226  1476A     13.653657  1477A     13.672502  
    1478A     13.710297  1479A     13.748858  1480A     13.772185  
    1481A     13.794688  1482A     13.817173  1483A     13.860534  
    1484A     13.883174  1485A     13.934281  1486A     13.982206  
    1487A     14.047585  1488A     14.191183  1489A     14.283289  
    1490A     14.817326  1491A     15.263723  1492A     15.339398  
    1493A     15.524392  1494A     26.995378  1495A     28.639924  
    1496A     28.699527  1497A     28.810431  1498A     29.217478  
    1499A     29.254887  1500A     29.469861  1501A     36.278505  
    1502A     45.375704  

    Final Occupation by Irrep:
              A 
    DOCC [    37 ]

  @DF-RHF Final Energy:  -404.47486855756250

   => Energetics <=

    Nuclear Repulsion Energy =            497.1951158999066251
    One-Electron Energy =               -1535.2701042699025038
    Two-Electron Energy =                 633.6001198124334906
    Total Energy =                       -404.4748685575624449

Computation Completed


Properties will be evaluated at   0.000000,   0.000000,   0.000000 [a0]

Properties computed using the SCF density matrix

  Nuclear Dipole Moment: [e a0]
     X:    -1.7638      Y:    -4.9898      Z:    -6.8840

  Electronic Dipole Moment: [e a0]
     X:     1.9150      Y:     3.6115      Z:     7.1874

  Dipole Moment: [e a0]
     X:     0.1512      Y:    -1.3782      Z:     0.3035     Total:     1.4193

  Dipole Moment: [D]
     X:     0.3844      Y:    -3.5031      Z:     0.7713     Total:     3.6076


*** tstop() called on node51.bme.utexas.edu at Sat Apr 11 21:25:05 2020
Module time:
	user time   =    3041.88 seconds =      50.70 minutes
	system time =      18.82 seconds =       0.31 minutes
	total time  =        405 seconds =       6.75 minutes
Total time:
	user time   =   11329.06 seconds =     188.82 minutes
	system time =     139.97 seconds =       2.33 minutes
	total time  =       1614 seconds =      26.90 minutes

*** tstart() called on node51.bme.utexas.edu
*** at Sat Apr 11 21:25:05 2020


  //>>>>>>>>>>>>>>>>>>>>>>>>>>>>>>>>>>>//
  //               DFMP2               //
  //<<<<<<<<<<<<<<<<<<<<<<<<<<<<<<<<<<<//

   => Loading Basis Set <=

    Name: (AUG-CC-PVQZ AUX)
    Role: RIFIT
    Keyword: DF_BASIS_MP2
    atoms 1, 5, 8, 11, 14, 18, 23                    entry C          line   184 file /home/liuchw/anaconda3/envs/psi4env/share/psi4/basis/aug-cc-pvqz-ri.gbs 
    atoms 2-4, 6-7, 9-10, 12-13, 15-17, 21-22, 24-26 entry H          line    30 file /home/liuchw/anaconda3/envs/psi4env/share/psi4/basis/aug-cc-pvqz-ri.gbs 
    atoms 19                                         entry O          line   332 file /home/liuchw/anaconda3/envs/psi4env/share/psi4/basis/aug-cc-pvqz-ri.gbs 
    atoms 20                                         entry N          line   258 file /home/liuchw/anaconda3/envs/psi4env/share/psi4/basis/aug-cc-pvqz-ri.gbs 

	 --------------------------------------------------------
	                          DF-MP2                         
	      2nd-Order Density-Fitted Moller-Plesset Theory     
	              RMP2 Wavefunction,   8 Threads             
	                                                         
	        Rob Parrish, Justin Turney, Andy Simmonett,      
	           Ed Hohenstein, and C. David Sherrill          
	 --------------------------------------------------------

   => Auxiliary Basis Set <=

  Basis Set: (AUG-CC-PVQZ AUX)
    Blend: AUG-CC-PVQZ-RI
    Number of shells: 664
    Number of basis function: 2872
    Number of Cartesian functions: 3918
    Spherical Harmonics?: true
    Max angular momentum: 5

	 --------------------------------------------------------
	                 NBF =  1502, NAUX =  2872
	 --------------------------------------------------------
	   CLASS    FOCC     OCC    AOCC    AVIR     VIR    FVIR
	   PAIRS       0      37      37    1465    1465       0
	 --------------------------------------------------------

	-----------------------------------------------------------
	 ==================> DF-MP2 Energies <==================== 
	-----------------------------------------------------------
	 Reference Energy          =    -404.4748685575625018 [Eh]
	 Singles Energy            =      -0.0000000000000000 [Eh]
	 Same-Spin Energy          =      -0.4462155707075977 [Eh]
	 Opposite-Spin Energy      =      -1.6297658612025918 [Eh]
	 Correlation Energy        =      -2.0759814319101895 [Eh]
	 Total Energy              =    -406.5508499894726810 [Eh]
	-----------------------------------------------------------
	 ================> DF-SCS-MP2 Energies <================== 
	-----------------------------------------------------------
	 SCS Same-Spin Scale       =       0.3333333333333333 [-]
	 SCS Opposite-Spin Scale   =       1.2000000000000000 [-]
	 SCS Same-Spin Energy      =      -0.1487385235691992 [Eh]
	 SCS Opposite-Spin Energy  =      -1.9557190334431100 [Eh]
	 SCS Correlation Energy    =      -2.1044575570123092 [Eh]
	 SCS Total Energy          =    -406.5793261145748261 [Eh]
	-----------------------------------------------------------


*** tstop() called on node51.bme.utexas.edu at Sat Apr 11 21:27:37 2020
Module time:
	user time   =     891.12 seconds =      14.85 minutes
	system time =      24.77 seconds =       0.41 minutes
	total time  =        152 seconds =       2.53 minutes
Total time:
	user time   =   12220.18 seconds =     203.67 minutes
	system time =     164.74 seconds =       2.75 minutes
	total time  =       1766 seconds =      29.43 minutes

  //>>>>>>>>>>>>>>>>>>>>>>>>>>>>>>>>>>>//
  //  CBS Results: mp2/aug-cc-pv[tq]z  //
  //<<<<<<<<<<<<<<<<<<<<<<<<<<<<<<<<<<<//


   ==> HF <==

   HI-zeta (4) Energy:               -404.474868557562


   ==> Helgaker 2-point correlated extrapolation for method: MP2 <==

   LO-zeta (3) Energy:               -406.336409906749
   HI-zeta (4) Energy:               -406.550849989473
   Alpha (exponent) Value:             3.000000000000
   Extrapolated Energy:              -406.707333293082

   @Extrapolated MP2/(T,Q):          -406.707333293082



   ==> Helgaker 2-point correlated extrapolation for method: HF <==

   LO-zeta (3) Energy:               -404.450099091574
   HI-zeta (4) Energy:               -404.474868557562
   Alpha (exponent) Value:             3.000000000000
   Extrapolated Energy:              -404.492943573284

   @Extrapolated HF/(T,Q):           -404.492943573284


   ==> Components <==

  ---------------------------------------------------------------------------------------------------------
                          Method / Basis                      Rqd      Energy [Eh]   Variable
  ---------------------------------------------------------------------------------------------------------
                              hf / aug-cc-pvtz                  *    -404.45009909   HF TOTAL ENERGY
                             mp2 / aug-cc-pvtz                  *    -406.33640991   MP2 TOTAL ENERGY
                              hf / aug-cc-pvqz                  *    -404.47486856   HF TOTAL ENERGY
                             mp2 / aug-cc-pvqz                  *    -406.55084999   MP2 TOTAL ENERGY
  ---------------------------------------------------------------------------------------------------------

   ==> Stages <==

  ---------------------------------------------------------------------------------------------------------
      Stage               Method / Basis                       Wt      Energy [Eh]   Scheme
  ---------------------------------------------------------------------------------------------------------
        scf                   hf / aug-cc-pvqz                  1    -404.47486856   xtpl_highest_1
       corl                  mp2 / aug-cc-pv[tq]z               1    -406.70733329   corl_xtpl_helgaker_2
       corl                   hf / aug-cc-pv[tq]z              -1    -404.49294357   corl_xtpl_helgaker_2
  ---------------------------------------------------------------------------------------------------------

   ==> CBS <==

  ---------------------------------------------------------------------------------------------------------
      Stage               Method / Basis                               Energy [Eh]   Scheme
  ---------------------------------------------------------------------------------------------------------
        scf                   hf / aug-cc-pvqz                       -404.47486856   xtpl_highest_1
       corl                  mp2 / aug-cc-pv[tq]z                      -2.21438972   corl_xtpl_helgaker_2
      total                  CBS                                     -406.68925828   
  ---------------------------------------------------------------------------------------------------------
   => Loading Basis Set <=

    Name: DEF2-SVP
    Role: ORBITAL
    Keyword: BASIS
    atoms 1, 5, 8, 11, 14, 18, 23                    entry C          line    90 file /home/liuchw/anaconda3/envs/psi4env/share/psi4/basis/def2-svp.gbs 
    atoms 2-4, 6-7, 9-10, 12-13, 15-17, 21-22, 24-26 entry H          line    15 file /home/liuchw/anaconda3/envs/psi4env/share/psi4/basis/def2-svp.gbs 
    atoms 19                                         entry O          line   130 file /home/liuchw/anaconda3/envs/psi4env/share/psi4/basis/def2-svp.gbs 
    atoms 20                                         entry N          line   110 file /home/liuchw/anaconda3/envs/psi4env/share/psi4/basis/def2-svp.gbs 


       N-Body: Complex Energy (fragments = (1, 2), basis = (1, 2):  -406.68925827736018)

   ==> N-Body: Counterpoise Corrected (CP) energies <==

   n-Body     Total Energy [Eh]       I.E. [kcal/mol]      Delta [kcal/mol]
        1     -406.688431613265        0.000000000000        0.000000000000
        2     -406.689899439279       -0.921074730137       -0.921074730137

   => Loading Basis Set <=

    Name: DEF2-SVP
    Role: ORBITAL
    Keyword: BASIS
    atoms 1, 5, 8, 11, 14, 18, 23                    entry C          line    90 file /home/liuchw/anaconda3/envs/psi4env/share/psi4/basis/def2-svp.gbs 
    atoms 2-4, 6-7, 9-10, 12-13, 15-17, 21-22, 24-26 entry H          line    15 file /home/liuchw/anaconda3/envs/psi4env/share/psi4/basis/def2-svp.gbs 
    atoms 19                                         entry O          line   130 file /home/liuchw/anaconda3/envs/psi4env/share/psi4/basis/def2-svp.gbs 
    atoms 20                                         entry N          line   110 file /home/liuchw/anaconda3/envs/psi4env/share/psi4/basis/def2-svp.gbs 


    Psi4 stopped on: Saturday, 11 April 2020 09:27PM
    Psi4 wall time for execution: 0:29:28.04

*** Psi4 exiting successfully. Buy a developer a beer!
