
    -----------------------------------------------------------------------
          Psi4: An Open-Source Ab Initio Electronic Structure Package
                               Psi4 1.4a2.dev224 

                         Git: Rev {master} e453b16 


    R. M. Parrish, L. A. Burns, D. G. A. Smith, A. C. Simmonett,
    A. E. DePrince III, E. G. Hohenstein, U. Bozkaya, A. Yu. Sokolov,
    R. Di Remigio, R. M. Richard, J. F. Gonthier, A. M. James,
    H. R. McAlexander, A. Kumar, M. Saitow, X. Wang, B. P. Pritchard,
    P. Verma, H. F. Schaefer III, K. Patkowski, R. A. King, E. F. Valeev,
    F. A. Evangelista, J. M. Turney, T. D. Crawford, and C. D. Sherrill,
    J. Chem. Theory Comput. 13(7) pp 3185--3197 (2017).
    (doi: 10.1021/acs.jctc.7b00174)


                         Additional Contributions by
    P. Kraus, H. Kruse, M. H. Lechner, M. C. Schieber, R. A. Shaw,
    A. Alenaizan, R. Galvelis, Z. L. Glick, S. Lehtola, and J. P. Misiewicz

    -----------------------------------------------------------------------


    Psi4 started on: Saturday, 11 April 2020 05:47PM

    Process ID: 19249
    Host:       node37.bme.utexas.edu
    PSIDATADIR: /home/liuchw/anaconda3/envs/psi4env/share/psi4
    Memory:     500.0 MiB
    Threads:    6
    
  ==> Input File <==

--------------------------------------------------------------------------
#Generated by lconvert.py for cbs job

memory 40 GB

molecule  {
0 1
  N       -0.5410590     0.0295760    -0.2089950
  H        0.0555530    -0.7861180    -0.1302930
  H       -1.4696690    -0.2747080     0.0531430
  C       -0.0787990     1.0423900     0.7384590
  H       -0.7201530     1.9194140     0.6719800
  H       -0.0507580     0.7238230     1.7855150
  H        0.9264310     1.3566040     0.4619990
--
0 1
  N        1.6677150    -1.1180150    -0.0171560
  C        2.0061510    -0.3056710    -1.0288690
  H        1.4634840    -0.4502090    -1.9542500
  C        2.9774800     0.6864630    -0.9285020
  H        3.2023330     1.3108030    -1.7813520
  C        3.6383200     0.8560040     0.2837630
  H        4.3961740     1.6182410     0.4001470
  C        3.2981870     0.0210420     1.3428860
  H        3.7807760     0.1115040     2.3055870
  C        2.3144060    -0.9437470     1.1437020
  H        2.0283220    -1.6074950     1.9503130
units angstrom
no_reorient
symmetry c1
}

set {
scf_type DF
mp2_type DF
e_convergence 7
reference rhf
}

energy('mp2/aug-cc-pv[tq]z', bsse_type='cp')
--------------------------------------------------------------------------

  Memory set to  37.253 GiB by Python driver.

Scratch directory: /scratch//


   ===> N-Body Interaction Abacus <===
        BSSE Treatment:                     cp
        Number of 1-body computations:     4
        Number of 2-body computations:     1

   ==> N-Body: Now computing 1-body complexes <==


       N-Body: Computing complex (1/4) with fragments (2,) in the basis of fragments (2,).


Scratch directory: /scratch//

  //>>>>>>>>>>>>>>>>>>>>>>>>>>>>>>>>>>>//
  //   CBS Setup: mp2/aug-cc-pv[tq]z   //
  //<<<<<<<<<<<<<<<<<<<<<<<<<<<<<<<<<<<//

    Naive listing of computations required.
             hf / aug-cc-pvqz              for  HF TOTAL ENERGY
            mp2 / aug-cc-pvtz              for  MP2 TOTAL ENERGY
            mp2 / aug-cc-pvqz              for  MP2 TOTAL ENERGY
             hf / aug-cc-pvtz              for  HF TOTAL ENERGY
             hf / aug-cc-pvqz              for  HF TOTAL ENERGY

    Enlightened listing of computations required.
            mp2 / aug-cc-pvtz              for  MP2 TOTAL ENERGY
            mp2 / aug-cc-pvqz              for  MP2 TOTAL ENERGY

    Full listing of computations to be obtained (required and bonus).
             hf / aug-cc-pvtz              for  HF TOTAL ENERGY
            mp2 / aug-cc-pvtz              for  MP2 TOTAL ENERGY
             hf / aug-cc-pvqz              for  HF TOTAL ENERGY
            mp2 / aug-cc-pvqz              for  MP2 TOTAL ENERGY

  //>>>>>>>>>>>>>>>>>>>>>>>>>>>>>>>>>>>>//
  // CBS Computation: MP2 / AUG-CC-PVTZ //
  //<<<<<<<<<<<<<<<<<<<<<<<<<<<<<<<<<<<<//


Scratch directory: /scratch//

*** tstart() called on node37.bme.utexas.edu
*** at Sat Apr 11 17:47:06 2020

   => Loading Basis Set <=

    Name: AUG-CC-PVTZ
    Role: ORBITAL
    Keyword: BASIS
    atoms 1              entry N          line   285 file /home/liuchw/anaconda3/envs/psi4env/share/psi4/basis/aug-cc-pvtz.gbs 
    atoms 2, 4, 6, 8, 10 entry C          line   239 file /home/liuchw/anaconda3/envs/psi4env/share/psi4/basis/aug-cc-pvtz.gbs 
    atoms 3, 5, 7, 9, 11 entry H          line    40 file /home/liuchw/anaconda3/envs/psi4env/share/psi4/basis/aug-cc-pvtz.gbs 


         ---------------------------------------------------------
                                   SCF
               by Justin Turney, Rob Parrish, Andy Simmonett
                          and Daniel G. A. Smith
                              RHF Reference
                        6 Threads,  38146 MiB Core
         ---------------------------------------------------------

  ==> Geometry <==

    Molecular point group: c1
    Full point group: C1

    Geometry (in Angstrom), charge = 0, multiplicity = 1:

       Center              X                  Y                   Z               Mass       
    ------------   -----------------  -----------------  -----------------  -----------------
         N           -0.143300925638    -1.163333209323    -0.191955445223    14.003074004430
         C            0.195135074362    -0.350989209323    -1.203668445223    12.000000000000
         H           -0.347531925638    -0.495527209323    -2.129049445223     1.007825032230
         C            1.166464074362     0.641144790677    -1.103301445223    12.000000000000
         H            1.391317074362     1.265484790677    -1.956151445223     1.007825032230
         C            1.827304074362     0.810685790677     0.108963554777    12.000000000000
         H            2.585158074362     1.572922790677     0.225347554777     1.007825032230
         C            1.487171074362    -0.024276209323     1.168086554777    12.000000000000
         H            1.969760074362     0.066185790677     2.130787554777     1.007825032230
         C            0.503390074362    -0.989065209323     0.968902554777    12.000000000000
         H            0.217306074362    -1.652813209323     1.775513554777     1.007825032230

  Running in c1 symmetry.

  Rotational constants: A =      0.14732  B =      0.11664  C =      0.08545 [cm^-1]
  Rotational constants: A =   4416.66375  B =   3496.84371  C =   2561.77288 [MHz]
  Nuclear repulsion =  206.234928938692917

  Charge       = 0
  Multiplicity = 1
  Electrons    = 42
  Nalpha       = 21
  Nbeta        = 21

  ==> Algorithm <==

  SCF Algorithm Type is DF.
  DIIS enabled.
  MOM disabled.
  Fractional occupation disabled.
  Guess Type is SAD.
  Energy threshold   = 1.00e-07
  Density threshold  = 1.00e-08
  Integral threshold = 0.00e+00

  ==> Primary Basis <==

  Basis Set: AUG-CC-PVTZ
    Blend: AUG-CC-PVTZ
    Number of shells: 129
    Number of basis function: 391
    Number of Cartesian functions: 455
    Spherical Harmonics?: true
    Max angular momentum: 3

   => Loading Basis Set <=

    Name: (AUG-CC-PVTZ AUX)
    Role: JKFIT
    Keyword: DF_BASIS_SCF
    atoms 1              entry N          line   224 file /home/liuchw/anaconda3/envs/psi4env/share/psi4/basis/aug-cc-pvtz-jkfit.gbs 
    atoms 2, 4, 6, 8, 10 entry C          line   162 file /home/liuchw/anaconda3/envs/psi4env/share/psi4/basis/aug-cc-pvtz-jkfit.gbs 
    atoms 3, 5, 7, 9, 11 entry H          line    70 file /home/liuchw/anaconda3/envs/psi4env/share/psi4/basis/aug-cc-pvtz-jkfit.gbs 

  ==> Pre-Iterations <==

   -------------------------------------------------------
    Irrep   Nso     Nmo     Nalpha   Nbeta   Ndocc  Nsocc
   -------------------------------------------------------
     A        391     391       0       0       0       0
   -------------------------------------------------------
    Total     391     391      21      21      21       0
   -------------------------------------------------------

  ==> Integral Setup <==

  DFHelper Memory: AOs need 1.008 GiB; user supplied 27.940 GiB. Using in-core AOs.

  ==> MemDFJK: Density-Fitted J/K Matrices <==

    J tasked:                   Yes
    K tasked:                   Yes
    wK tasked:                   No
    OpenMP threads:               6
    Memory [MiB]:             28610
    Algorithm:                 Core
    Schwarz Cutoff:           1E-12
    Mask sparsity (%):       0.8346
    Fitting Condition:        1E-10

   => Auxiliary Basis Set <=

  Basis Set: (AUG-CC-PVTZ AUX)
    Blend: AUG-CC-PVTZ-JKFIT
    Number of shells: 250
    Number of basis function: 854
    Number of Cartesian functions: 1061
    Spherical Harmonics?: true
    Max angular momentum: 4

  Minimum eigenvalue in the overlap matrix is 2.3258299830E-06.
  Using Symmetric Orthogonalization.

  SCF Guess: Superposition of Atomic Densities via on-the-fly atomic UHF.

  ==> Iterations <==

                           Total Energy        Delta E     RMS |[F,P]|

   @DF-RHF iter SAD:  -246.15759440652843   -2.46158e+02   0.00000e+00 
   @DF-RHF iter   1:  -246.63313728869838   -4.75543e-01   1.26137e-03 DIIS
   @DF-RHF iter   2:  -246.75320039107379   -1.20063e-01   5.78427e-04 DIIS
   @DF-RHF iter   3:  -246.77719204733117   -2.39917e-02   1.11826e-04 DIIS
   @DF-RHF iter   4:  -246.77857272150180   -1.38067e-03   3.26365e-05 DIIS
   @DF-RHF iter   5:  -246.77865230214198   -7.95806e-05   1.07236e-05 DIIS
   @DF-RHF iter   6:  -246.77866279391881   -1.04918e-05   2.43481e-06 DIIS
   @DF-RHF iter   7:  -246.77866353623540   -7.42317e-07   8.49427e-07 DIIS
   @DF-RHF iter   8:  -246.77866362810238   -9.18670e-08   3.54213e-07 DIIS
   @DF-RHF iter   9:  -246.77866365451854   -2.64162e-08   9.95836e-08 DIIS
   @DF-RHF iter  10:  -246.77866365765402   -3.13548e-09   3.66945e-08 DIIS
   @DF-RHF iter  11:  -246.77866365824400   -5.89978e-10   2.20346e-08 DIIS
   @DF-RHF iter  12:  -246.77866365840583   -1.61833e-10   6.93167e-09 DIIS
  Energy and wave function converged.


  ==> Post-Iterations <==

    Orbital Energies [Eh]
    ---------------------

    Doubly Occupied:                                                      

       1A    -15.567325     2A    -11.275442     3A    -11.275412  
       4A    -11.260692     5A    -11.242588     6A    -11.242530  
       7A     -1.256712     8A     -1.090143     9A     -1.034252  
      10A     -0.859890    11A     -0.856221    12A     -0.722412  
      13A     -0.660887    14A     -0.654771    15A     -0.599004  
      16A     -0.577580    17A     -0.541412    18A     -0.520555  
      19A     -0.419642    20A     -0.384157    21A     -0.348298  

    Virtual:                                                              

      22A      0.026125    23A      0.033280    24A      0.037758  
      25A      0.048803    26A      0.053322    27A      0.077894  
      28A      0.090997    29A      0.100343    30A      0.102005  
      31A      0.104064    32A      0.108722    33A      0.109293  
      34A      0.110360    35A      0.116616    36A      0.118728  
      37A      0.128993    38A      0.130988    39A      0.141802  
      40A      0.148426    41A      0.150842    42A      0.152091  
      43A      0.157336    44A      0.158513    45A      0.196774  
      46A      0.223404    47A      0.241065    48A      0.242659  
      49A      0.243693    50A      0.254310    51A      0.256746  
      52A      0.270046    53A      0.272403    54A      0.285217  
      55A      0.291376    56A      0.292341    57A      0.303996  
      58A      0.306055    59A      0.322023    60A      0.326950  
      61A      0.334324    62A      0.339914    63A      0.341483  
      64A      0.352465    65A      0.354164    66A      0.373573  
      67A      0.384877    68A      0.400202    69A      0.409561  
      70A      0.419551    71A      0.429175    72A      0.432524  
      73A      0.433174    74A      0.439488    75A      0.441395  
      76A      0.451688    77A      0.460392    78A      0.464805  
      79A      0.471192    80A      0.476174    81A      0.480388  
      82A      0.490486    83A      0.494016    84A      0.496956  
      85A      0.510325    86A      0.523440    87A      0.535367  
      88A      0.541651    89A      0.541896    90A      0.543977  
      91A      0.561349    92A      0.589276    93A      0.615175  
      94A      0.615803    95A      0.621155    96A      0.625258  
      97A      0.634906    98A      0.649116    99A      0.651147  
     100A      0.651999   101A      0.672202   102A      0.695886  
     103A      0.710142   104A      0.713786   105A      0.732560  
     106A      0.740091   107A      0.767552   108A      0.770931  
     109A      0.774998   110A      0.779760   111A      0.794024  
     112A      0.800774   113A      0.816394   114A      0.834135  
     115A      0.836271   116A      0.845512   117A      0.849068  
     118A      0.863404   119A      0.882075   120A      0.883217  
     121A      0.885796   122A      0.887924   123A      0.902687  
     124A      0.924863   125A      0.931174   126A      0.937513  
     127A      0.949396   128A      0.952753   129A      0.955558  
     130A      0.959475   131A      0.986021   132A      0.989362  
     133A      1.006199   134A      1.007323   135A      1.014459  
     136A      1.041708   137A      1.044666   138A      1.063612  
     139A      1.070553   140A      1.072009   141A      1.075442  
     142A      1.081250   143A      1.086754   144A      1.088666  
     145A      1.111626   146A      1.112679   147A      1.141152  
     148A      1.152415   149A      1.168056   150A      1.170497  
     151A      1.175670   152A      1.184972   153A      1.186718  
     154A      1.186744   155A      1.194621   156A      1.198061  
     157A      1.209731   158A      1.222093   159A      1.226566  
     160A      1.239715   161A      1.267680   162A      1.274627  
     163A      1.281487   164A      1.287963   165A      1.292127  
     166A      1.297305   167A      1.351160   168A      1.374387  
     169A      1.402901   170A      1.424060   171A      1.443659  
     172A      1.446910   173A      1.460447   174A      1.496055  
     175A      1.504434   176A      1.510898   177A      1.519260  
     178A      1.536355   179A      1.540651   180A      1.587537  
     181A      1.596956   182A      1.628235   183A      1.630759  
     184A      1.668306   185A      1.687436   186A      1.693152  
     187A      1.709519   188A      1.713369   189A      1.717632  
     190A      1.742644   191A      1.757934   192A      1.778870  
     193A      1.787449   194A      1.802818   195A      1.826757  
     196A      1.835074   197A      1.846245   198A      1.855589  
     199A      1.873040   200A      1.883007   201A      1.889608  
     202A      1.912911   203A      1.948869   204A      1.958997  
     205A      1.961667   206A      1.963459   207A      2.014012  
     208A      2.023423   209A      2.025697   210A      2.038149  
     211A      2.040233   212A      2.040683   213A      2.069983  
     214A      2.084207   215A      2.095578   216A      2.130215  
     217A      2.145277   218A      2.157422   219A      2.162147  
     220A      2.162392   221A      2.215004   222A      2.216399  
     223A      2.249582   224A      2.252358   225A      2.295417  
     226A      2.314593   227A      2.359540   228A      2.374760  
     229A      2.385714   230A      2.408416   231A      2.429468  
     232A      2.435465   233A      2.448974   234A      2.510380  
     235A      2.536030   236A      2.541790   237A      2.585029  
     238A      2.649122   239A      2.657292   240A      2.671859  
     241A      2.674868   242A      2.806859   243A      2.809531  
     244A      2.819092   245A      2.913266   246A      2.922707  
     247A      2.973897   248A      2.984404   249A      3.047932  
     250A      3.048334   251A      3.135947   252A      3.159624  
     253A      3.161580   254A      3.248442   255A      3.259939  
     256A      3.303750   257A      3.310447   258A      3.317446  
     259A      3.347497   260A      3.356896   261A      3.386017  
     262A      3.404973   263A      3.408602   264A      3.428968  
     265A      3.432107   266A      3.452653   267A      3.474262  
     268A      3.494292   269A      3.533858   270A      3.541767  
     271A      3.551658   272A      3.563910   273A      3.566138  
     274A      3.579783   275A      3.637633   276A      3.653327  
     277A      3.686638   278A      3.703092   279A      3.710663  
     280A      3.731141   281A      3.762844   282A      3.773336  
     283A      3.773637   284A      3.819874   285A      3.838754  
     286A      3.859248   287A      3.863892   288A      3.875442  
     289A      3.895085   290A      3.921647   291A      3.923650  
     292A      3.953947   293A      3.973102   294A      3.991170  
     295A      3.996352   296A      4.034418   297A      4.043659  
     298A      4.067561   299A      4.089003   300A      4.098786  
     301A      4.127620   302A      4.129073   303A      4.136464  
     304A      4.144493   305A      4.170314   306A      4.205747  
     307A      4.222078   308A      4.226560   309A      4.230594  
     310A      4.265981   311A      4.273391   312A      4.331252  
     313A      4.370829   314A      4.381362   315A      4.412582  
     316A      4.427799   317A      4.437598   318A      4.441067  
     319A      4.466740   320A      4.518199   321A      4.520074  
     322A      4.523884   323A      4.562746   324A      4.646816  
     325A      4.659847   326A      4.694745   327A      4.744914  
     328A      4.755763   329A      4.789838   330A      4.839199  
     331A      4.870383   332A      4.889191   333A      4.899399  
     334A      4.936076   335A      4.958540   336A      4.968084  
     337A      4.989009   338A      5.025637   339A      5.038334  
     340A      5.061590   341A      5.078135   342A      5.106941  
     343A      5.121579   344A      5.140229   345A      5.145604  
     346A      5.195510   347A      5.223712   348A      5.226701  
     349A      5.232102   350A      5.330237   351A      5.386678  
     352A      5.395764   353A      5.403438   354A      5.428387  
     355A      5.446670   356A      5.474374   357A      5.518507  
     358A      5.528406   359A      5.589260   360A      5.605090  
     361A      5.654847   362A      5.779642   363A      5.796615  
     364A      5.813915   365A      5.853567   366A      5.867458  
     367A      5.906896   368A      5.912722   369A      5.974655  
     370A      6.080526   371A      6.118296   372A      6.195659  
     373A      6.228609   374A      6.303374   375A      6.393431  
     376A      6.509820   377A      6.667702   378A      6.681144  
     379A      6.681306   380A      6.741399   381A      6.822545  
     382A      6.880839   383A      7.074534   384A      7.091533  
     385A      7.481243   386A     15.493191   387A     16.290813  
     388A     18.252530   389A     18.577505   390A     19.188713  
     391A     19.267321  

    Final Occupation by Irrep:
              A 
    DOCC [    21 ]

  @DF-RHF Final Energy:  -246.77866365840583

   => Energetics <=

    Nuclear Repulsion Energy =            206.2349289386929172
    One-Electron Energy =                -741.2473339125813254
    Two-Electron Energy =                 288.2337413154825185
    Total Energy =                       -246.7786636584058328

Computation Completed


Properties will be evaluated at   0.000000,   0.000000,   0.000000 [a0]

Properties computed using the SCF density matrix

  Nuclear Dipole Moment: [e a0]
     X:    67.8217      Y:   -12.9675      Z:    -3.1433

  Electronic Dipole Moment: [e a0]
     X:   -67.1819      Y:    13.6158      Z:     3.2427

  Dipole Moment: [e a0]
     X:     0.6397      Y:     0.6483      Z:     0.0995     Total:     0.9162

  Dipole Moment: [D]
     X:     1.6261      Y:     1.6478      Z:     0.2529     Total:     2.3288


*** tstop() called on node37.bme.utexas.edu at Sat Apr 11 17:47:15 2020
Module time:
	user time   =      41.24 seconds =       0.69 minutes
	system time =       2.60 seconds =       0.04 minutes
	total time  =          9 seconds =       0.15 minutes
Total time:
	user time   =      41.24 seconds =       0.69 minutes
	system time =       2.60 seconds =       0.04 minutes
	total time  =          9 seconds =       0.15 minutes

*** tstart() called on node37.bme.utexas.edu
*** at Sat Apr 11 17:47:15 2020


  //>>>>>>>>>>>>>>>>>>>>>>>>>>>>>>>>>>>//
  //               DFMP2               //
  //<<<<<<<<<<<<<<<<<<<<<<<<<<<<<<<<<<<//

   => Loading Basis Set <=

    Name: (AUG-CC-PVTZ AUX)
    Role: RIFIT
    Keyword: DF_BASIS_MP2
    atoms 1              entry N          line   206 file /home/liuchw/anaconda3/envs/psi4env/share/psi4/basis/aug-cc-pvtz-ri.gbs 
    atoms 2, 4, 6, 8, 10 entry C          line   148 file /home/liuchw/anaconda3/envs/psi4env/share/psi4/basis/aug-cc-pvtz-ri.gbs 
    atoms 3, 5, 7, 9, 11 entry H          line    30 file /home/liuchw/anaconda3/envs/psi4env/share/psi4/basis/aug-cc-pvtz-ri.gbs 

	 --------------------------------------------------------
	                          DF-MP2                         
	      2nd-Order Density-Fitted Moller-Plesset Theory     
	              RMP2 Wavefunction,   6 Threads             
	                                                         
	        Rob Parrish, Justin Turney, Andy Simmonett,      
	           Ed Hohenstein, and C. David Sherrill          
	 --------------------------------------------------------

   => Auxiliary Basis Set <=

  Basis Set: (AUG-CC-PVTZ AUX)
    Blend: AUG-CC-PVTZ-RI
    Number of shells: 238
    Number of basis function: 866
    Number of Cartesian functions: 1091
    Spherical Harmonics?: true
    Max angular momentum: 4

	 --------------------------------------------------------
	                 NBF =   391, NAUX =   866
	 --------------------------------------------------------
	   CLASS    FOCC     OCC    AOCC    AVIR     VIR    FVIR
	   PAIRS       0      21      21     370     370       0
	 --------------------------------------------------------

	-----------------------------------------------------------
	 ==================> DF-MP2 Energies <==================== 
	-----------------------------------------------------------
	 Reference Energy          =    -246.7786636584058328 [Eh]
	 Singles Energy            =      -0.0000000000000000 [Eh]
	 Same-Spin Energy          =      -0.2688005150993904 [Eh]
	 Opposite-Spin Energy      =      -0.8388284982263188 [Eh]
	 Correlation Energy        =      -1.1076290133257092 [Eh]
	 Total Energy              =    -247.8862926717315531 [Eh]
	-----------------------------------------------------------
	 ================> DF-SCS-MP2 Energies <================== 
	-----------------------------------------------------------
	 SCS Same-Spin Scale       =       0.3333333333333333 [-]
	 SCS Opposite-Spin Scale   =       1.2000000000000000 [-]
	 SCS Same-Spin Energy      =      -0.0896001716997968 [Eh]
	 SCS Opposite-Spin Energy  =      -1.0065941978715824 [Eh]
	 SCS Correlation Energy    =      -1.0961943695713792 [Eh]
	 SCS Total Energy          =    -247.8748580279772113 [Eh]
	-----------------------------------------------------------


*** tstop() called on node37.bme.utexas.edu at Sat Apr 11 17:47:19 2020
Module time:
	user time   =      17.14 seconds =       0.29 minutes
	system time =       1.31 seconds =       0.02 minutes
	total time  =          4 seconds =       0.07 minutes
Total time:
	user time   =      58.38 seconds =       0.97 minutes
	system time =       3.91 seconds =       0.07 minutes
	total time  =         13 seconds =       0.22 minutes

  //>>>>>>>>>>>>>>>>>>>>>>>>>>>>>>>>>>>>//
  // CBS Computation: MP2 / AUG-CC-PVQZ //
  //<<<<<<<<<<<<<<<<<<<<<<<<<<<<<<<<<<<<//


Scratch directory: /scratch//

*** tstart() called on node37.bme.utexas.edu
*** at Sat Apr 11 17:47:19 2020

   => Loading Basis Set <=

    Name: AUG-CC-PVQZ
    Role: ORBITAL
    Keyword: BASIS
    atoms 1              entry N          line   363 file /home/liuchw/anaconda3/envs/psi4env/share/psi4/basis/aug-cc-pvqz.gbs 
    atoms 2, 4, 6, 8, 10 entry C          line   303 file /home/liuchw/anaconda3/envs/psi4env/share/psi4/basis/aug-cc-pvqz.gbs 
    atoms 3, 5, 7, 9, 11 entry H          line    40 file /home/liuchw/anaconda3/envs/psi4env/share/psi4/basis/aug-cc-pvqz.gbs 


         ---------------------------------------------------------
                                   SCF
               by Justin Turney, Rob Parrish, Andy Simmonett
                          and Daniel G. A. Smith
                              RHF Reference
                        6 Threads,  38146 MiB Core
         ---------------------------------------------------------

  ==> Geometry <==

    Molecular point group: c1
    Full point group: C1

    Geometry (in Angstrom), charge = 0, multiplicity = 1:

       Center              X                  Y                   Z               Mass       
    ------------   -----------------  -----------------  -----------------  -----------------
         N           -0.143300925638    -1.163333209323    -0.191955445223    14.003074004430
         C            0.195135074362    -0.350989209323    -1.203668445223    12.000000000000
         H           -0.347531925638    -0.495527209323    -2.129049445223     1.007825032230
         C            1.166464074362     0.641144790677    -1.103301445223    12.000000000000
         H            1.391317074362     1.265484790677    -1.956151445223     1.007825032230
         C            1.827304074362     0.810685790677     0.108963554777    12.000000000000
         H            2.585158074362     1.572922790677     0.225347554777     1.007825032230
         C            1.487171074362    -0.024276209323     1.168086554777    12.000000000000
         H            1.969760074362     0.066185790677     2.130787554777     1.007825032230
         C            0.503390074362    -0.989065209323     0.968902554777    12.000000000000
         H            0.217306074362    -1.652813209323     1.775513554777     1.007825032230

  Running in c1 symmetry.

  Rotational constants: A =      0.14732  B =      0.11664  C =      0.08545 [cm^-1]
  Rotational constants: A =   4416.66375  B =   3496.84371  C =   2561.77288 [MHz]
  Nuclear repulsion =  206.234928938692917

  Charge       = 0
  Multiplicity = 1
  Electrons    = 42
  Nalpha       = 21
  Nbeta        = 21

  ==> Algorithm <==

  SCF Algorithm Type is DF.
  DIIS enabled.
  MOM disabled.
  Fractional occupation disabled.
  Guess Type is SAD.
  Energy threshold   = 1.00e-07
  Density threshold  = 1.00e-08
  Integral threshold = 0.00e+00

  ==> Primary Basis <==

  Basis Set: AUG-CC-PVQZ
    Blend: AUG-CC-PVQZ
    Number of shells: 190
    Number of basis function: 710
    Number of Cartesian functions: 905
    Spherical Harmonics?: true
    Max angular momentum: 4

   => Loading Basis Set <=

    Name: (AUG-CC-PVQZ AUX)
    Role: JKFIT
    Keyword: DF_BASIS_SCF
    atoms 1              entry N          line   248 file /home/liuchw/anaconda3/envs/psi4env/share/psi4/basis/aug-cc-pvqz-jkfit.gbs 
    atoms 2, 4, 6, 8, 10 entry C          line   178 file /home/liuchw/anaconda3/envs/psi4env/share/psi4/basis/aug-cc-pvqz-jkfit.gbs 
    atoms 3, 5, 7, 9, 11 entry H          line    70 file /home/liuchw/anaconda3/envs/psi4env/share/psi4/basis/aug-cc-pvqz-jkfit.gbs 

  ==> Pre-Iterations <==

   -------------------------------------------------------
    Irrep   Nso     Nmo     Nalpha   Nbeta   Ndocc  Nsocc
   -------------------------------------------------------
     A        710     710       0       0       0       0
   -------------------------------------------------------
    Total     710     710      21      21      21       0
   -------------------------------------------------------

  ==> Integral Setup <==

  DFHelper Memory: AOs need 4.659 GiB; user supplied 27.940 GiB. Using in-core AOs.

  ==> MemDFJK: Density-Fitted J/K Matrices <==

    J tasked:                   Yes
    K tasked:                   Yes
    wK tasked:                   No
    OpenMP threads:               6
    Memory [MiB]:             28610
    Algorithm:                 Core
    Schwarz Cutoff:           1E-12
    Mask sparsity (%):       2.7134
    Fitting Condition:        1E-10

   => Auxiliary Basis Set <=

  Basis Set: (AUG-CC-PVQZ AUX)
    Blend: AUG-CC-PVQZ-JKFIT
    Number of shells: 294
    Number of basis function: 1232
    Number of Cartesian functions: 1693
    Spherical Harmonics?: true
    Max angular momentum: 5

  Minimum eigenvalue in the overlap matrix is 6.9055356536E-07.
  Using Symmetric Orthogonalization.

  SCF Guess: Superposition of Atomic Densities via on-the-fly atomic UHF.

  ==> Iterations <==

                           Total Energy        Delta E     RMS |[F,P]|

   @DF-RHF iter SAD:  -246.16764973091904   -2.46168e+02   0.00000e+00 
   @DF-RHF iter   1:  -246.64667571350853   -4.79026e-01   6.98971e-04 DIIS
   @DF-RHF iter   2:  -246.76710648656098   -1.20431e-01   3.21044e-04 DIIS
   @DF-RHF iter   3:  -246.79131724668909   -2.42108e-02   6.25825e-05 DIIS
   @DF-RHF iter   4:  -246.79271438544930   -1.39714e-03   1.78927e-05 DIIS
   @DF-RHF iter   5:  -246.79279381653333   -7.94311e-05   6.12629e-06 DIIS
   @DF-RHF iter   6:  -246.79280484542889   -1.10289e-05   1.37498e-06 DIIS
   @DF-RHF iter   7:  -246.79280561579387   -7.70365e-07   4.70718e-07 DIIS
   @DF-RHF iter   8:  -246.79280570825705   -9.24632e-08   1.99300e-07 DIIS
   @DF-RHF iter   9:  -246.79280573515987   -2.69028e-08   5.60939e-08 DIIS
   @DF-RHF iter  10:  -246.79280573839031   -3.23044e-09   2.05587e-08 DIIS
   @DF-RHF iter  11:  -246.79280573898876   -5.98448e-10   1.23609e-08 DIIS
   @DF-RHF iter  12:  -246.79280573915938   -1.70616e-10   3.91096e-09 DIIS
  Energy and wave function converged.


  ==> Post-Iterations <==

    Orbital Energies [Eh]
    ---------------------

    Doubly Occupied:                                                      

       1A    -15.565148     2A    -11.274389     3A    -11.274359  
       4A    -11.259632     5A    -11.241456     6A    -11.241399  
       7A     -1.256138     8A     -1.089737     9A     -1.033914  
      10A     -0.859684    11A     -0.856022    12A     -0.722448  
      13A     -0.660856    14A     -0.654756    15A     -0.599023  
      16A     -0.577622    17A     -0.541513    18A     -0.520608  
      19A     -0.419788    20A     -0.384242    21A     -0.348386  

    Virtual:                                                              

      22A      0.023002    23A      0.028861    24A      0.033240  
      25A      0.043055    26A      0.047143    27A      0.066001  
      28A      0.081776    29A      0.087666    30A      0.088963  
      31A      0.091294    32A      0.095121    33A      0.095946  
      34A      0.097185    35A      0.099914    36A      0.102426  
      37A      0.112986    38A      0.114984    39A      0.124439  
      40A      0.127445    41A      0.128233    42A      0.132060  
      43A      0.133613    44A      0.137013    45A      0.170315  
      46A      0.186520    47A      0.205037    48A      0.210250  
      49A      0.211606    50A      0.215913    51A      0.221512  
      52A      0.228846    53A      0.237147    54A      0.244860  
      55A      0.245489    56A      0.253970    57A      0.254154  
      58A      0.254254    59A      0.266528    60A      0.280516  
      61A      0.286069    62A      0.289992    63A      0.293963  
      64A      0.296354    65A      0.300179    66A      0.301089  
      67A      0.309466    68A      0.318651    69A      0.318980  
      70A      0.319894    71A      0.338360    72A      0.350131  
      73A      0.351211    74A      0.362416    75A      0.365012  
      76A      0.368657    77A      0.369046    78A      0.384189  
      79A      0.386006    80A      0.399987    81A      0.400859  
      82A      0.419793    83A      0.423490    84A      0.424818  
      85A      0.427253    86A      0.430074    87A      0.435126  
      88A      0.437230    89A      0.440353    90A      0.455638  
      91A      0.459397    92A      0.467552    93A      0.470637  
      94A      0.471287    95A      0.490559    96A      0.490993  
      97A      0.505683    98A      0.506751    99A      0.512929  
     100A      0.518014   101A      0.518924   102A      0.530443  
     103A      0.542103   104A      0.567026   105A      0.567382  
     106A      0.572433   107A      0.580269   108A      0.582286  
     109A      0.587459   110A      0.602886   111A      0.610560  
     112A      0.611407   113A      0.623338   114A      0.645248  
     115A      0.656319   116A      0.659283   117A      0.663027  
     118A      0.667843   119A      0.669474   120A      0.675008  
     121A      0.702885   122A      0.704807   123A      0.706932  
     124A      0.719947   125A      0.731339   126A      0.734905  
     127A      0.736241   128A      0.744364   129A      0.748848  
     130A      0.758042   131A      0.765225   132A      0.778127  
     133A      0.781087   134A      0.787528   135A      0.791303  
     136A      0.797836   137A      0.801337   138A      0.801756  
     139A      0.809658   140A      0.823059   141A      0.834103  
     142A      0.840109   143A      0.843217   144A      0.849530  
     145A      0.854985   146A      0.860294   147A      0.891791  
     148A      0.892545   149A      0.899120   150A      0.902999  
     151A      0.920511   152A      0.926854   153A      0.933303  
     154A      0.937292   155A      0.950745   156A      0.951451  
     157A      0.953774   158A      0.962361   159A      0.963738  
     160A      0.966688   161A      0.977351   162A      0.988349  
     163A      0.989728   164A      1.001390   165A      1.023230  
     166A      1.027594   167A      1.046871   168A      1.057841  
     169A      1.082421   170A      1.090412   171A      1.092411  
     172A      1.111095   173A      1.124196   174A      1.131295  
     175A      1.142117   176A      1.162540   177A      1.166430  
     178A      1.178971   179A      1.182200   180A      1.182324  
     181A      1.194184   182A      1.212728   183A      1.228691  
     184A      1.229952   185A      1.230612   186A      1.248847  
     187A      1.259091   188A      1.260955   189A      1.299889  
     190A      1.301283   191A      1.317577   192A      1.317854  
     193A      1.330297   194A      1.330347   195A      1.355325  
     196A      1.365130   197A      1.371305   198A      1.381332  
     199A      1.384311   200A      1.389256   201A      1.396187  
     202A      1.402899   203A      1.419904   204A      1.421023  
     205A      1.426095   206A      1.434284   207A      1.459461  
     208A      1.471591   209A      1.495118   210A      1.515852  
     211A      1.526952   212A      1.542592   213A      1.546666  
     214A      1.547770   215A      1.548826   216A      1.553220  
     217A      1.556695   218A      1.571759   219A      1.579870  
     220A      1.583557   221A      1.587559   222A      1.600989  
     223A      1.608566   224A      1.613923   225A      1.620679  
     226A      1.626412   227A      1.645051   228A      1.670550  
     229A      1.672608   230A      1.698788   231A      1.720940  
     232A      1.729637   233A      1.734311   234A      1.739423  
     235A      1.748818   236A      1.773015   237A      1.780265  
     238A      1.797919   239A      1.836000   240A      1.836262  
     241A      1.837069   242A      1.851018   243A      1.855335  
     244A      1.862729   245A      1.909126   246A      1.910253  
     247A      1.922048   248A      1.933079   249A      1.937444  
     250A      1.937919   251A      1.972673   252A      1.975308  
     253A      1.977033   254A      1.991046   255A      1.994555  
     256A      2.003479   257A      2.007551   258A      2.010929  
     259A      2.014815   260A      2.039323   261A      2.048929  
     262A      2.059880   263A      2.068753   264A      2.074894  
     265A      2.081433   266A      2.084301   267A      2.092378  
     268A      2.099643   269A      2.122270   270A      2.127381  
     271A      2.151556   272A      2.152511   273A      2.153800  
     274A      2.167729   275A      2.190881   276A      2.197048  
     277A      2.231279   278A      2.238312   279A      2.240969  
     280A      2.250273   281A      2.254573   282A      2.259509  
     283A      2.275710   284A      2.278580   285A      2.279304  
     286A      2.294424   287A      2.302996   288A      2.305380  
     289A      2.315671   290A      2.337622   291A      2.339855  
     292A      2.344063   293A      2.366629   294A      2.376376  
     295A      2.382750   296A      2.385599   297A      2.387474  
     298A      2.414466   299A      2.416978   300A      2.423829  
     301A      2.425085   302A      2.448302   303A      2.458528  
     304A      2.468573   305A      2.469353   306A      2.469987  
     307A      2.484988   308A      2.509012   309A      2.509849  
     310A      2.515987   311A      2.528907   312A      2.559851  
     313A      2.561004   314A      2.568734   315A      2.574779  
     316A      2.576256   317A      2.588033   318A      2.594216  
     319A      2.596072   320A      2.612305   321A      2.627178  
     322A      2.631289   323A      2.633597   324A      2.707537  
     325A      2.708927   326A      2.709624   327A      2.726930  
     328A      2.759607   329A      2.763453   330A      2.770278  
     331A      2.772488   332A      2.784697   333A      2.802809  
     334A      2.804721   335A      2.805026   336A      2.819937  
     337A      2.838393   338A      2.859293   339A      2.881665  
     340A      2.904144   341A      2.905926   342A      2.930622  
     343A      2.943958   344A      2.965444   345A      2.997096  
     346A      3.006062   347A      3.017956   348A      3.028131  
     349A      3.028952   350A      3.029917   351A      3.072423  
     352A      3.077666   353A      3.097618   354A      3.135037  
     355A      3.137892   356A      3.138994   357A      3.147511  
     358A      3.168325   359A      3.211934   360A      3.215095  
     361A      3.229448   362A      3.234713   363A      3.269888  
     364A      3.274662   365A      3.298423   366A      3.303020  
     367A      3.311977   368A      3.314265   369A      3.339790  
     370A      3.352448   371A      3.360988   372A      3.374463  
     373A      3.379888   374A      3.390699   375A      3.446177  
     376A      3.454628   377A      3.465128   378A      3.503271  
     379A      3.524713   380A      3.528293   381A      3.547744  
     382A      3.571899   383A      3.603969   384A      3.604777  
     385A      3.629715   386A      3.654851   387A      3.668740  
     388A      3.677324   389A      3.678440   390A      3.713710  
     391A      3.720408   392A      3.726549   393A      3.747435  
     394A      3.748328   395A      3.795926   396A      3.821465  
     397A      3.835347   398A      3.854285   399A      3.879409  
     400A      3.888893   401A      3.895674   402A      3.919899  
     403A      3.926084   404A      3.929206   405A      3.933967  
     406A      3.962384   407A      3.967813   408A      3.974090  
     409A      4.014550   410A      4.030887   411A      4.033577  
     412A      4.046384   413A      4.052010   414A      4.085258  
     415A      4.124657   416A      4.140881   417A      4.144171  
     418A      4.152466   419A      4.157714   420A      4.192323  
     421A      4.202978   422A      4.252318   423A      4.268443  
     424A      4.270142   425A      4.324216   426A      4.325213  
     427A      4.339491   428A      4.371073   429A      4.377006  
     430A      4.402398   431A      4.405206   432A      4.435339  
     433A      4.438424   434A      4.466201   435A      4.471132  
     436A      4.496448   437A      4.502810   438A      4.510970  
     439A      4.549856   440A      4.566547   441A      4.567944  
     442A      4.576967   443A      4.607856   444A      4.618343  
     445A      4.668439   446A      4.691559   447A      4.698926  
     448A      4.723308   449A      4.744528   450A      4.789074  
     451A      4.826573   452A      4.855288   453A      4.884997  
     454A      4.896878   455A      4.907115   456A      4.932081  
     457A      4.974090   458A      4.997600   459A      5.000447  
     460A      5.026788   461A      5.036134   462A      5.070253  
     463A      5.118352   464A      5.146678   465A      5.199841  
     466A      5.219266   467A      5.240487   468A      5.299511  
     469A      5.373730   470A      5.408338   471A      5.431411  
     472A      5.445971   473A      5.471932   474A      5.546722  
     475A      5.619444   476A      5.700474   477A      5.739605  
     478A      5.798463   479A      5.799577   480A      5.827891  
     481A      5.847231   482A      5.889944   483A      5.916246  
     484A      5.986969   485A      6.008796   486A      6.043855  
     487A      6.052107   488A      6.079486   489A      6.099698  
     490A      6.121204   491A      6.132140   492A      6.154096  
     493A      6.156945   494A      6.185008   495A      6.216415  
     496A      6.306583   497A      6.309075   498A      6.324033  
     499A      6.378585   500A      6.384447   501A      6.414197  
     502A      6.428555   503A      6.465475   504A      6.472272  
     505A      6.515078   506A      6.545601   507A      6.584129  
     508A      6.588496   509A      6.592439   510A      6.601456  
     511A      6.615312   512A      6.637160   513A      6.638527  
     514A      6.650755   515A      6.653213   516A      6.667931  
     517A      6.683732   518A      6.710318   519A      6.752455  
     520A      6.774746   521A      6.794472   522A      6.802894  
     523A      6.820939   524A      6.854488   525A      6.863037  
     526A      6.890163   527A      6.900151   528A      6.904132  
     529A      6.936875   530A      6.956417   531A      6.980159  
     532A      7.000775   533A      7.022119   534A      7.023537  
     535A      7.031897   536A      7.053212   537A      7.063531  
     538A      7.080885   539A      7.091421   540A      7.123131  
     541A      7.147772   542A      7.149380   543A      7.166593  
     544A      7.185754   545A      7.199803   546A      7.216737  
     547A      7.217150   548A      7.242584   549A      7.284839  
     550A      7.290989   551A      7.325321   552A      7.326951  
     553A      7.343036   554A      7.387059   555A      7.395590  
     556A      7.400204   557A      7.405796   558A      7.437557  
     559A      7.464403   560A      7.503664   561A      7.521245  
     562A      7.569231   563A      7.581971   564A      7.589459  
     565A      7.631898   566A      7.640191   567A      7.643664  
     568A      7.682517   569A      7.715104   570A      7.745155  
     571A      7.770362   572A      7.774675   573A      7.781401  
     574A      7.810460   575A      7.838806   576A      7.857408  
     577A      7.878077   578A      7.927588   579A      7.944342  
     580A      8.001600   581A      8.007041   582A      8.017626  
     583A      8.028565   584A      8.063825   585A      8.072243  
     586A      8.093521   587A      8.145469   588A      8.147172  
     589A      8.151539   590A      8.279131   591A      8.303129  
     592A      8.322905   593A      8.354119   594A      8.364420  
     595A      8.381999   596A      8.458772   597A      8.490462  
     598A      8.523111   599A      8.545498   600A      8.618888  
     601A      8.619432   602A      8.639700   603A      8.665154  
     604A      8.696952   605A      8.698485   606A      8.708127  
     607A      8.718618   608A      8.810689   609A      8.822946  
     610A      8.858860   611A      8.874332   612A      8.891119  
     613A      8.891461   614A      8.937781   615A      8.945169  
     616A      8.957149   617A      8.959524   618A      8.963140  
     619A      9.040213   620A      9.049359   621A      9.080108  
     622A      9.119382   623A      9.141920   624A      9.173710  
     625A      9.195095   626A      9.203635   627A      9.218580  
     628A      9.257208   629A      9.328572   630A      9.354873  
     631A      9.394205   632A      9.399749   633A      9.417823  
     634A      9.447267   635A      9.500029   636A      9.549460  
     637A      9.553400   638A      9.554794   639A      9.593652  
     640A      9.596336   641A      9.609949   642A      9.649822  
     643A      9.702997   644A      9.722197   645A      9.725281  
     646A      9.738499   647A      9.795777   648A      9.866691  
     649A      9.900878   650A      9.963593   651A      9.963955  
     652A      9.965333   653A      9.983628   654A     10.010049  
     655A     10.016229   656A     10.028266   657A     10.093077  
     658A     10.216875   659A     10.232412   660A     10.234859  
     661A     10.245239   662A     10.291965   663A     10.319021  
     664A     10.332231   665A     10.382940   666A     10.392461  
     667A     10.466019   668A     10.476620   669A     10.498799  
     670A     10.505941   671A     10.512563   672A     10.579949  
     673A     10.638397   674A     10.654617   675A     10.719152  
     676A     10.764739   677A     10.769506   678A     10.777338  
     679A     10.795242   680A     10.845969   681A     10.881880  
     682A     11.052748   683A     11.067976   684A     11.195953  
     685A     11.197900   686A     11.365923   687A     11.377391  
     688A     11.448036   689A     11.454141   690A     11.566591  
     691A     11.637804   692A     11.668825   693A     11.697147  
     694A     11.772048   695A     11.898791   696A     12.288717  
     697A     12.490544   698A     12.730757   699A     12.843422  
     700A     13.203694   701A     13.369060   702A     13.378845  
     703A     13.522829   704A     13.572880   705A     26.166033  
     706A     26.285074   707A     26.523513   708A     26.941306  
     709A     27.185820   710A     34.207880  

    Final Occupation by Irrep:
              A 
    DOCC [    21 ]

  @DF-RHF Final Energy:  -246.79280573915938

   => Energetics <=

    Nuclear Repulsion Energy =            206.2349289386929172
    One-Electron Energy =                -741.2932282974450118
    Two-Electron Energy =                 288.2654936195926325
    Total Energy =                       -246.7928057391594052

Computation Completed


Properties will be evaluated at   0.000000,   0.000000,   0.000000 [a0]

Properties computed using the SCF density matrix

  Nuclear Dipole Moment: [e a0]
     X:    67.8217      Y:   -12.9675      Z:    -3.1433

  Electronic Dipole Moment: [e a0]
     X:   -67.1825      Y:    13.6152      Z:     3.2427

  Dipole Moment: [e a0]
     X:     0.6392      Y:     0.6478      Z:     0.0994     Total:     0.9154

  Dipole Moment: [D]
     X:     1.6247      Y:     1.6464      Z:     0.2526     Total:     2.3268


*** tstop() called on node37.bme.utexas.edu at Sat Apr 11 17:47:55 2020
Module time:
	user time   =     175.83 seconds =       2.93 minutes
	system time =      11.13 seconds =       0.19 minutes
	total time  =         36 seconds =       0.60 minutes
Total time:
	user time   =     234.25 seconds =       3.90 minutes
	system time =      15.04 seconds =       0.25 minutes
	total time  =         49 seconds =       0.82 minutes

*** tstart() called on node37.bme.utexas.edu
*** at Sat Apr 11 17:47:55 2020


  //>>>>>>>>>>>>>>>>>>>>>>>>>>>>>>>>>>>//
  //               DFMP2               //
  //<<<<<<<<<<<<<<<<<<<<<<<<<<<<<<<<<<<//

   => Loading Basis Set <=

    Name: (AUG-CC-PVQZ AUX)
    Role: RIFIT
    Keyword: DF_BASIS_MP2
    atoms 1              entry N          line   258 file /home/liuchw/anaconda3/envs/psi4env/share/psi4/basis/aug-cc-pvqz-ri.gbs 
    atoms 2, 4, 6, 8, 10 entry C          line   184 file /home/liuchw/anaconda3/envs/psi4env/share/psi4/basis/aug-cc-pvqz-ri.gbs 
    atoms 3, 5, 7, 9, 11 entry H          line    30 file /home/liuchw/anaconda3/envs/psi4env/share/psi4/basis/aug-cc-pvqz-ri.gbs 

	 --------------------------------------------------------
	                          DF-MP2                         
	      2nd-Order Density-Fitted Moller-Plesset Theory     
	              RMP2 Wavefunction,   6 Threads             
	                                                         
	        Rob Parrish, Justin Turney, Andy Simmonett,      
	           Ed Hohenstein, and C. David Sherrill          
	 --------------------------------------------------------

   => Auxiliary Basis Set <=

  Basis Set: (AUG-CC-PVQZ AUX)
    Blend: AUG-CC-PVQZ-RI
    Number of shells: 316
    Number of basis function: 1408
    Number of Cartesian functions: 1947
    Spherical Harmonics?: true
    Max angular momentum: 5

	 --------------------------------------------------------
	                 NBF =   710, NAUX =  1408
	 --------------------------------------------------------
	   CLASS    FOCC     OCC    AOCC    AVIR     VIR    FVIR
	   PAIRS       0      21      21     689     689       0
	 --------------------------------------------------------

	-----------------------------------------------------------
	 ==================> DF-MP2 Energies <==================== 
	-----------------------------------------------------------
	 Reference Energy          =    -246.7928057391593768 [Eh]
	 Singles Energy            =      -0.0000000000000000 [Eh]
	 Same-Spin Energy          =      -0.2841753551899664 [Eh]
	 Opposite-Spin Energy      =      -0.9424030151881483 [Eh]
	 Correlation Energy        =      -1.2265783703781148 [Eh]
	 Total Energy              =    -248.0193841095374978 [Eh]
	-----------------------------------------------------------
	 ================> DF-SCS-MP2 Energies <================== 
	-----------------------------------------------------------
	 SCS Same-Spin Scale       =       0.3333333333333333 [-]
	 SCS Opposite-Spin Scale   =       1.2000000000000000 [-]
	 SCS Same-Spin Energy      =      -0.0947251183966555 [Eh]
	 SCS Opposite-Spin Energy  =      -1.1308836182257780 [Eh]
	 SCS Correlation Energy    =      -1.2256087366224335 [Eh]
	 SCS Total Energy          =    -248.0184144757818103 [Eh]
	-----------------------------------------------------------


*** tstop() called on node37.bme.utexas.edu at Sat Apr 11 17:48:15 2020
Module time:
	user time   =      73.94 seconds =       1.23 minutes
	system time =       6.47 seconds =       0.11 minutes
	total time  =         20 seconds =       0.33 minutes
Total time:
	user time   =     308.19 seconds =       5.14 minutes
	system time =      21.51 seconds =       0.36 minutes
	total time  =         69 seconds =       1.15 minutes

  //>>>>>>>>>>>>>>>>>>>>>>>>>>>>>>>>>>>//
  //  CBS Results: mp2/aug-cc-pv[tq]z  //
  //<<<<<<<<<<<<<<<<<<<<<<<<<<<<<<<<<<<//


   ==> HF <==

   HI-zeta (4) Energy:               -246.792805739159


   ==> Helgaker 2-point correlated extrapolation for method: MP2 <==

   LO-zeta (3) Energy:               -247.886292671732
   HI-zeta (4) Energy:               -248.019384109537
   Alpha (exponent) Value:             3.000000000000
   Extrapolated Energy:              -248.116504888477

   @Extrapolated MP2/(T,Q):          -248.116504888477



   ==> Helgaker 2-point correlated extrapolation for method: HF <==

   LO-zeta (3) Energy:               -246.778663658406
   HI-zeta (4) Energy:               -246.792805739159
   Alpha (exponent) Value:             3.000000000000
   Extrapolated Energy:              -246.803125635926

   @Extrapolated HF/(T,Q):           -246.803125635926


   ==> Components <==

  ---------------------------------------------------------------------------------------------------------
                          Method / Basis                      Rqd      Energy [Eh]   Variable
  ---------------------------------------------------------------------------------------------------------
                              hf / aug-cc-pvtz                  *    -246.77866366   HF TOTAL ENERGY
                             mp2 / aug-cc-pvtz                  *    -247.88629267   MP2 TOTAL ENERGY
                              hf / aug-cc-pvqz                  *    -246.79280574   HF TOTAL ENERGY
                             mp2 / aug-cc-pvqz                  *    -248.01938411   MP2 TOTAL ENERGY
  ---------------------------------------------------------------------------------------------------------

   ==> Stages <==

  ---------------------------------------------------------------------------------------------------------
      Stage               Method / Basis                       Wt      Energy [Eh]   Scheme
  ---------------------------------------------------------------------------------------------------------
        scf                   hf / aug-cc-pvqz                  1    -246.79280574   xtpl_highest_1
       corl                  mp2 / aug-cc-pv[tq]z               1    -248.11650489   corl_xtpl_helgaker_2
       corl                   hf / aug-cc-pv[tq]z              -1    -246.80312564   corl_xtpl_helgaker_2
  ---------------------------------------------------------------------------------------------------------

   ==> CBS <==

  ---------------------------------------------------------------------------------------------------------
      Stage               Method / Basis                               Energy [Eh]   Scheme
  ---------------------------------------------------------------------------------------------------------
        scf                   hf / aug-cc-pvqz                       -246.79280574   xtpl_highest_1
       corl                  mp2 / aug-cc-pv[tq]z                      -1.31337925   corl_xtpl_helgaker_2
      total                  CBS                                     -248.10618499   
  ---------------------------------------------------------------------------------------------------------
   => Loading Basis Set <=

    Name: DEF2-SVP
    Role: ORBITAL
    Keyword: BASIS
    atoms 1              entry N          line   110 file /home/liuchw/anaconda3/envs/psi4env/share/psi4/basis/def2-svp.gbs 
    atoms 2, 4, 6, 8, 10 entry C          line    90 file /home/liuchw/anaconda3/envs/psi4env/share/psi4/basis/def2-svp.gbs 
    atoms 3, 5, 7, 9, 11 entry H          line    15 file /home/liuchw/anaconda3/envs/psi4env/share/psi4/basis/def2-svp.gbs 


       N-Body: Complex Energy (fragments = (2,), basis = (2,):  -248.10618499171088)

       N-Body: Computing complex (2/4) with fragments (2,) in the basis of fragments (1, 2).


Scratch directory: /scratch//

  //>>>>>>>>>>>>>>>>>>>>>>>>>>>>>>>>>>>//
  //   CBS Setup: mp2/aug-cc-pv[tq]z   //
  //<<<<<<<<<<<<<<<<<<<<<<<<<<<<<<<<<<<//

    Naive listing of computations required.
             hf / aug-cc-pvqz              for  HF TOTAL ENERGY
            mp2 / aug-cc-pvtz              for  MP2 TOTAL ENERGY
            mp2 / aug-cc-pvqz              for  MP2 TOTAL ENERGY
             hf / aug-cc-pvtz              for  HF TOTAL ENERGY
             hf / aug-cc-pvqz              for  HF TOTAL ENERGY

    Enlightened listing of computations required.
            mp2 / aug-cc-pvtz              for  MP2 TOTAL ENERGY
            mp2 / aug-cc-pvqz              for  MP2 TOTAL ENERGY

    Full listing of computations to be obtained (required and bonus).
             hf / aug-cc-pvtz              for  HF TOTAL ENERGY
            mp2 / aug-cc-pvtz              for  MP2 TOTAL ENERGY
             hf / aug-cc-pvqz              for  HF TOTAL ENERGY
            mp2 / aug-cc-pvqz              for  MP2 TOTAL ENERGY

  //>>>>>>>>>>>>>>>>>>>>>>>>>>>>>>>>>>>>//
  // CBS Computation: MP2 / AUG-CC-PVTZ //
  //<<<<<<<<<<<<<<<<<<<<<<<<<<<<<<<<<<<<//


Scratch directory: /scratch//

*** tstart() called on node37.bme.utexas.edu
*** at Sat Apr 11 17:48:17 2020

   => Loading Basis Set <=

    Name: AUG-CC-PVTZ
    Role: ORBITAL
    Keyword: BASIS
    atoms 1, 8                         entry N          line   285 file /home/liuchw/anaconda3/envs/psi4env/share/psi4/basis/aug-cc-pvtz.gbs 
    atoms 2-3, 5-7, 10, 12, 14, 16, 18 entry H          line    40 file /home/liuchw/anaconda3/envs/psi4env/share/psi4/basis/aug-cc-pvtz.gbs 
    atoms 4, 9, 11, 13, 15, 17         entry C          line   239 file /home/liuchw/anaconda3/envs/psi4env/share/psi4/basis/aug-cc-pvtz.gbs 


         ---------------------------------------------------------
                                   SCF
               by Justin Turney, Rob Parrish, Andy Simmonett
                          and Daniel G. A. Smith
                              RHF Reference
                        6 Threads,  38146 MiB Core
         ---------------------------------------------------------

  ==> Geometry <==

    Molecular point group: c1
    Full point group: C1

    Geometry (in Angstrom), charge = 0, multiplicity = 1:

       Center              X                  Y                   Z               Mass       
    ------------   -----------------  -----------------  -----------------  -----------------
      Gh(N)          -2.352074925638    -0.015742209323    -0.383794445223    14.003074004430
      Gh(H)          -1.755462925638    -0.831436209323    -0.305092445223     1.007825032230
      Gh(H)          -3.280684925638    -0.320026209323    -0.121656445223     1.007825032230
      Gh(C)          -1.889814925638     0.997071790677     0.563659554777    12.000000000000
      Gh(H)          -2.531168925638     1.874095790677     0.497180554777     1.007825032230
      Gh(H)          -1.861773925638     0.678504790677     1.610715554777     1.007825032230
      Gh(H)          -0.884584925638     1.311285790677     0.287199554777     1.007825032230
         N           -0.143300925638    -1.163333209323    -0.191955445223    14.003074004430
         C            0.195135074362    -0.350989209323    -1.203668445223    12.000000000000
         H           -0.347531925638    -0.495527209323    -2.129049445223     1.007825032230
         C            1.166464074362     0.641144790677    -1.103301445223    12.000000000000
         H            1.391317074362     1.265484790677    -1.956151445223     1.007825032230
         C            1.827304074362     0.810685790677     0.108963554777    12.000000000000
         H            2.585158074362     1.572922790677     0.225347554777     1.007825032230
         C            1.487171074362    -0.024276209323     1.168086554777    12.000000000000
         H            1.969760074362     0.066185790677     2.130787554777     1.007825032230
         C            0.503390074362    -0.989065209323     0.968902554777    12.000000000000
         H            0.217306074362    -1.652813209323     1.775513554777     1.007825032230

  Running in c1 symmetry.

  Rotational constants: A =      0.10854  B =      0.05370  C =      0.05080 [cm^-1]
  Rotational constants: A =   3253.95828  B =   1609.84071  C =   1523.05417 [MHz]
  Nuclear repulsion =  206.234928938692917

  Charge       = 0
  Multiplicity = 1
  Electrons    = 42
  Nalpha       = 21
  Nbeta        = 21

  ==> Algorithm <==

  SCF Algorithm Type is DF.
  DIIS enabled.
  MOM disabled.
  Fractional occupation disabled.
  Guess Type is SAD.
  Energy threshold   = 1.00e-07
  Density threshold  = 1.00e-08
  Integral threshold = 0.00e+00

  ==> Primary Basis <==

  Basis Set: AUG-CC-PVTZ
    Blend: AUG-CC-PVTZ
    Number of shells: 202
    Number of basis function: 598
    Number of Cartesian functions: 690
    Spherical Harmonics?: true
    Max angular momentum: 3

   => Loading Basis Set <=

    Name: (AUG-CC-PVTZ AUX)
    Role: JKFIT
    Keyword: DF_BASIS_SCF
    atoms 1, 8                         entry N          line   224 file /home/liuchw/anaconda3/envs/psi4env/share/psi4/basis/aug-cc-pvtz-jkfit.gbs 
    atoms 2-3, 5-7, 10, 12, 14, 16, 18 entry H          line    70 file /home/liuchw/anaconda3/envs/psi4env/share/psi4/basis/aug-cc-pvtz-jkfit.gbs 
    atoms 4, 9, 11, 13, 15, 17         entry C          line   162 file /home/liuchw/anaconda3/envs/psi4env/share/psi4/basis/aug-cc-pvtz-jkfit.gbs 

  ==> Pre-Iterations <==

   -------------------------------------------------------
    Irrep   Nso     Nmo     Nalpha   Nbeta   Ndocc  Nsocc
   -------------------------------------------------------
     A        598     598       0       0       0       0
   -------------------------------------------------------
    Total     598     598      21      21      21       0
   -------------------------------------------------------

  ==> Integral Setup <==

  DFHelper Memory: AOs need 3.458 GiB; user supplied 27.940 GiB. Using in-core AOs.

  ==> MemDFJK: Density-Fitted J/K Matrices <==

    J tasked:                   Yes
    K tasked:                   Yes
    wK tasked:                   No
    OpenMP threads:               6
    Memory [MiB]:             28610
    Algorithm:                 Core
    Schwarz Cutoff:           1E-12
    Mask sparsity (%):       2.4591
    Fitting Condition:        1E-10

   => Auxiliary Basis Set <=

  Basis Set: (AUG-CC-PVTZ AUX)
    Blend: AUG-CC-PVTZ-JKFIT
    Number of shells: 380
    Number of basis function: 1292
    Number of Cartesian functions: 1598
    Spherical Harmonics?: true
    Max angular momentum: 4

  Minimum eigenvalue in the overlap matrix is 1.5353858248E-06.
  Using Symmetric Orthogonalization.

  SCF Guess: Superposition of Atomic Densities via on-the-fly atomic UHF.

  ==> Iterations <==

                           Total Energy        Delta E     RMS |[F,P]|

   @DF-RHF iter SAD:  -246.15759735275390   -2.46158e+02   0.00000e+00 
   @DF-RHF iter   1:  -246.63334764167416   -4.75750e-01   8.24934e-04 DIIS
   @DF-RHF iter   2:  -246.75345403930510   -1.20106e-01   3.78432e-04 DIIS
   @DF-RHF iter   3:  -246.77747055884049   -2.40165e-02   7.31464e-05 DIIS
   @DF-RHF iter   4:  -246.77885195777776   -1.38140e-03   2.13441e-05 DIIS
   @DF-RHF iter   5:  -246.77893161768421   -7.96599e-05   7.02181e-06 DIIS
   @DF-RHF iter   6:  -246.77894213769804   -1.05200e-05   1.59370e-06 DIIS
   @DF-RHF iter   7:  -246.77894288166559   -7.43968e-07   5.55274e-07 DIIS
   @DF-RHF iter   8:  -246.77894297342468   -9.17591e-08   2.31717e-07 DIIS
   @DF-RHF iter   9:  -246.77894299986659   -2.64419e-08   6.52932e-08 DIIS
   @DF-RHF iter  10:  -246.77894300301892   -3.15234e-09   2.40402e-08 DIIS
   @DF-RHF iter  11:  -246.77894300361311   -5.94184e-10   1.44393e-08 DIIS
   @DF-RHF iter  12:  -246.77894300377585   -1.62743e-10   4.53130e-09 DIIS
  Energy and wave function converged.


  ==> Post-Iterations <==

    Orbital Energies [Eh]
    ---------------------

    Doubly Occupied:                                                      

       1A    -15.567240     2A    -11.275414     3A    -11.275381  
       4A    -11.260663     5A    -11.242552     6A    -11.242492  
       7A     -1.256671     8A     -1.090104     9A     -1.034211  
      10A     -0.859847    11A     -0.856174    12A     -0.722367  
      13A     -0.660837    14A     -0.654731    15A     -0.598956  
      16A     -0.577536    17A     -0.541412    18A     -0.520509  
      19A     -0.419603    20A     -0.384139    21A     -0.348280  

    Virtual:                                                              

      22A      0.023808    23A      0.032382    24A      0.033688  
      25A      0.040739    26A      0.048220    27A      0.049432  
      28A      0.058173    29A      0.061884    30A      0.069875  
      31A      0.083642    32A      0.087668    33A      0.092396  
      34A      0.099029    35A      0.104505    36A      0.106569  
      37A      0.109559    38A      0.110247    39A      0.118382  
      40A      0.121252    41A      0.125083    42A      0.128574  
      43A      0.130515    44A      0.140879    45A      0.143429  
      46A      0.149603    47A      0.154300    48A      0.155327  
      49A      0.155977    50A      0.159117    51A      0.166368  
      52A      0.171745    53A      0.176317    54A      0.181883  
      55A      0.186497    56A      0.210088    57A      0.222148  
      58A      0.232108    59A      0.240275    60A      0.245040  
      61A      0.245986    62A      0.251237    63A      0.264233  
      64A      0.266747    65A      0.274431    66A      0.282609  
      67A      0.289747    68A      0.290976    69A      0.303069  
      70A      0.308334    71A      0.313531    72A      0.315862  
      73A      0.321589    74A      0.325845    75A      0.330657  
      76A      0.338082    77A      0.339079    78A      0.344292  
      79A      0.349853    80A      0.352848    81A      0.354998  
      82A      0.360534    83A      0.369594    84A      0.377402  
      85A      0.379822    86A      0.380461    87A      0.386384  
      88A      0.392247    89A      0.399433    90A      0.407193  
      91A      0.410181    92A      0.424248    93A      0.426800  
      94A      0.432217    95A      0.443572    96A      0.447103  
      97A      0.450454    98A      0.456447    99A      0.458704  
     100A      0.471434   101A      0.475104   102A      0.478743  
     103A      0.483414   104A      0.484670   105A      0.492702  
     106A      0.496160   107A      0.498828   108A      0.505470  
     109A      0.512966   110A      0.516419   111A      0.522505  
     112A      0.529375   113A      0.534408   114A      0.537921  
     115A      0.541451   116A      0.545041   117A      0.547293  
     118A      0.549623   119A      0.566698   120A      0.573948  
     121A      0.575732   122A      0.582884   123A      0.590650  
     124A      0.595770   125A      0.612210   126A      0.626699  
     127A      0.631789   128A      0.634499   129A      0.641077  
     130A      0.645513   131A      0.649588   132A      0.657989  
     133A      0.661873   134A      0.670003   135A      0.681405  
     136A      0.686288   137A      0.696854   138A      0.703687  
     139A      0.709459   140A      0.718218   141A      0.729389  
     142A      0.735300   143A      0.744523   144A      0.746060  
     145A      0.754563   146A      0.759554   147A      0.772646  
     148A      0.780239   149A      0.787925   150A      0.792403  
     151A      0.806874   152A      0.809491   153A      0.819153  
     154A      0.823104   155A      0.836017   156A      0.840285  
     157A      0.842665   158A      0.846996   159A      0.853188  
     160A      0.860832   161A      0.867899   162A      0.872669  
     163A      0.874767   164A      0.885318   165A      0.890807  
     166A      0.894803   167A      0.912023   168A      0.915862  
     169A      0.932737   170A      0.938779   171A      0.943679  
     172A      0.955032   173A      0.959391   174A      0.968927  
     175A      0.972146   176A      0.993587   177A      0.997076  
     178A      1.005096   179A      1.010984   180A      1.020170  
     181A      1.024494   182A      1.036572   183A      1.044758  
     184A      1.055517   185A      1.058711   186A      1.063277  
     187A      1.069911   188A      1.074354   189A      1.083128  
     190A      1.092219   191A      1.099772   192A      1.103243  
     193A      1.108560   194A      1.115695   195A      1.124877  
     196A      1.126385   197A      1.133277   198A      1.134555  
     199A      1.142358   200A      1.151357   201A      1.155153  
     202A      1.167780   203A      1.179467   204A      1.184003  
     205A      1.189503   206A      1.194530   207A      1.202663  
     208A      1.210020   209A      1.210797   210A      1.226636  
     211A      1.230285   212A      1.237050   213A      1.242857  
     214A      1.244956   215A      1.254586   216A      1.262238  
     217A      1.269478   218A      1.280556   219A      1.283153  
     220A      1.294036   221A      1.301589   222A      1.305679  
     223A      1.309660   224A      1.317677   225A      1.328259  
     226A      1.332075   227A      1.340085   228A      1.351341  
     229A      1.363977   230A      1.367589   231A      1.371117  
     232A      1.384235   233A      1.391054   234A      1.397625  
     235A      1.406848   236A      1.417266   237A      1.429675  
     238A      1.438094   239A      1.447625   240A      1.455814  
     241A      1.472425   242A      1.480006   243A      1.488480  
     244A      1.488824   245A      1.514566   246A      1.519932  
     247A      1.525283   248A      1.535656   249A      1.541204  
     250A      1.545814   251A      1.561335   252A      1.573121  
     253A      1.575855   254A      1.583912   255A      1.597107  
     256A      1.600041   257A      1.615599   258A      1.633374  
     259A      1.637853   260A      1.655486   261A      1.660817  
     262A      1.672958   263A      1.692438   264A      1.703752  
     265A      1.708726   266A      1.717963   267A      1.730573  
     268A      1.733437   269A      1.745142   270A      1.752191  
     271A      1.753738   272A      1.763200   273A      1.774314  
     274A      1.791133   275A      1.796733   276A      1.810072  
     277A      1.815669   278A      1.824605   279A      1.835436  
     280A      1.837545   281A      1.849367   282A      1.852426  
     283A      1.861959   284A      1.883902   285A      1.889171  
     286A      1.897192   287A      1.912194   288A      1.925500  
     289A      1.941143   290A      1.953503   291A      1.958737  
     292A      1.972546   293A      1.985178   294A      1.993023  
     295A      1.999839   296A      2.010938   297A      2.020294  
     298A      2.024069   299A      2.032791   300A      2.054023  
     301A      2.056885   302A      2.071063   303A      2.078914  
     304A      2.092859   305A      2.095359   306A      2.109200  
     307A      2.126742   308A      2.129778   309A      2.140643  
     310A      2.153074   311A      2.155339   312A      2.183767  
     313A      2.191772   314A      2.196236   315A      2.206258  
     316A      2.231999   317A      2.252605   318A      2.258391  
     319A      2.276676   320A      2.286172   321A      2.294055  
     322A      2.308471   323A      2.321817   324A      2.336731  
     325A      2.346172   326A      2.361994   327A      2.373079  
     328A      2.378538   329A      2.390795   330A      2.396631  
     331A      2.421967   332A      2.428042   333A      2.451156  
     334A      2.458427   335A      2.476820   336A      2.498308  
     337A      2.508205   338A      2.512010   339A      2.538174  
     340A      2.553460   341A      2.572817   342A      2.582362  
     343A      2.596243   344A      2.624052   345A      2.629919  
     346A      2.640016   347A      2.648206   348A      2.675649  
     349A      2.677683   350A      2.691765   351A      2.713502  
     352A      2.726441   353A      2.736437   354A      2.748964  
     355A      2.782945   356A      2.787670   357A      2.814025  
     358A      2.852290   359A      2.871560   360A      2.890146  
     361A      2.899800   362A      2.916137   363A      2.947004  
     364A      2.988668   365A      3.039464   366A      3.053106  
     367A      3.078433   368A      3.090805   369A      3.103708  
     370A      3.144382   371A      3.167457   372A      3.179350  
     373A      3.206550   374A      3.236284   375A      3.253243  
     376A      3.275800   377A      3.304275   378A      3.324570  
     379A      3.347322   380A      3.375535   381A      3.398600  
     382A      3.409069   383A      3.421683   384A      3.439548  
     385A      3.447740   386A      3.472318   387A      3.500466  
     388A      3.506548   389A      3.521758   390A      3.532692  
     391A      3.549811   392A      3.566439   393A      3.569754  
     394A      3.599523   395A      3.614539   396A      3.624861  
     397A      3.650464   398A      3.665164   399A      3.695482  
     400A      3.720420   401A      3.722831   402A      3.755145  
     403A      3.767503   404A      3.772479   405A      3.789518  
     406A      3.820304   407A      3.840579   408A      3.851071  
     409A      3.875265   410A      3.890611   411A      3.901174  
     412A      3.909256   413A      3.925139   414A      3.944963  
     415A      3.948728   416A      3.957851   417A      3.981991  
     418A      4.003195   419A      4.019475   420A      4.049480  
     421A      4.052785   422A      4.070761   423A      4.080997  
     424A      4.085929   425A      4.106317   426A      4.133770  
     427A      4.143636   428A      4.152028   429A      4.157355  
     430A      4.178736   431A      4.185054   432A      4.187729  
     433A      4.202574   434A      4.227328   435A      4.244855  
     436A      4.263219   437A      4.269338   438A      4.284219  
     439A      4.292976   440A      4.313710   441A      4.325602  
     442A      4.334347   443A      4.369304   444A      4.381648  
     445A      4.397732   446A      4.406646   447A      4.415499  
     448A      4.424135   449A      4.447453   450A      4.460787  
     451A      4.478708   452A      4.481417   453A      4.510304  
     454A      4.523692   455A      4.537272   456A      4.546085  
     457A      4.559500   458A      4.581560   459A      4.591107  
     460A      4.612869   461A      4.636386   462A      4.640180  
     463A      4.667319   464A      4.692487   465A      4.700435  
     466A      4.710402   467A      4.744440   468A      4.761703  
     469A      4.776438   470A      4.811717   471A      4.816511  
     472A      4.826436   473A      4.847799   474A      4.863860  
     475A      4.877420   476A      4.897109   477A      4.902704  
     478A      4.909350   479A      4.939364   480A      4.952510  
     481A      4.972866   482A      4.997350   483A      5.004550  
     484A      5.014032   485A      5.040244   486A      5.068130  
     487A      5.074489   488A      5.081830   489A      5.111725  
     490A      5.122918   491A      5.129443   492A      5.139688  
     493A      5.147436   494A      5.164256   495A      5.176670  
     496A      5.200008   497A      5.210900   498A      5.221265  
     499A      5.231602   500A      5.245507   501A      5.261283  
     502A      5.285150   503A      5.292095   504A      5.295720  
     505A      5.328484   506A      5.365072   507A      5.369934  
     508A      5.391728   509A      5.420510   510A      5.441951  
     511A      5.451345   512A      5.460905   513A      5.465300  
     514A      5.475690   515A      5.493777   516A      5.503330  
     517A      5.536002   518A      5.557384   519A      5.568051  
     520A      5.586952   521A      5.593444   522A      5.615620  
     523A      5.636208   524A      5.657180   525A      5.673586  
     526A      5.703114   527A      5.724965   528A      5.730549  
     529A      5.779248   530A      5.801585   531A      5.820269  
     532A      5.862424   533A      5.874005   534A      5.901448  
     535A      5.925277   536A      5.938289   537A      5.972795  
     538A      5.994029   539A      6.028363   540A      6.054099  
     541A      6.063735   542A      6.078363   543A      6.098967  
     544A      6.136809   545A      6.208664   546A      6.234617  
     547A      6.252776   548A      6.272951   549A      6.303378  
     550A      6.330916   551A      6.340544   552A      6.389271  
     553A      6.490937   554A      6.512733   555A      6.548611  
     556A      6.562778   557A      6.669232   558A      6.700239  
     559A      6.720571   560A      6.768611   561A      6.781261  
     562A      6.812218   563A      6.896918   564A      6.926218  
     565A      7.004181   566A      7.082099   567A      7.100820  
     568A      7.158475   569A      7.196575   570A      7.275396  
     571A      7.402060   572A      7.466670   573A      7.530444  
     574A      7.663373   575A      7.741957   576A      7.793058  
     577A      7.860297   578A      7.941150   579A      7.997889  
     580A      8.201415   581A      8.296277   582A      8.320812  
     583A      8.441560   584A      8.776984   585A      9.489132  
     586A      9.993716   587A     10.715352   588A     11.262597  
     589A     11.405023   590A     12.389898   591A     16.042250  
     592A     16.484933   593A     18.712603   594A     19.452898  
     595A     19.839489   596A     20.192111   597A     54.473121  
     598A     61.470704  

    Final Occupation by Irrep:
              A 
    DOCC [    21 ]

  @DF-RHF Final Energy:  -246.77894300377585

   => Energetics <=

    Nuclear Repulsion Energy =            206.2349289386929172
    One-Electron Energy =                -741.2495027920697339
    Two-Electron Energy =                 288.2356308496009092
    Total Energy =                       -246.7789430037758507

Computation Completed


Properties will be evaluated at   0.000000,   0.000000,   0.000000 [a0]

Properties computed using the SCF density matrix

  Nuclear Dipole Moment: [e a0]
     X:    67.8217      Y:   -12.9675      Z:    -3.1433

  Electronic Dipole Moment: [e a0]
     X:   -67.1817      Y:    13.6155      Z:     3.2427

  Dipole Moment: [e a0]
     X:     0.6400      Y:     0.6481      Z:     0.0994     Total:     0.9162

  Dipole Moment: [D]
     X:     1.6266      Y:     1.6473      Z:     0.2527     Total:     2.3288


*** tstop() called on node37.bme.utexas.edu at Sat Apr 11 17:48:44 2020
Module time:
	user time   =     135.25 seconds =       2.25 minutes
	system time =       6.16 seconds =       0.10 minutes
	total time  =         27 seconds =       0.45 minutes
Total time:
	user time   =     444.96 seconds =       7.42 minutes
	system time =      27.69 seconds =       0.46 minutes
	total time  =         98 seconds =       1.63 minutes

*** tstart() called on node37.bme.utexas.edu
*** at Sat Apr 11 17:48:44 2020


  //>>>>>>>>>>>>>>>>>>>>>>>>>>>>>>>>>>>//
  //               DFMP2               //
  //<<<<<<<<<<<<<<<<<<<<<<<<<<<<<<<<<<<//

   => Loading Basis Set <=

    Name: (AUG-CC-PVTZ AUX)
    Role: RIFIT
    Keyword: DF_BASIS_MP2
    atoms 1, 8                         entry N          line   206 file /home/liuchw/anaconda3/envs/psi4env/share/psi4/basis/aug-cc-pvtz-ri.gbs 
    atoms 2-3, 5-7, 10, 12, 14, 16, 18 entry H          line    30 file /home/liuchw/anaconda3/envs/psi4env/share/psi4/basis/aug-cc-pvtz-ri.gbs 
    atoms 4, 9, 11, 13, 15, 17         entry C          line   148 file /home/liuchw/anaconda3/envs/psi4env/share/psi4/basis/aug-cc-pvtz-ri.gbs 

	 --------------------------------------------------------
	                          DF-MP2                         
	      2nd-Order Density-Fitted Moller-Plesset Theory     
	              RMP2 Wavefunction,   6 Threads             
	                                                         
	        Rob Parrish, Justin Turney, Andy Simmonett,      
	           Ed Hohenstein, and C. David Sherrill          
	 --------------------------------------------------------

   => Auxiliary Basis Set <=

  Basis Set: (AUG-CC-PVTZ AUX)
    Blend: AUG-CC-PVTZ-RI
    Number of shells: 364
    Number of basis function: 1308
    Number of Cartesian functions: 1638
    Spherical Harmonics?: true
    Max angular momentum: 4

	 --------------------------------------------------------
	                 NBF =   598, NAUX =  1308
	 --------------------------------------------------------
	   CLASS    FOCC     OCC    AOCC    AVIR     VIR    FVIR
	   PAIRS       0      21      21     577     577       0
[...]
     637A      4.088850   638A      4.100753   639A      4.124177  
     640A      4.125572   641A      4.133724   642A      4.149883  
     643A      4.153579   644A      4.159782   645A      4.164366  
     646A      4.178212   647A      4.189410   648A      4.204076  
     649A      4.206898   650A      4.215932   651A      4.236295  
     652A      4.262566   653A      4.278405   654A      4.283282  
     655A      4.292077   656A      4.303814   657A      4.316550  
     658A      4.330700   659A      4.335526   660A      4.349504  
     661A      4.368163   662A      4.374555   663A      4.387554  
     664A      4.408085   665A      4.417343   666A      4.445251  
     667A      4.454312   668A      4.467126   669A      4.471921  
     670A      4.476781   671A      4.489017   672A      4.492944  
     673A      4.503545   674A      4.510761   675A      4.516179  
     676A      4.524941   677A      4.525835   678A      4.553565  
     679A      4.569438   680A      4.579324   681A      4.582105  
     682A      4.598891   683A      4.613684   684A      4.625455  
     685A      4.626494   686A      4.646190   687A      4.659750  
     688A      4.680013   689A      4.698085   690A      4.703861  
     691A      4.708116   692A      4.725890   693A      4.750581  
     694A      4.792682   695A      4.802750   696A      4.819788  
     697A      4.827442   698A      4.855181   699A      4.863258  
     700A      4.876487   701A      4.885399   702A      4.894559  
     703A      4.908565   704A      4.912135   705A      4.951244  
     706A      4.983206   707A      5.001271   708A      5.010267  
     709A      5.022248   710A      5.031611   711A      5.049629  
     712A      5.073694   713A      5.098990   714A      5.109958  
     715A      5.121151   716A      5.148510   717A      5.174838  
     718A      5.213500   719A      5.221580   720A      5.241315  
     721A      5.252894   722A      5.304956   723A      5.318496  
     724A      5.374049   725A      5.380139   726A      5.411533  
     727A      5.428875   728A      5.433457   729A      5.451805  
     730A      5.457330   731A      5.476201   732A      5.549323  
     733A      5.618346   734A      5.627873   735A      5.672263  
     736A      5.707531   737A      5.740443   738A      5.807375  
     739A      5.809944   740A      5.829105   741A      5.856817  
     742A      5.907278   743A      5.921505   744A      5.992372  
     745A      6.009346   746A      6.054687   747A      6.061163  
     748A      6.082402   749A      6.114142   750A      6.121765  
     751A      6.149478   752A      6.158718   753A      6.160328  
     754A      6.187337   755A      6.201495   756A      6.223811  
     757A      6.254022   758A      6.305747   759A      6.315480  
     760A      6.318073   761A      6.331106   762A      6.380415  
     763A      6.398364   764A      6.423553   765A      6.431435  
     766A      6.467004   767A      6.474882   768A      6.485427  
     769A      6.485928   770A      6.517970   771A      6.519537  
     772A      6.550359   773A      6.589967   774A      6.591957  
     775A      6.595102   776A      6.606239   777A      6.619328  
     778A      6.640406   779A      6.640961   780A      6.654751  
     781A      6.658135   782A      6.671671   783A      6.712192  
     784A      6.715425   785A      6.727129   786A      6.752547  
     787A      6.755167   788A      6.765087   789A      6.785355  
     790A      6.803796   791A      6.810815   792A      6.815683  
     793A      6.822525   794A      6.840142   795A      6.858807  
     796A      6.869833   797A      6.893984   798A      6.895665  
     799A      6.902062   800A      6.907956   801A      6.939216  
     802A      6.953471   803A      6.957518   804A      6.964088  
     805A      6.975485   806A      6.983849   807A      6.998820  
     808A      7.001366   809A      7.011859   810A      7.019080  
     811A      7.024382   812A      7.025981   813A      7.026474  
     814A      7.038181   815A      7.053621   816A      7.068209  
     817A      7.082620   818A      7.093571   819A      7.121274  
     820A      7.124586   821A      7.148561   822A      7.152163  
     823A      7.165119   824A      7.170312   825A      7.181938  
     826A      7.185612   827A      7.205071   828A      7.220155  
     829A      7.221315   830A      7.232184   831A      7.245691  
     832A      7.278425   833A      7.288346   834A      7.291242  
     835A      7.325830   836A      7.329310   837A      7.346938  
     838A      7.357541   839A      7.375414   840A      7.389296  
     841A      7.398127   842A      7.402815   843A      7.407255  
     844A      7.431588   845A      7.439469   846A      7.467397  
     847A      7.472897   848A      7.484487   849A      7.504936  
     850A      7.523768   851A      7.544768   852A      7.573604  
     853A      7.587669   854A      7.590924   855A      7.625738  
     856A      7.636585   857A      7.647685   858A      7.649663  
     859A      7.682945   860A      7.702263   861A      7.713026  
     862A      7.717505   863A      7.733095   864A      7.748715  
     865A      7.749358   866A      7.771876   867A      7.777661  
     868A      7.779559   869A      7.782734   870A      7.796126  
     871A      7.811782   872A      7.843437   873A      7.849737  
     874A      7.859065   875A      7.880341   876A      7.897637  
     877A      7.930854   878A      7.948492   879A      7.956631  
     880A      7.988306   881A      8.005423   882A      8.009194  
     883A      8.021408   884A      8.025850   885A      8.031694  
     886A      8.046031   887A      8.064836   888A      8.074292  
     889A      8.095610   890A      8.097042   891A      8.116467  
     892A      8.146843   893A      8.150257   894A      8.153032  
     895A      8.167214   896A      8.175329   897A      8.284427  
     898A      8.303610   899A      8.309384   900A      8.323180  
     901A      8.357063   902A      8.368291   903A      8.382861  
     904A      8.410156   905A      8.417237   906A      8.459754  
     907A      8.470638   908A      8.494845   909A      8.514809  
     910A      8.532640   911A      8.536688   912A      8.551810  
     913A      8.578514   914A      8.613550   915A      8.627533  
     916A      8.632638   917A      8.650787   918A      8.674595  
     919A      8.682244   920A      8.695170   921A      8.698939  
     922A      8.705136   923A      8.715402   924A      8.724152  
     925A      8.733506   926A      8.736445   927A      8.756294  
     928A      8.813128   929A      8.824764   930A      8.833657  
     931A      8.839419   932A      8.864450   933A      8.878372  
     934A      8.896277   935A      8.901344   936A      8.938091  
     937A      8.948189   938A      8.957425   939A      8.961659  
     940A      8.964051   941A      8.972010   942A      8.985748  
     943A      8.998733   944A      9.047798   945A      9.054754  
     946A      9.071640   947A      9.081832   948A      9.103144  
     949A      9.123051   950A      9.124248   951A      9.142864  
     952A      9.150112   953A      9.180206   954A      9.205012  
     955A      9.213237   956A      9.215599   957A      9.227766  
     958A      9.258190   959A      9.264108   960A      9.288912  
     961A      9.298471   962A      9.326242   963A      9.332349  
     964A      9.357053   965A      9.380949   966A      9.396664  
     967A      9.398657   968A      9.401912   969A      9.421435  
     970A      9.445554   971A      9.448391   972A      9.472426  
     973A      9.482577   974A      9.502347   975A      9.551606  
     976A      9.557241   977A      9.562822   978A      9.575885  
     979A      9.594982   980A      9.602876   981A      9.621316  
     982A      9.627217   983A      9.648537   984A      9.656752  
     985A      9.672285   986A      9.705631   987A      9.726941  
     988A      9.730620   989A      9.733397   990A      9.739867  
     991A      9.756998   992A      9.803330   993A      9.824291  
     994A      9.868519   995A      9.880011   996A      9.897367  
     997A      9.905742   998A      9.963519   999A      9.967957  
    1000A      9.970721  1001A      9.978540  1002A      9.998547  
    1003A     10.009264  1004A     10.021233  1005A     10.029886  
    1006A     10.036068  1007A     10.087873  1008A     10.102943  
    1009A     10.114411  1010A     10.150116  1011A     10.158322  
    1012A     10.198364  1013A     10.220680  1014A     10.233278  
    1015A     10.234951  1016A     10.240283  1017A     10.245911  
    1018A     10.248819  1019A     10.294692  1020A     10.324019  
    1021A     10.332629  1022A     10.370620  1023A     10.385942  
    1024A     10.392618  1025A     10.474073  1026A     10.479710  
    1027A     10.488918  1028A     10.498775  1029A     10.500746  
    1030A     10.512203  1031A     10.518989  1032A     10.541926  
    1033A     10.582889  1034A     10.608991  1035A     10.630481  
    1036A     10.648479  1037A     10.657701  1038A     10.707690  
    1039A     10.719873  1040A     10.766443  1041A     10.770578  
    1042A     10.773508  1043A     10.774443  1044A     10.780834  
    1045A     10.799970  1046A     10.851511  1047A     10.885841  
    1048A     10.931571  1049A     10.943978  1050A     11.001467  
    1051A     11.060524  1052A     11.062578  1053A     11.075012  
    1054A     11.190458  1055A     11.198853  1056A     11.201051  
    1057A     11.269419  1058A     11.330355  1059A     11.374212  
    1060A     11.379754  1061A     11.449951  1062A     11.458432  
    1063A     11.459907  1064A     11.514475  1065A     11.571604  
    1066A     11.575257  1067A     11.597179  1068A     11.650469  
    1069A     11.673573  1070A     11.702341  1071A     11.781852  
    1072A     11.907810  1073A     12.209698  1074A     12.288905  
    1075A     12.353205  1076A     12.416345  1077A     12.498047  
    1078A     12.649164  1079A     12.674637  1080A     12.732054  
    1081A     12.849242  1082A     13.213924  1083A     13.226938  
    1084A     13.286262  1085A     13.359315  1086A     13.376983  
    1087A     13.383166  1088A     13.532116  1089A     13.588549  
    1090A     13.653239  1091A     15.022536  1092A     15.225395  
    1093A     26.176072  1094A     26.297179  1095A     26.540180  
    1096A     26.950524  1097A     27.193199  1098A     29.112041  
    1099A     34.233939  1100A     36.346349  

    Final Occupation by Irrep:
              A 
    DOCC [    30 ]

  @DF-RHF Final Energy:  -342.05473237982238

   => Energetics <=

    Nuclear Repulsion Energy =            314.9195688523458330
    One-Electron Energy =               -1086.0771489692322120
    Two-Electron Energy =                 429.1028477370639962
    Total Energy =                       -342.0547323798223829

Computation Completed


Properties will be evaluated at   0.000000,   0.000000,   0.000000 [a0]

Properties computed using the SCF density matrix

  Nuclear Dipole Moment: [e a0]
     X:    -9.8544      Y:     4.4174      Z:     1.4943

  Electronic Dipole Moment: [e a0]
     X:    10.5185      Y:    -4.0010      Z:    -0.8861

  Dipole Moment: [e a0]
     X:     0.6641      Y:     0.4164      Z:     0.6082     Total:     0.9921

  Dipole Moment: [D]
     X:     1.6879      Y:     1.0584      Z:     1.5459     Total:     2.5217


*** tstop() called on node98.bme.utexas.edu at Thu Apr 23 19:07:19 2020
Module time:
	user time   =     562.43 seconds =       9.37 minutes
	system time =      27.84 seconds =       0.46 minutes
	total time  =         81 seconds =       1.35 minutes
Total time:
	user time   =    2822.06 seconds =      47.03 minutes
	system time =      95.46 seconds =       1.59 minutes
	total time  =        449 seconds =       7.48 minutes

*** tstart() called on node98.bme.utexas.edu
*** at Thu Apr 23 19:07:19 2020


  //>>>>>>>>>>>>>>>>>>>>>>>>>>>>>>>>>>>//
  //               DFMP2               //
  //<<<<<<<<<<<<<<<<<<<<<<<<<<<<<<<<<<<//

   => Loading Basis Set <=

    Name: (AUG-CC-PVQZ AUX)
    Role: RIFIT
    Keyword: DF_BASIS_MP2
    atoms 1, 8                         entry N          line   258 file /home/liuchw/anaconda3/envs/psi4env/share/psi4/basis/aug-cc-pvqz-ri.gbs 
    atoms 2-3, 5-7, 10, 12, 14, 16, 18 entry H          line    30 file /home/liuchw/anaconda3/envs/psi4env/share/psi4/basis/aug-cc-pvqz-ri.gbs 
    atoms 4, 9, 11, 13, 15, 17         entry C          line   184 file /home/liuchw/anaconda3/envs/psi4env/share/psi4/basis/aug-cc-pvqz-ri.gbs 

	 --------------------------------------------------------
	                          DF-MP2                         
	      2nd-Order Density-Fitted Moller-Plesset Theory     
	              RMP2 Wavefunction,   8 Threads             
	                                                         
	        Rob Parrish, Justin Turney, Andy Simmonett,      
	           Ed Hohenstein, and C. David Sherrill          
	 --------------------------------------------------------

   => Auxiliary Basis Set <=

  Basis Set: (AUG-CC-PVQZ AUX)
    Blend: AUG-CC-PVQZ-RI
    Number of shells: 488
    Number of basis function: 2144
    Number of Cartesian functions: 2946
    Spherical Harmonics?: true
    Max angular momentum: 5

	 --------------------------------------------------------
	                 NBF =  1100, NAUX =  2144
	 --------------------------------------------------------
	   CLASS    FOCC     OCC    AOCC    AVIR     VIR    FVIR
	   PAIRS       0      30      30    1070    1070       0
	 --------------------------------------------------------

	-----------------------------------------------------------
	 ==================> DF-MP2 Energies <==================== 
	-----------------------------------------------------------
	 Reference Energy          =    -342.0547323798223829 [Eh]
	 Singles Energy            =      -0.0000000000000000 [Eh]
	 Same-Spin Energy          =      -0.3855770643496184 [Eh]
	 Opposite-Spin Energy      =      -1.3352772774161701 [Eh]
	 Correlation Energy        =      -1.7208543417657884 [Eh]
	 Total Energy              =    -343.7755867215881835 [Eh]
	-----------------------------------------------------------
	 ================> DF-SCS-MP2 Energies <================== 
	-----------------------------------------------------------
	 SCS Same-Spin Scale       =       0.3333333333333333 [-]
	 SCS Opposite-Spin Scale   =       1.2000000000000000 [-]
	 SCS Same-Spin Energy      =      -0.1285256881165395 [Eh]
	 SCS Opposite-Spin Energy  =      -1.6023327328994041 [Eh]
	 SCS Correlation Energy    =      -1.7308584210159437 [Eh]
	 SCS Total Energy          =    -343.7855908008383494 [Eh]
	-----------------------------------------------------------


*** tstop() called on node98.bme.utexas.edu at Thu Apr 23 19:08:20 2020
Module time:
	user time   =     308.18 seconds =       5.14 minutes
	system time =      12.18 seconds =       0.20 minutes
	total time  =         61 seconds =       1.02 minutes
Total time:
	user time   =    3130.24 seconds =      52.17 minutes
	system time =     107.64 seconds =       1.79 minutes
	total time  =        510 seconds =       8.50 minutes

  //>>>>>>>>>>>>>>>>>>>>>>>>>>>>>>>>>>>//
  //  CBS Results: mp2/aug-cc-pv[tq]z  //
  //<<<<<<<<<<<<<<<<<<<<<<<<<<<<<<<<<<<//


   ==> HF <==

   HI-zeta (4) Energy:               -342.054732379822


   ==> Helgaker 2-point correlated extrapolation for method: MP2 <==

   LO-zeta (3) Energy:               -343.590222398799
   HI-zeta (4) Energy:               -343.775586721588
   Alpha (exponent) Value:             3.000000000000
   Extrapolated Energy:              -343.910852578759

   @Extrapolated MP2/(T,Q):          -343.910852578759



   ==> Helgaker 2-point correlated extrapolation for method: HF <==

   LO-zeta (3) Energy:               -342.034629443583
   HI-zeta (4) Energy:               -342.054732379822
   Alpha (exponent) Value:             3.000000000000
   Extrapolated Energy:              -342.069402090051

   @Extrapolated HF/(T,Q):           -342.069402090051


   ==> Components <==

  ---------------------------------------------------------------------------------------------------------
                          Method / Basis                      Rqd      Energy [Eh]   Variable
  ---------------------------------------------------------------------------------------------------------
                              hf / aug-cc-pvtz                  *    -342.03462944   HF TOTAL ENERGY
                             mp2 / aug-cc-pvtz                  *    -343.59022240   MP2 TOTAL ENERGY
                              hf / aug-cc-pvqz                  *    -342.05473238   HF TOTAL ENERGY
                             mp2 / aug-cc-pvqz                  *    -343.77558672   MP2 TOTAL ENERGY
  ---------------------------------------------------------------------------------------------------------

   ==> Stages <==

  ---------------------------------------------------------------------------------------------------------
      Stage               Method / Basis                       Wt      Energy [Eh]   Scheme
  ---------------------------------------------------------------------------------------------------------
        scf                   hf / aug-cc-pvqz                  1    -342.05473238   xtpl_highest_1
       corl                  mp2 / aug-cc-pv[tq]z               1    -343.91085258   corl_xtpl_helgaker_2
       corl                   hf / aug-cc-pv[tq]z              -1    -342.06940209   corl_xtpl_helgaker_2
  ---------------------------------------------------------------------------------------------------------

   ==> CBS <==

  ---------------------------------------------------------------------------------------------------------
      Stage               Method / Basis                               Energy [Eh]   Scheme
  ---------------------------------------------------------------------------------------------------------
        scf                   hf / aug-cc-pvqz                       -342.05473238   xtpl_highest_1
       corl                  mp2 / aug-cc-pv[tq]z                      -1.84145049   corl_xtpl_helgaker_2
      total                  CBS                                     -343.89618287   
  ---------------------------------------------------------------------------------------------------------
   => Loading Basis Set <=

    Name: DEF2-SVP
    Role: ORBITAL
    Keyword: BASIS
    atoms 1, 8                         entry N          line   110 file /home/liuchw/anaconda3/envs/psi4env/share/psi4/basis/def2-svp.gbs 
    atoms 2-3, 5-7, 10, 12, 14, 16, 18 entry H          line    15 file /home/liuchw/anaconda3/envs/psi4env/share/psi4/basis/def2-svp.gbs 
    atoms 4, 9, 11, 13, 15, 17         entry C          line    90 file /home/liuchw/anaconda3/envs/psi4env/share/psi4/basis/def2-svp.gbs 


       N-Body: Complex Energy (fragments = (1, 2), basis = (1, 2):  -343.89618286853005)

   ==> N-Body: Counterpoise Corrected (CP) energies <==

   n-Body     Total Energy [Eh]       I.E. [kcal/mol]      Delta [kcal/mol]
        1     -343.895183240308        0.000000000000        0.000000000000
        2     -343.896237280965       -0.661420498038       -0.661420498038

   => Loading Basis Set <=

    Name: DEF2-SVP
    Role: ORBITAL
    Keyword: BASIS
    atoms 1, 8                         entry N          line   110 file /home/liuchw/anaconda3/envs/psi4env/share/psi4/basis/def2-svp.gbs 
    atoms 2-3, 5-7, 10, 12, 14, 16, 18 entry H          line    15 file /home/liuchw/anaconda3/envs/psi4env/share/psi4/basis/def2-svp.gbs 
    atoms 4, 9, 11, 13, 15, 17         entry C          line    90 file /home/liuchw/anaconda3/envs/psi4env/share/psi4/basis/def2-svp.gbs 


    Psi4 stopped on: Thursday, 23 April 2020 07:08PM
    Psi4 wall time for execution: 0:08:31.16

*** Psi4 exiting successfully. Buy a developer a beer!
