
    -----------------------------------------------------------------------
          Psi4: An Open-Source Ab Initio Electronic Structure Package
                               Psi4 1.4a2.dev224 

                         Git: Rev {master} e453b16 


    R. M. Parrish, L. A. Burns, D. G. A. Smith, A. C. Simmonett,
    A. E. DePrince III, E. G. Hohenstein, U. Bozkaya, A. Yu. Sokolov,
    R. Di Remigio, R. M. Richard, J. F. Gonthier, A. M. James,
    H. R. McAlexander, A. Kumar, M. Saitow, X. Wang, B. P. Pritchard,
    P. Verma, H. F. Schaefer III, K. Patkowski, R. A. King, E. F. Valeev,
    F. A. Evangelista, J. M. Turney, T. D. Crawford, and C. D. Sherrill,
    J. Chem. Theory Comput. 13(7) pp 3185--3197 (2017).
    (doi: 10.1021/acs.jctc.7b00174)


                         Additional Contributions by
    P. Kraus, H. Kruse, M. H. Lechner, M. C. Schieber, R. A. Shaw,
    A. Alenaizan, R. Galvelis, Z. L. Glick, S. Lehtola, and J. P. Misiewicz

    -----------------------------------------------------------------------


    Psi4 started on: Thursday, 23 April 2020 06:59PM

    Process ID: 112769
    Host:       node98.bme.utexas.edu
    PSIDATADIR: /home/liuchw/anaconda3/envs/psi4env/share/psi4
    Memory:     500.0 MiB
    Threads:    8
    
  ==> Input File <==

--------------------------------------------------------------------------
#Generated by lconvert.py for cbs job

memory 20 GB

molecule  {
0 1
  N      -0.541060    0.029580   -0.208990
  H       0.055550   -0.786120   -0.130290
  H      -1.469670   -0.274710    0.053140
  C      -0.078800    1.042390    0.738460
  H      -0.720150    1.919410    0.671980
  H      -0.050760    0.723820    1.785510
  H       0.926430    1.356600    0.462000
--
0 1
  N       4.431520   -1.687000    0.176800
  C       4.769960   -0.874660   -0.834920
  H       4.227290   -1.019200   -1.760300
  C       5.741290    0.117470   -0.734550
  H       5.966140    0.741820   -1.587400
  C       6.402120    0.287020    0.477720
  H       7.159980    1.049250    0.594100
  C       6.061990   -0.547950    1.536840
  H       6.544580   -0.457480    2.499540
  C       5.078210   -1.512730    1.337660
  H       4.792130   -2.176480    2.144270
units angstrom
no_reorient
symmetry c1
}

set {
scf_type DF
mp2_type DF
e_convergence 7
reference rhf
}

energy('mp2/aug-cc-pv[tq]z', bsse_type='cp')
--------------------------------------------------------------------------

  Memory set to  18.626 GiB by Python driver.

Scratch directory: /scratch/liuchw/


   ===> N-Body Interaction Abacus <===
        BSSE Treatment:                     cp
        Number of 1-body computations:     4
        Number of 2-body computations:     1

   ==> N-Body: Now computing 1-body complexes <==


       N-Body: Computing complex (1/4) with fragments (2,) in the basis of fragments (2,).


Scratch directory: /scratch/liuchw/

  //>>>>>>>>>>>>>>>>>>>>>>>>>>>>>>>>>>>//
  //   CBS Setup: mp2/aug-cc-pv[tq]z   //
  //<<<<<<<<<<<<<<<<<<<<<<<<<<<<<<<<<<<//

    Naive listing of computations required.
             hf / aug-cc-pvqz              for  HF TOTAL ENERGY
            mp2 / aug-cc-pvtz              for  MP2 TOTAL ENERGY
            mp2 / aug-cc-pvqz              for  MP2 TOTAL ENERGY
             hf / aug-cc-pvtz              for  HF TOTAL ENERGY
             hf / aug-cc-pvqz              for  HF TOTAL ENERGY

    Enlightened listing of computations required.
            mp2 / aug-cc-pvtz              for  MP2 TOTAL ENERGY
            mp2 / aug-cc-pvqz              for  MP2 TOTAL ENERGY

    Full listing of computations to be obtained (required and bonus).
             hf / aug-cc-pvtz              for  HF TOTAL ENERGY
            mp2 / aug-cc-pvtz              for  MP2 TOTAL ENERGY
             hf / aug-cc-pvqz              for  HF TOTAL ENERGY
            mp2 / aug-cc-pvqz              for  MP2 TOTAL ENERGY

  //>>>>>>>>>>>>>>>>>>>>>>>>>>>>>>>>>>>>//
  // CBS Computation: MP2 / AUG-CC-PVTZ //
  //<<<<<<<<<<<<<<<<<<<<<<<<<<<<<<<<<<<<//


Scratch directory: /scratch/liuchw/

*** tstart() called on node98.bme.utexas.edu
*** at Thu Apr 23 18:59:50 2020

   => Loading Basis Set <=

    Name: AUG-CC-PVTZ
    Role: ORBITAL
    Keyword: BASIS
    atoms 1              entry N          line   285 file /home/liuchw/anaconda3/envs/psi4env/share/psi4/basis/aug-cc-pvtz.gbs 
    atoms 2, 4, 6, 8, 10 entry C          line   239 file /home/liuchw/anaconda3/envs/psi4env/share/psi4/basis/aug-cc-pvtz.gbs 
    atoms 3, 5, 7, 9, 11 entry H          line    40 file /home/liuchw/anaconda3/envs/psi4env/share/psi4/basis/aug-cc-pvtz.gbs 


         ---------------------------------------------------------
                                   SCF
               by Justin Turney, Rob Parrish, Andy Simmonett
                          and Daniel G. A. Smith
                              RHF Reference
                        8 Threads,  19073 MiB Core
         ---------------------------------------------------------

  ==> Geometry <==

    Molecular point group: c1
    Full point group: C1

    Geometry (in Angstrom), charge = 0, multiplicity = 1:

       Center              X                  Y                   Z               Mass       
    ------------   -----------------  -----------------  -----------------  -----------------
         N            0.636051994057    -1.323777248483    -0.137262155294    14.003074004430
         C            0.974491994057    -0.511437248483    -1.148982155294    12.000000000000
         H            0.431821994057    -0.655977248483    -2.074362155294     1.007825032230
         C            1.945821994057     0.480692751517    -1.048612155294    12.000000000000
         H            2.170671994057     1.105042751517    -1.901462155294     1.007825032230
         C            2.606651994057     0.650242751517     0.163657844706    12.000000000000
         H            3.364511994057     1.412472751517     0.280037844706     1.007825032230
         C            2.266521994057    -0.184727248483     1.222777844706    12.000000000000
         H            2.749111994057    -0.094257248483     2.185477844706     1.007825032230
         C            1.282741994057    -1.149507248483     1.023597844706    12.000000000000
         H            0.996661994057    -1.813257248483     1.830207844706     1.007825032230

  Running in c1 symmetry.

  Rotational constants: A =      0.12675  B =      0.05586  C =      0.05012 [cm^-1]
  Rotational constants: A =   3799.82271  B =   1674.66255  C =   1502.59511 [MHz]
  Nuclear repulsion =  206.234926802516895

  Charge       = 0
  Multiplicity = 1
  Electrons    = 42
  Nalpha       = 21
  Nbeta        = 21

  ==> Algorithm <==

  SCF Algorithm Type is DF.
  DIIS enabled.
  MOM disabled.
  Fractional occupation disabled.
  Guess Type is SAD.
  Energy threshold   = 1.00e-07
  Density threshold  = 1.00e-08
  Integral threshold = 0.00e+00

  ==> Primary Basis <==

  Basis Set: AUG-CC-PVTZ
    Blend: AUG-CC-PVTZ
    Number of shells: 129
    Number of basis function: 391
    Number of Cartesian functions: 455
    Spherical Harmonics?: true
    Max angular momentum: 3

   => Loading Basis Set <=

    Name: (AUG-CC-PVTZ AUX)
    Role: JKFIT
    Keyword: DF_BASIS_SCF
    atoms 1              entry N          line   224 file /home/liuchw/anaconda3/envs/psi4env/share/psi4/basis/aug-cc-pvtz-jkfit.gbs 
    atoms 2, 4, 6, 8, 10 entry C          line   162 file /home/liuchw/anaconda3/envs/psi4env/share/psi4/basis/aug-cc-pvtz-jkfit.gbs 
    atoms 3, 5, 7, 9, 11 entry H          line    70 file /home/liuchw/anaconda3/envs/psi4env/share/psi4/basis/aug-cc-pvtz-jkfit.gbs 

  ==> Pre-Iterations <==

   -------------------------------------------------------
    Irrep   Nso     Nmo     Nalpha   Nbeta   Ndocc  Nsocc
   -------------------------------------------------------
     A        391     391       0       0       0       0
   -------------------------------------------------------
    Total     391     391      21      21      21       0
   -------------------------------------------------------

  ==> Integral Setup <==

  DFHelper Memory: AOs need 1.010 GiB; user supplied 13.970 GiB. Using in-core AOs.

  ==> MemDFJK: Density-Fitted J/K Matrices <==

    J tasked:                   Yes
    K tasked:                   Yes
    wK tasked:                   No
    OpenMP threads:               8
    Memory [MiB]:             14305
    Algorithm:                 Core
    Schwarz Cutoff:           1E-12
    Mask sparsity (%):       0.8346
    Fitting Condition:        1E-10

   => Auxiliary Basis Set <=

  Basis Set: (AUG-CC-PVTZ AUX)
    Blend: AUG-CC-PVTZ-JKFIT
    Number of shells: 250
    Number of basis function: 854
    Number of Cartesian functions: 1061
    Spherical Harmonics?: true
    Max angular momentum: 4

  Minimum eigenvalue in the overlap matrix is 2.3258019921E-06.
  Using Symmetric Orthogonalization.

  SCF Guess: Superposition of Atomic Densities via on-the-fly atomic UHF.

  ==> Iterations <==

                           Total Energy        Delta E     RMS |[F,P]|

   @DF-RHF iter SAD:  -246.15759278153769   -2.46158e+02   0.00000e+00 
   @DF-RHF iter   1:  -246.63313681420334   -4.75544e-01   1.26137e-03 DIIS
   @DF-RHF iter   2:  -246.75320007634042   -1.20063e-01   5.78428e-04 DIIS
   @DF-RHF iter   3:  -246.77719185074966   -2.39918e-02   1.11826e-04 DIIS
   @DF-RHF iter   4:  -246.77857252810372   -1.38068e-03   3.26372e-05 DIIS
   @DF-RHF iter   5:  -246.77865211188737   -7.95838e-05   1.07238e-05 DIIS
   @DF-RHF iter   6:  -246.77866260395786   -1.04921e-05   2.43481e-06 DIIS
   @DF-RHF iter   7:  -246.77866334628595   -7.42328e-07   8.49434e-07 DIIS
   @DF-RHF iter   8:  -246.77866343815543   -9.18695e-08   3.54222e-07 DIIS
   @DF-RHF iter   9:  -246.77866346457353   -2.64181e-08   9.95898e-08 DIIS
   @DF-RHF iter  10:  -246.77866346770926   -3.13574e-09   3.66969e-08 DIIS
   @DF-RHF iter  11:  -246.77866346829924   -5.89978e-10   2.20362e-08 DIIS
   @DF-RHF iter  12:  -246.77866346846179   -1.62544e-10   6.93203e-09 DIIS
  Energy and wave function converged.


  ==> Post-Iterations <==

    Orbital Energies [Eh]
    ---------------------

    Doubly Occupied:                                                      

       1A    -15.567325     2A    -11.275443     3A    -11.275411  
       4A    -11.260693     5A    -11.242587     6A    -11.242531  
       7A     -1.256711     8A     -1.090142     9A     -1.034253  
      10A     -0.859891    11A     -0.856220    12A     -0.722412  
      13A     -0.660887    14A     -0.654770    15A     -0.599004  
      16A     -0.577580    17A     -0.541412    18A     -0.520554  
      19A     -0.419642    20A     -0.384156    21A     -0.348299  

    Virtual:                                                              

      22A      0.026125    23A      0.033280    24A      0.037758  
      25A      0.048803    26A      0.053322    27A      0.077894  
      28A      0.090996    29A      0.100343    30A      0.102005  
      31A      0.104064    32A      0.108722    33A      0.109293  
      34A      0.110360    35A      0.116616    36A      0.118727  
      37A      0.128993    38A      0.130988    39A      0.141802  
      40A      0.148426    41A      0.150841    42A      0.152091  
      43A      0.157336    44A      0.158513    45A      0.196774  
      46A      0.223404    47A      0.241065    48A      0.242659  
      49A      0.243693    50A      0.254310    51A      0.256746  
      52A      0.270046    53A      0.272403    54A      0.285217  
      55A      0.291376    56A      0.292341    57A      0.303996  
      58A      0.306055    59A      0.322023    60A      0.326950  
      61A      0.334324    62A      0.339914    63A      0.341483  
      64A      0.352465    65A      0.354164    66A      0.373573  
      67A      0.384877    68A      0.400202    69A      0.409561  
      70A      0.419551    71A      0.429175    72A      0.432524  
      73A      0.433174    74A      0.439488    75A      0.441395  
      76A      0.451688    77A      0.460392    78A      0.464804  
      79A      0.471192    80A      0.476173    81A      0.480388  
      82A      0.490487    83A      0.494016    84A      0.496956  
      85A      0.510325    86A      0.523440    87A      0.535367  
      88A      0.541651    89A      0.541896    90A      0.543977  
      91A      0.561349    92A      0.589277    93A      0.615173  
      94A      0.615805    95A      0.621154    96A      0.625259  
      97A      0.634906    98A      0.649116    99A      0.651148  
     100A      0.652000   101A      0.672202   102A      0.695886  
     103A      0.710142   104A      0.713786   105A      0.732560  
     106A      0.740091   107A      0.767553   108A      0.770931  
     109A      0.774998   110A      0.779761   111A      0.794024  
     112A      0.800773   113A      0.816394   114A      0.834136  
     115A      0.836272   116A      0.845512   117A      0.849068  
     118A      0.863404   119A      0.882075   120A      0.883217  
     121A      0.885794   122A      0.887925   123A      0.902688  
     124A      0.924864   125A      0.931174   126A      0.937513  
     127A      0.949396   128A      0.952755   129A      0.955558  
     130A      0.959475   131A      0.986021   132A      0.989362  
     133A      1.006199   134A      1.007323   135A      1.014460  
     136A      1.041709   137A      1.044666   138A      1.063613  
     139A      1.070553   140A      1.072008   141A      1.075441  
     142A      1.081250   143A      1.086755   144A      1.088666  
     145A      1.111626   146A      1.112678   147A      1.141152  
     148A      1.152415   149A      1.168057   150A      1.170496  
     151A      1.175670   152A      1.184972   153A      1.186717  
     154A      1.186744   155A      1.194621   156A      1.198061  
     157A      1.209731   158A      1.222093   159A      1.226567  
     160A      1.239715   161A      1.267680   162A      1.274626  
     163A      1.281487   164A      1.287962   165A      1.292127  
     166A      1.297304   167A      1.351159   168A      1.374387  
     169A      1.402901   170A      1.424061   171A      1.443659  
     172A      1.446910   173A      1.460447   174A      1.496055  
     175A      1.504435   176A      1.510898   177A      1.519262  
     178A      1.536355   179A      1.540653   180A      1.587536  
     181A      1.596957   182A      1.628235   183A      1.630759  
     184A      1.668307   185A      1.687437   186A      1.693149  
     187A      1.709519   188A      1.713369   189A      1.717632  
     190A      1.742644   191A      1.757935   192A      1.778871  
     193A      1.787448   194A      1.802819   195A      1.826756  
     196A      1.835074   197A      1.846245   198A      1.855589  
     199A      1.873041   200A      1.883007   201A      1.889606  
     202A      1.912911   203A      1.948869   204A      1.958996  
     205A      1.961667   206A      1.963460   207A      2.014011  
     208A      2.023424   209A      2.025698   210A      2.038150  
     211A      2.040233   212A      2.040683   213A      2.069982  
     214A      2.084207   215A      2.095577   216A      2.130214  
     217A      2.145277   218A      2.157423   219A      2.162147  
     220A      2.162393   221A      2.215002   222A      2.216399  
     223A      2.249581   224A      2.252358   225A      2.295416  
     226A      2.314595   227A      2.359539   228A      2.374761  
     229A      2.385714   230A      2.408415   231A      2.429467  
     232A      2.435465   233A      2.448974   234A      2.510380  
     235A      2.536029   236A      2.541790   237A      2.585033  
     238A      2.649124   239A      2.657291   240A      2.671859  
     241A      2.674866   242A      2.806859   243A      2.809533  
     244A      2.819090   245A      2.913267   246A      2.922707  
     247A      2.973898   248A      2.984404   249A      3.047935  
     250A      3.048332   251A      3.135944   252A      3.159623  
     253A      3.161580   254A      3.248444   255A      3.259939  
     256A      3.303750   257A      3.310447   258A      3.317448  
     259A      3.347497   260A      3.356895   261A      3.386018  
     262A      3.404974   263A      3.408603   264A      3.428968  
     265A      3.432107   266A      3.452654   267A      3.474265  
     268A      3.494291   269A      3.533857   270A      3.541769  
     271A      3.551660   272A      3.563909   273A      3.566139  
     274A      3.579782   275A      3.637632   276A      3.653329  
     277A      3.686637   278A      3.703094   279A      3.710663  
     280A      3.731140   281A      3.762845   282A      3.773336  
     283A      3.773637   284A      3.819874   285A      3.838753  
     286A      3.859246   287A      3.863891   288A      3.875443  
     289A      3.895086   290A      3.921648   291A      3.923649  
     292A      3.953946   293A      3.973103   294A      3.991169  
     295A      3.996352   296A      4.034415   297A      4.043659  
     298A      4.067561   299A      4.089004   300A      4.098786  
     301A      4.127621   302A      4.129071   303A      4.136464  
     304A      4.144495   305A      4.170312   306A      4.205748  
     307A      4.222078   308A      4.226561   309A      4.230594  
     310A      4.265981   311A      4.273389   312A      4.331250  
     313A      4.370828   314A      4.381363   315A      4.412581  
     316A      4.427800   317A      4.437598   318A      4.441065  
     319A      4.466737   320A      4.518197   321A      4.520075  
     322A      4.523882   323A      4.562747   324A      4.646818  
     325A      4.659845   326A      4.694750   327A      4.744914  
     328A      4.755764   329A      4.789838   330A      4.839197  
     331A      4.870384   332A      4.889195   333A      4.899403  
     334A      4.936073   335A      4.958541   336A      4.968083  
     337A      4.989007   338A      5.025637   339A      5.038336  
     340A      5.061586   341A      5.078135   342A      5.106937  
     343A      5.121581   344A      5.140230   345A      5.145604  
     346A      5.195512   347A      5.223711   348A      5.226700  
     349A      5.232104   350A      5.330236   351A      5.386675  
     352A      5.395762   353A      5.403437   354A      5.428389  
     355A      5.446669   356A      5.474370   357A      5.518505  
     358A      5.528407   359A      5.589258   360A      5.605088  
     361A      5.654845   362A      5.779639   363A      5.796610  
     364A      5.813917   365A      5.853567   366A      5.867457  
     367A      5.906891   368A      5.912723   369A      5.974652  
     370A      6.080525   371A      6.118294   372A      6.195655  
     373A      6.228607   374A      6.303368   375A      6.393436  
     376A      6.509816   377A      6.667700   378A      6.681142  
     379A      6.681305   380A      6.741399   381A      6.822542  
     382A      6.880845   383A      7.074536   384A      7.091530  
     385A      7.481243   386A     15.493140   387A     16.290849  
     388A     18.252555   389A     18.577484   390A     19.188714  
     391A     19.267308  

    Final Occupation by Irrep:
              A 
    DOCC [    21 ]

  @DF-RHF Final Energy:  -246.77866346846179

   => Energetics <=

    Nuclear Repulsion Energy =            206.2349268025168953
    One-Electron Energy =                -741.2473345653901333
    Two-Electron Energy =                 288.2337442944113945
    Total Energy =                       -246.7786634684617866

Computation Completed


Properties will be evaluated at   0.000000,   0.000000,   0.000000 [a0]

Properties computed using the SCF density matrix

  Nuclear Dipole Moment: [e a0]
     X:   129.6778      Y:   -25.7019      Z:     1.1975

  Electronic Dipole Moment: [e a0]
     X:  -129.0380      Y:    26.3502      Z:    -1.0980

  Dipole Moment: [e a0]
     X:     0.6397      Y:     0.6483      Z:     0.0995     Total:     0.9162

  Dipole Moment: [D]
     X:     1.6261      Y:     1.6478      Z:     0.2529     Total:     2.3288


*** tstop() called on node98.bme.utexas.edu at Thu Apr 23 18:59:56 2020
Module time:
	user time   =      42.08 seconds =       0.70 minutes
	system time =       1.12 seconds =       0.02 minutes
	total time  =          6 seconds =       0.10 minutes
Total time:
	user time   =      42.08 seconds =       0.70 minutes
	system time =       1.12 seconds =       0.02 minutes
	total time  =          6 seconds =       0.10 minutes

*** tstart() called on node98.bme.utexas.edu
*** at Thu Apr 23 18:59:56 2020


  //>>>>>>>>>>>>>>>>>>>>>>>>>>>>>>>>>>>//
  //               DFMP2               //
  //<<<<<<<<<<<<<<<<<<<<<<<<<<<<<<<<<<<//

   => Loading Basis Set <=

    Name: (AUG-CC-PVTZ AUX)
    Role: RIFIT
    Keyword: DF_BASIS_MP2
    atoms 1              entry N          line   206 file /home/liuchw/anaconda3/envs/psi4env/share/psi4/basis/aug-cc-pvtz-ri.gbs 
    atoms 2, 4, 6, 8, 10 entry C          line   148 file /home/liuchw/anaconda3/envs/psi4env/share/psi4/basis/aug-cc-pvtz-ri.gbs 
    atoms 3, 5, 7, 9, 11 entry H          line    30 file /home/liuchw/anaconda3/envs/psi4env/share/psi4/basis/aug-cc-pvtz-ri.gbs 

	 --------------------------------------------------------
	                          DF-MP2                         
	      2nd-Order Density-Fitted Moller-Plesset Theory     
	              RMP2 Wavefunction,   8 Threads             
	                                                         
	        Rob Parrish, Justin Turney, Andy Simmonett,      
	           Ed Hohenstein, and C. David Sherrill          
	 --------------------------------------------------------

   => Auxiliary Basis Set <=

  Basis Set: (AUG-CC-PVTZ AUX)
    Blend: AUG-CC-PVTZ-RI
    Number of shells: 238
    Number of basis function: 866
    Number of Cartesian functions: 1091
    Spherical Harmonics?: true
    Max angular momentum: 4

	 --------------------------------------------------------
	                 NBF =   391, NAUX =   866
	 --------------------------------------------------------
	   CLASS    FOCC     OCC    AOCC    AVIR     VIR    FVIR
	   PAIRS       0      21      21     370     370       0
	 --------------------------------------------------------

	-----------------------------------------------------------
	 ==================> DF-MP2 Energies <==================== 
	-----------------------------------------------------------
	 Reference Energy          =    -246.7786634684617866 [Eh]
	 Singles Energy            =      -0.0000000000000000 [Eh]
	 Same-Spin Energy          =      -0.2688005667321229 [Eh]
	 Opposite-Spin Energy      =      -0.8388286176882103 [Eh]
	 Correlation Energy        =      -1.1076291844203332 [Eh]
	 Total Energy              =    -247.8862926528821333 [Eh]
	-----------------------------------------------------------
	 ================> DF-SCS-MP2 Energies <================== 
	-----------------------------------------------------------
	 SCS Same-Spin Scale       =       0.3333333333333333 [-]
	 SCS Opposite-Spin Scale   =       1.2000000000000000 [-]
	 SCS Same-Spin Energy      =      -0.0896001889107076 [Eh]
	 SCS Opposite-Spin Energy  =      -1.0065943412258522 [Eh]
	 SCS Correlation Energy    =      -1.0961945301365599 [Eh]
	 SCS Total Energy          =    -247.8748579985983440 [Eh]
	-----------------------------------------------------------


*** tstop() called on node98.bme.utexas.edu at Thu Apr 23 18:59:59 2020
Module time:
	user time   =      19.39 seconds =       0.32 minutes
	system time =       0.53 seconds =       0.01 minutes
	total time  =          3 seconds =       0.05 minutes
Total time:
	user time   =      61.47 seconds =       1.02 minutes
	system time =       1.65 seconds =       0.03 minutes
	total time  =          9 seconds =       0.15 minutes

  //>>>>>>>>>>>>>>>>>>>>>>>>>>>>>>>>>>>>//
  // CBS Computation: MP2 / AUG-CC-PVQZ //
  //<<<<<<<<<<<<<<<<<<<<<<<<<<<<<<<<<<<<//


Scratch directory: /scratch/liuchw/

*** tstart() called on node98.bme.utexas.edu
*** at Thu Apr 23 18:59:59 2020

   => Loading Basis Set <=

    Name: AUG-CC-PVQZ
    Role: ORBITAL
    Keyword: BASIS
    atoms 1              entry N          line   363 file /home/liuchw/anaconda3/envs/psi4env/share/psi4/basis/aug-cc-pvqz.gbs 
    atoms 2, 4, 6, 8, 10 entry C          line   303 file /home/liuchw/anaconda3/envs/psi4env/share/psi4/basis/aug-cc-pvqz.gbs 
    atoms 3, 5, 7, 9, 11 entry H          line    40 file /home/liuchw/anaconda3/envs/psi4env/share/psi4/basis/aug-cc-pvqz.gbs 


         ---------------------------------------------------------
                                   SCF
               by Justin Turney, Rob Parrish, Andy Simmonett
                          and Daniel G. A. Smith
                              RHF Reference
                        8 Threads,  19073 MiB Core
         ---------------------------------------------------------

  ==> Geometry <==

    Molecular point group: c1
    Full point group: C1

    Geometry (in Angstrom), charge = 0, multiplicity = 1:

       Center              X                  Y                   Z               Mass       
    ------------   -----------------  -----------------  -----------------  -----------------
         N            0.636051994057    -1.323777248483    -0.137262155294    14.003074004430
         C            0.974491994057    -0.511437248483    -1.148982155294    12.000000000000
         H            0.431821994057    -0.655977248483    -2.074362155294     1.007825032230
         C            1.945821994057     0.480692751517    -1.048612155294    12.000000000000
         H            2.170671994057     1.105042751517    -1.901462155294     1.007825032230
         C            2.606651994057     0.650242751517     0.163657844706    12.000000000000
         H            3.364511994057     1.412472751517     0.280037844706     1.007825032230
         C            2.266521994057    -0.184727248483     1.222777844706    12.000000000000
         H            2.749111994057    -0.094257248483     2.185477844706     1.007825032230
         C            1.282741994057    -1.149507248483     1.023597844706    12.000000000000
         H            0.996661994057    -1.813257248483     1.830207844706     1.007825032230

  Running in c1 symmetry.

  Rotational constants: A =      0.12675  B =      0.05586  C =      0.05012 [cm^-1]
  Rotational constants: A =   3799.82271  B =   1674.66255  C =   1502.59511 [MHz]
  Nuclear repulsion =  206.234926802516895

  Charge       = 0
  Multiplicity = 1
  Electrons    = 42
  Nalpha       = 21
  Nbeta        = 21

  ==> Algorithm <==

  SCF Algorithm Type is DF.
  DIIS enabled.
  MOM disabled.
  Fractional occupation disabled.
  Guess Type is SAD.
  Energy threshold   = 1.00e-07
  Density threshold  = 1.00e-08
  Integral threshold = 0.00e+00

  ==> Primary Basis <==

  Basis Set: AUG-CC-PVQZ
    Blend: AUG-CC-PVQZ
    Number of shells: 190
    Number of basis function: 710
    Number of Cartesian functions: 905
    Spherical Harmonics?: true
    Max angular momentum: 4

   => Loading Basis Set <=

    Name: (AUG-CC-PVQZ AUX)
    Role: JKFIT
    Keyword: DF_BASIS_SCF
    atoms 1              entry N          line   248 file /home/liuchw/anaconda3/envs/psi4env/share/psi4/basis/aug-cc-pvqz-jkfit.gbs 
    atoms 2, 4, 6, 8, 10 entry C          line   178 file /home/liuchw/anaconda3/envs/psi4env/share/psi4/basis/aug-cc-pvqz-jkfit.gbs 
    atoms 3, 5, 7, 9, 11 entry H          line    70 file /home/liuchw/anaconda3/envs/psi4env/share/psi4/basis/aug-cc-pvqz-jkfit.gbs 

  ==> Pre-Iterations <==

   -------------------------------------------------------
    Irrep   Nso     Nmo     Nalpha   Nbeta   Ndocc  Nsocc
   -------------------------------------------------------
     A        710     710       0       0       0       0
   -------------------------------------------------------
    Total     710     710      21      21      21       0
   -------------------------------------------------------

  ==> Integral Setup <==

  DFHelper Memory: AOs need 4.667 GiB; user supplied 13.970 GiB. Using in-core AOs.

  ==> MemDFJK: Density-Fitted J/K Matrices <==

    J tasked:                   Yes
    K tasked:                   Yes
    wK tasked:                   No
    OpenMP threads:               8
    Memory [MiB]:             14305
    Algorithm:                 Core
    Schwarz Cutoff:           1E-12
    Mask sparsity (%):       2.7134
    Fitting Condition:        1E-10

   => Auxiliary Basis Set <=

  Basis Set: (AUG-CC-PVQZ AUX)
    Blend: AUG-CC-PVQZ-JKFIT
    Number of shells: 294
    Number of basis function: 1232
    Number of Cartesian functions: 1693
    Spherical Harmonics?: true
    Max angular momentum: 5

  Minimum eigenvalue in the overlap matrix is 6.9055127653E-07.
  Using Symmetric Orthogonalization.

  SCF Guess: Superposition of Atomic Densities via on-the-fly atomic UHF.

  ==> Iterations <==

                           Total Energy        Delta E     RMS |[F,P]|

   @DF-RHF iter SAD:  -246.16764806233064   -2.46168e+02   0.00000e+00 
   @DF-RHF iter   1:  -246.64667523382082   -4.79027e-01   6.98972e-04 DIIS
   @DF-RHF iter   2:  -246.76710616819850   -1.20431e-01   3.21045e-04 DIIS
   @DF-RHF iter   3:  -246.79131704715587   -2.42109e-02   6.25827e-05 DIIS
   @DF-RHF iter   4:  -246.79271418917000   -1.39714e-03   1.78931e-05 DIIS
   @DF-RHF iter   5:  -246.79279362328737   -7.94341e-05   6.12637e-06 DIIS
   @DF-RHF iter   6:  -246.79280465251250   -1.10292e-05   1.37498e-06 DIIS
   @DF-RHF iter   7:  -246.79280542288734   -7.70375e-07   4.70722e-07 DIIS
   @DF-RHF iter   8:  -246.79280551535427   -9.24669e-08   1.99305e-07 DIIS
   @DF-RHF iter   9:  -246.79280554225846   -2.69042e-08   5.60974e-08 DIIS
   @DF-RHF iter  10:  -246.79280554549172   -3.23325e-09   2.05601e-08 DIIS
   @DF-RHF iter  11:  -246.79280554609096   -5.99243e-10   1.23618e-08 DIIS
   @DF-RHF iter  12:  -246.79280554625734   -1.66381e-10   3.91117e-09 DIIS
  Energy and wave function converged.


  ==> Post-Iterations <==

    Orbital Energies [Eh]
    ---------------------

    Doubly Occupied:                                                      

       1A    -15.565149     2A    -11.274390     3A    -11.274358  
       4A    -11.259632     5A    -11.241456     6A    -11.241399  
       7A     -1.256137     8A     -1.089737     9A     -1.033915  
      10A     -0.859685    11A     -0.856021    12A     -0.722448  
      13A     -0.660856    14A     -0.654755    15A     -0.599023  
      16A     -0.577622    17A     -0.541512    18A     -0.520607  
      19A     -0.419788    20A     -0.384241    21A     -0.348387  

    Virtual:                                                              

      22A      0.023002    23A      0.028861    24A      0.033240  
      25A      0.043055    26A      0.047143    27A      0.066001  
      28A      0.081776    29A      0.087666    30A      0.088962  
      31A      0.091294    32A      0.095121    33A      0.095946  
      34A      0.097185    35A      0.099914    36A      0.102426  
      37A      0.112986    38A      0.114985    39A      0.124439  
      40A      0.127445    41A      0.128232    42A      0.132060  
      43A      0.133613    44A      0.137014    45A      0.170316  
      46A      0.186520    47A      0.205039    48A      0.210250  
      49A      0.211607    50A      0.215913    51A      0.221509  
      52A      0.228845    53A      0.237147    54A      0.244860  
      55A      0.245489    56A      0.253970    57A      0.254153  
      58A      0.254253    59A      0.266528    60A      0.280516  
      61A      0.286069    62A      0.289992    63A      0.293963  
      64A      0.296354    65A      0.300179    66A      0.301089  
      67A      0.309465    68A      0.318651    69A      0.318980  
      70A      0.319894    71A      0.338360    72A      0.350130  
      73A      0.351211    74A      0.362416    75A      0.365012  
      76A      0.368657    77A      0.369046    78A      0.384189  
      79A      0.386006    80A      0.399987    81A      0.400859  
      82A      0.419792    83A      0.423490    84A      0.424817  
      85A      0.427253    86A      0.430074    87A      0.435126  
      88A      0.437230    89A      0.440355    90A      0.455640  
      91A      0.459396    92A      0.467551    93A      0.470636  
      94A      0.471287    95A      0.490559    96A      0.490993  
      97A      0.505684    98A      0.506750    99A      0.512930  
     100A      0.518014   101A      0.518923   102A      0.530444  
     103A      0.542103   104A      0.567026   105A      0.567382  
     106A      0.572432   107A      0.580269   108A      0.582287  
     109A      0.587459   110A      0.602886   111A      0.610559  
     112A      0.611407   113A      0.623338   114A      0.645248  
     115A      0.656319   116A      0.659283   117A      0.663026  
     118A      0.667843   119A      0.669473   120A      0.675007  
     121A      0.702885   122A      0.704808   123A      0.706932  
     124A      0.719947   125A      0.731339   126A      0.734906  
     127A      0.736241   128A      0.744364   129A      0.748848  
     130A      0.758042   131A      0.765224   132A      0.778128  
     133A      0.781088   134A      0.787528   135A      0.791303  
     136A      0.797835   137A      0.801337   138A      0.801757  
     139A      0.809658   140A      0.823060   141A      0.834102  
     142A      0.840111   143A      0.843214   144A      0.849531  
     145A      0.854984   146A      0.860294   147A      0.891791  
     148A      0.892546   149A      0.899120   150A      0.902999  
     151A      0.920511   152A      0.926854   153A      0.933303  
     154A      0.937293   155A      0.950745   156A      0.951450  
     157A      0.953774   158A      0.962361   159A      0.963738  
     160A      0.966689   161A      0.977350   162A      0.988348  
     163A      0.989727   164A      1.001391   165A      1.023230  
     166A      1.027594   167A      1.046870   168A      1.057840  
     169A      1.082421   170A      1.090411   171A      1.092411  
     172A      1.111094   173A      1.124196   174A      1.131295  
     175A      1.142116   176A      1.162540   177A      1.166430  
     178A      1.178969   179A      1.182201   180A      1.182323  
     181A      1.194184   182A      1.212728   183A      1.228691  
     184A      1.229952   185A      1.230612   186A      1.248847  
     187A      1.259092   188A      1.260956   189A      1.299890  
     190A      1.301283   191A      1.317578   192A      1.317855  
     193A      1.330297   194A      1.330347   195A      1.355324  
     196A      1.365131   197A      1.371305   198A      1.381332  
     199A      1.384310   200A      1.389255   201A      1.396187  
     202A      1.402900   203A      1.419904   204A      1.421023  
     205A      1.426095   206A      1.434284   207A      1.459461  
     208A      1.471591   209A      1.495119   210A      1.515852  
     211A      1.526955   212A      1.542592   213A      1.546667  
     214A      1.547769   215A      1.548827   216A      1.553220  
     217A      1.556694   218A      1.571759   219A      1.579870  
     220A      1.583557   221A      1.587559   222A      1.600991  
     223A      1.608566   224A      1.613922   225A      1.620678  
     226A      1.626410   227A      1.645051   228A      1.670550  
     229A      1.672607   230A      1.698788   231A      1.720940  
     232A      1.729636   233A      1.734312   234A      1.739424  
     235A      1.748818   236A      1.773016   237A      1.780265  
     238A      1.797919   239A      1.835999   240A      1.836262  
     241A      1.837070   242A      1.851017   243A      1.855335  
     244A      1.862729   245A      1.909127   246A      1.910252  
     247A      1.922048   248A      1.933079   249A      1.937444  
     250A      1.937919   251A      1.972672   252A      1.975309  
     253A      1.977033   254A      1.991044   255A      1.994555  
     256A      2.003480   257A      2.007551   258A      2.010930  
     259A      2.014815   260A      2.039323   261A      2.048929  
     262A      2.059881   263A      2.068752   264A      2.074895  
     265A      2.081429   266A      2.084305   267A      2.092377  
     268A      2.099643   269A      2.122272   270A      2.127380  
     271A      2.151555   272A      2.152510   273A      2.153801  
     274A      2.167729   275A      2.190882   276A      2.197048  
     277A      2.231278   278A      2.238311   279A      2.240968  
     280A      2.250274   281A      2.254572   282A      2.259509  
     283A      2.275710   284A      2.278581   285A      2.279305  
     286A      2.294424   287A      2.302996   288A      2.305380  
     289A      2.315671   290A      2.337622   291A      2.339855  
     292A      2.344061   293A      2.366630   294A      2.376376  
     295A      2.382749   296A      2.385598   297A      2.387474  
     298A      2.414465   299A      2.416979   300A      2.423828  
     301A      2.425086   302A      2.448302   303A      2.458528  
     304A      2.468573   305A      2.469353   306A      2.469987  
     307A      2.484989   308A      2.509012   309A      2.509849  
     310A      2.515987   311A      2.528905   312A      2.559851  
     313A      2.561003   314A      2.568734   315A      2.574778  
     316A      2.576256   317A      2.588033   318A      2.594216  
     319A      2.596073   320A      2.612305   321A      2.627178  
     322A      2.631287   323A      2.633599   324A      2.707535  
     325A      2.708926   326A      2.709627   327A      2.726931  
     328A      2.759606   329A      2.763454   330A      2.770278  
     331A      2.772488   332A      2.784698   333A      2.802809  
     334A      2.804721   335A      2.805026   336A      2.819936  
     337A      2.838394   338A      2.859293   339A      2.881666  
     340A      2.904143   341A      2.905927   342A      2.930623  
     343A      2.943957   344A      2.965445   345A      2.997094  
     346A      3.006061   347A      3.017956   348A      3.028131  
     349A      3.028953   350A      3.029918   351A      3.072423  
     352A      3.077666   353A      3.097617   354A      3.135037  
     355A      3.137892   356A      3.138994   357A      3.147510  
     358A      3.168326   359A      3.211929   360A      3.215095  
     361A      3.229448   362A      3.234713   363A      3.269887  
     364A      3.274662   365A      3.298422   366A      3.303020  
     367A      3.311976   368A      3.314264   369A      3.339791  
     370A      3.352449   371A      3.360988   372A      3.374463  
     373A      3.379889   374A      3.390698   375A      3.446176  
     376A      3.454626   377A      3.465129   378A      3.503271  
     379A      3.524713   380A      3.528293   381A      3.547745  
     382A      3.571901   383A      3.603969   384A      3.604778  
     385A      3.629715   386A      3.654849   387A      3.668740  
     388A      3.677324   389A      3.678441   390A      3.713709  
     391A      3.720408   392A      3.726550   393A      3.747438  
     394A      3.748325   395A      3.795927   396A      3.821463  
     397A      3.835347   398A      3.854282   399A      3.879409  
     400A      3.888894   401A      3.895673   402A      3.919898  
     403A      3.926083   404A      3.929206   405A      3.933971  
     406A      3.962383   407A      3.967814   408A      3.974091  
     409A      4.014550   410A      4.030888   411A      4.033577  
     412A      4.046385   413A      4.052011   414A      4.085257  
     415A      4.124655   416A      4.140883   417A      4.144171  
     418A      4.152465   419A      4.157714   420A      4.192322  
     421A      4.202977   422A      4.252318   423A      4.268441  
     424A      4.270144   425A      4.324218   426A      4.325211  
     427A      4.339489   428A      4.371072   429A      4.377008  
     430A      4.402396   431A      4.405205   432A      4.435338  
     433A      4.438424   434A      4.466199   435A      4.471133  
     436A      4.496441   437A      4.502813   438A      4.510968  
     439A      4.549858   440A      4.566549   441A      4.567941  
     442A      4.576967   443A      4.607856   444A      4.618344  
     445A      4.668440   446A      4.691559   447A      4.698927  
     448A      4.723307   449A      4.744525   450A      4.789073  
     451A      4.826568   452A      4.855288   453A      4.884991  
     454A      4.896880   455A      4.907116   456A      4.932079  
     457A      4.974088   458A      4.997600   459A      5.000449  
     460A      5.026789   461A      5.036130   462A      5.070251  
     463A      5.118350   464A      5.146680   465A      5.199841  
     466A      5.219263   467A      5.240485   468A      5.299511  
     469A      5.373733   470A      5.408337   471A      5.431410  
     472A      5.445971   473A      5.471933   474A      5.546719  
     475A      5.619444   476A      5.700471   477A      5.739607  
     478A      5.798467   479A      5.799579   480A      5.827890  
     481A      5.847231   482A      5.889944   483A      5.916245  
     484A      5.986970   485A      6.008795   486A      6.043853  
     487A      6.052106   488A      6.079483   489A      6.099697  
     490A      6.121203   491A      6.132139   492A      6.154099  
     493A      6.156946   494A      6.185008   495A      6.216415  
     496A      6.306582   497A      6.309076   498A      6.324031  
     499A      6.378583   500A      6.384446   501A      6.414197  
     502A      6.428557   503A      6.465475   504A      6.472272  
     505A      6.515079   506A      6.545603   507A      6.584131  
     508A      6.588495   509A      6.592437   510A      6.601457  
     511A      6.615312   512A      6.637162   513A      6.638530  
     514A      6.650755   515A      6.653209   516A      6.667931  
     517A      6.683732   518A      6.710320   519A      6.752455  
     520A      6.774749   521A      6.794468   522A      6.802895  
     523A      6.820940   524A      6.854487   525A      6.863036  
     526A      6.890160   527A      6.900151   528A      6.904131  
     529A      6.936873   530A      6.956418   531A      6.980157  
     532A      7.000773   533A      7.022117   534A      7.023538  
     535A      7.031901   536A      7.053213   537A      7.063530  
     538A      7.080884   539A      7.091418   540A      7.123132  
     541A      7.147771   542A      7.149381   543A      7.166594  
     544A      7.185753   545A      7.199799   546A      7.216738  
     547A      7.217153   548A      7.242584   549A      7.284840  
     550A      7.290991   551A      7.325321   552A      7.326955  
     553A      7.343035   554A      7.387062   555A      7.395589  
     556A      7.400203   557A      7.405795   558A      7.437559  
     559A      7.464402   560A      7.503667   561A      7.521243  
     562A      7.569233   563A      7.581972   564A      7.589456  
     565A      7.631895   566A      7.640194   567A      7.643664  
     568A      7.682514   569A      7.715109   570A      7.745159  
     571A      7.770365   572A      7.774675   573A      7.781399  
     574A      7.810462   575A      7.838808   576A      7.857408  
     577A      7.878074   578A      7.927585   579A      7.944342  
     580A      8.001594   581A      8.007041   582A      8.017626  
     583A      8.028567   584A      8.063826   585A      8.072244  
     586A      8.093524   587A      8.145472   588A      8.147170  
     589A      8.151541   590A      8.279129   591A      8.303128  
     592A      8.322906   593A      8.354122   594A      8.364420  
     595A      8.381999   596A      8.458771   597A      8.490464  
     598A      8.523111   599A      8.545498   600A      8.618887  
     601A      8.619433   602A      8.639700   603A      8.665154  
     604A      8.696954   605A      8.698484   606A      8.708127  
     607A      8.718615   608A      8.810687   609A      8.822946  
     610A      8.858859   611A      8.874337   612A      8.891118  
     613A      8.891469   614A      8.937781   615A      8.945168  
     616A      8.957153   617A      8.959522   618A      8.963139  
     619A      9.040212   620A      9.049359   621A      9.080104  
     622A      9.119380   623A      9.141923   624A      9.173710  
     625A      9.195095   626A      9.203632   627A      9.218580  
     628A      9.257204   629A      9.328568   630A      9.354875  
     631A      9.394205   632A      9.399744   633A      9.417820  
     634A      9.447266   635A      9.500029   636A      9.549456  
     637A      9.553399   638A      9.554795   639A      9.593651  
     640A      9.596336   641A      9.609948   642A      9.649823  
     643A      9.702995   644A      9.722195   645A      9.725280  
     646A      9.738501   647A      9.795774   648A      9.866692  
     649A      9.900875   650A      9.963596   651A      9.963953  
     652A      9.965333   653A      9.983629   654A     10.010048  
     655A     10.016227   656A     10.028268   657A     10.093075  
     658A     10.216873   659A     10.232407   660A     10.234859  
     661A     10.245226   662A     10.291964   663A     10.319025  
     664A     10.332230   665A     10.382938   666A     10.392459  
     667A     10.466020   668A     10.476614   669A     10.498791  
     670A     10.505937   671A     10.512560   672A     10.579944  
     673A     10.638397   674A     10.654613   675A     10.719151  
     676A     10.764734   677A     10.769508   678A     10.777345  
     679A     10.795235   680A     10.845968   681A     10.881879  
     682A     11.052741   683A     11.067977   684A     11.195948  
     685A     11.197902   686A     11.365921   687A     11.377382  
     688A     11.448034   689A     11.454139   690A     11.566585  
     691A     11.637804   692A     11.668825   693A     11.697146  
     694A     11.772043   695A     11.898795   696A     12.288716  
     697A     12.490541   698A     12.730748   699A     12.843415  
     700A     13.203684   701A     13.369062   702A     13.378830  
     703A     13.522826   704A     13.572877   705A     26.166026  
     706A     26.285074   707A     26.523521   708A     26.941298  
     709A     27.185827   710A     34.207865  

    Final Occupation by Irrep:
              A 
    DOCC [    21 ]

  @DF-RHF Final Energy:  -246.79280554625734

   => Energetics <=

    Nuclear Repulsion Energy =            206.2349268025168953
    One-Electron Energy =                -741.2932289298034902
    Two-Electron Energy =                 288.2654965810293106
    Total Energy =                       -246.7928055462573411

Computation Completed


Properties will be evaluated at   0.000000,   0.000000,   0.000000 [a0]

Properties computed using the SCF density matrix

  Nuclear Dipole Moment: [e a0]
     X:   129.6778      Y:   -25.7019      Z:     1.1975

  Electronic Dipole Moment: [e a0]
     X:  -129.0386      Y:    26.3496      Z:    -1.0981

  Dipole Moment: [e a0]
     X:     0.6392      Y:     0.6478      Z:     0.0994     Total:     0.9155

  Dipole Moment: [D]
     X:     1.6247      Y:     1.6464      Z:     0.2526     Total:     2.3269


*** tstop() called on node98.bme.utexas.edu at Thu Apr 23 19:00:21 2020
Module time:
	user time   =     155.55 seconds =       2.59 minutes
	system time =       2.97 seconds =       0.05 minutes
	total time  =         22 seconds =       0.37 minutes
Total time:
	user time   =     217.07 seconds =       3.62 minutes
	system time =       4.62 seconds =       0.08 minutes
	total time  =         31 seconds =       0.52 minutes

*** tstart() called on node98.bme.utexas.edu
*** at Thu Apr 23 19:00:21 2020


  //>>>>>>>>>>>>>>>>>>>>>>>>>>>>>>>>>>>//
  //               DFMP2               //
  //<<<<<<<<<<<<<<<<<<<<<<<<<<<<<<<<<<<//

   => Loading Basis Set <=

    Name: (AUG-CC-PVQZ AUX)
    Role: RIFIT
    Keyword: DF_BASIS_MP2
    atoms 1              entry N          line   258 file /home/liuchw/anaconda3/envs/psi4env/share/psi4/basis/aug-cc-pvqz-ri.gbs 
    atoms 2, 4, 6, 8, 10 entry C          line   184 file /home/liuchw/anaconda3/envs/psi4env/share/psi4/basis/aug-cc-pvqz-ri.gbs 
    atoms 3, 5, 7, 9, 11 entry H          line    30 file /home/liuchw/anaconda3/envs/psi4env/share/psi4/basis/aug-cc-pvqz-ri.gbs 

	 --------------------------------------------------------
	                          DF-MP2                         
	      2nd-Order Density-Fitted Moller-Plesset Theory     
	              RMP2 Wavefunction,   8 Threads             
	                                                         
	        Rob Parrish, Justin Turney, Andy Simmonett,      
	           Ed Hohenstein, and C. David Sherrill          
	 --------------------------------------------------------

   => Auxiliary Basis Set <=

  Basis Set: (AUG-CC-PVQZ AUX)
    Blend: AUG-CC-PVQZ-RI
    Number of shells: 316
    Number of basis function: 1408
    Number of Cartesian functions: 1947
    Spherical Harmonics?: true
    Max angular momentum: 5

	 --------------------------------------------------------
	                 NBF =   710, NAUX =  1408
	 --------------------------------------------------------
	   CLASS    FOCC     OCC    AOCC    AVIR     VIR    FVIR
	   PAIRS       0      21      21     689     689       0
	 --------------------------------------------------------

	-----------------------------------------------------------
	 ==================> DF-MP2 Energies <==================== 
	-----------------------------------------------------------
	 Reference Energy          =    -246.7928055462573411 [Eh]
	 Singles Energy            =      -0.0000000000000000 [Eh]
	 Same-Spin Energy          =      -0.2841754074477610 [Eh]
	 Opposite-Spin Energy      =      -0.9424031349831772 [Eh]
	 Correlation Energy        =      -1.2265785424309381 [Eh]
	 Total Energy              =    -248.0193840886882697 [Eh]
	-----------------------------------------------------------
	 ================> DF-SCS-MP2 Energies <================== 
	-----------------------------------------------------------
	 SCS Same-Spin Scale       =       0.3333333333333333 [-]
	 SCS Opposite-Spin Scale   =       1.2000000000000000 [-]
	 SCS Same-Spin Energy      =      -0.0947251358159203 [Eh]
	 SCS Opposite-Spin Energy  =      -1.1308837619798127 [Eh]
	 SCS Correlation Energy    =      -1.2256088977957329 [Eh]
	 SCS Total Energy          =    -248.0184144440530645 [Eh]
	-----------------------------------------------------------


*** tstop() called on node98.bme.utexas.edu at Thu Apr 23 19:00:35 2020
Module time:
	user time   =      74.92 seconds =       1.25 minutes
	system time =       1.87 seconds =       0.03 minutes
	total time  =         14 seconds =       0.23 minutes
Total time:
	user time   =     292.00 seconds =       4.87 minutes
	system time =       6.49 seconds =       0.11 minutes
	total time  =         45 seconds =       0.75 minutes

  //>>>>>>>>>>>>>>>>>>>>>>>>>>>>>>>>>>>//
  //  CBS Results: mp2/aug-cc-pv[tq]z  //
  //<<<<<<<<<<<<<<<<<<<<<<<<<<<<<<<<<<<//


   ==> HF <==

   HI-zeta (4) Energy:               -246.792805546257


   ==> Helgaker 2-point correlated extrapolation for method: MP2 <==

   LO-zeta (3) Energy:               -247.886292652882
   HI-zeta (4) Energy:               -248.019384088688
   Alpha (exponent) Value:             3.000000000000
   Extrapolated Energy:              -248.116504866168

   @Extrapolated MP2/(T,Q):          -248.116504866168



   ==> Helgaker 2-point correlated extrapolation for method: HF <==

   LO-zeta (3) Energy:               -246.778663468462
   HI-zeta (4) Energy:               -246.792805546257
   Alpha (exponent) Value:             3.000000000000
   Extrapolated Energy:              -246.803125440865

   @Extrapolated HF/(T,Q):           -246.803125440865


   ==> Components <==

  ---------------------------------------------------------------------------------------------------------
                          Method / Basis                      Rqd      Energy [Eh]   Variable
  ---------------------------------------------------------------------------------------------------------
                              hf / aug-cc-pvtz                  *    -246.77866347   HF TOTAL ENERGY
                             mp2 / aug-cc-pvtz                  *    -247.88629265   MP2 TOTAL ENERGY
                              hf / aug-cc-pvqz                  *    -246.79280555   HF TOTAL ENERGY
                             mp2 / aug-cc-pvqz                  *    -248.01938409   MP2 TOTAL ENERGY
  ---------------------------------------------------------------------------------------------------------

   ==> Stages <==

  ---------------------------------------------------------------------------------------------------------
      Stage               Method / Basis                       Wt      Energy [Eh]   Scheme
  ---------------------------------------------------------------------------------------------------------
        scf                   hf / aug-cc-pvqz                  1    -246.79280555   xtpl_highest_1
       corl                  mp2 / aug-cc-pv[tq]z               1    -248.11650487   corl_xtpl_helgaker_2
       corl                   hf / aug-cc-pv[tq]z              -1    -246.80312544   corl_xtpl_helgaker_2
  ---------------------------------------------------------------------------------------------------------

   ==> CBS <==

  ---------------------------------------------------------------------------------------------------------
      Stage               Method / Basis                               Energy [Eh]   Scheme
  ---------------------------------------------------------------------------------------------------------
        scf                   hf / aug-cc-pvqz                       -246.79280555   xtpl_highest_1
       corl                  mp2 / aug-cc-pv[tq]z                      -1.31337943   corl_xtpl_helgaker_2
      total                  CBS                                     -248.10618497   
  ---------------------------------------------------------------------------------------------------------
   => Loading Basis Set <=

    Name: DEF2-SVP
    Role: ORBITAL
    Keyword: BASIS
    atoms 1              entry N          line   110 file /home/liuchw/anaconda3/envs/psi4env/share/psi4/basis/def2-svp.gbs 
    atoms 2, 4, 6, 8, 10 entry C          line    90 file /home/liuchw/anaconda3/envs/psi4env/share/psi4/basis/def2-svp.gbs 
    atoms 3, 5, 7, 9, 11 entry H          line    15 file /home/liuchw/anaconda3/envs/psi4env/share/psi4/basis/def2-svp.gbs 


       N-Body: Complex Energy (fragments = (2,), basis = (2,):  -248.10618497156079)

       N-Body: Computing complex (2/4) with fragments (2,) in the basis of fragments (1, 2).


Scratch directory: /scratch/liuchw/

  //>>>>>>>>>>>>>>>>>>>>>>>>>>>>>>>>>>>//
  //   CBS Setup: mp2/aug-cc-pv[tq]z   //
  //<<<<<<<<<<<<<<<<<<<<<<<<<<<<<<<<<<<//

    Naive listing of computations required.
             hf / aug-cc-pvqz              for  HF TOTAL ENERGY
            mp2 / aug-cc-pvtz              for  MP2 TOTAL ENERGY
            mp2 / aug-cc-pvqz              for  MP2 TOTAL ENERGY
             hf / aug-cc-pvtz              for  HF TOTAL ENERGY
             hf / aug-cc-pvqz              for  HF TOTAL ENERGY

    Enlightened listing of computations required.
            mp2 / aug-cc-pvtz              for  MP2 TOTAL ENERGY
            mp2 / aug-cc-pvqz              for  MP2 TOTAL ENERGY

    Full listing of computations to be obtained (required and bonus).
             hf / aug-cc-pvtz              for  HF TOTAL ENERGY
            mp2 / aug-cc-pvtz              for  MP2 TOTAL ENERGY
             hf / aug-cc-pvqz              for  HF TOTAL ENERGY
            mp2 / aug-cc-pvqz              for  MP2 TOTAL ENERGY

  //>>>>>>>>>>>>>>>>>>>>>>>>>>>>>>>>>>>>//
  // CBS Computation: MP2 / AUG-CC-PVTZ //
  //<<<<<<<<<<<<<<<<<<<<<<<<<<<<<<<<<<<<//


Scratch directory: /scratch/liuchw/

*** tstart() called on node98.bme.utexas.edu
*** at Thu Apr 23 19:00:37 2020

   => Loading Basis Set <=

    Name: AUG-CC-PVTZ
    Role: ORBITAL
    Keyword: BASIS
    atoms 1, 8                         entry N          line   285 file /home/liuchw/anaconda3/envs/psi4env/share/psi4/basis/aug-cc-pvtz.gbs 
    atoms 2-3, 5-7, 10, 12, 14, 16, 18 entry H          line    40 file /home/liuchw/anaconda3/envs/psi4env/share/psi4/basis/aug-cc-pvtz.gbs 
    atoms 4, 9, 11, 13, 15, 17         entry C          line   239 file /home/liuchw/anaconda3/envs/psi4env/share/psi4/basis/aug-cc-pvtz.gbs 


         ---------------------------------------------------------
                                   SCF
               by Justin Turney, Rob Parrish, Andy Simmonett
                          and Daniel G. A. Smith
                              RHF Reference
                        8 Threads,  19073 MiB Core
         ---------------------------------------------------------

  ==> Geometry <==

    Molecular point group: c1
    Full point group: C1

    Geometry (in Angstrom), charge = 0, multiplicity = 1:

       Center              X                  Y                   Z               Mass       
    ------------   -----------------  -----------------  -----------------  -----------------
      Gh(N)          -4.336528005943     0.392802751517    -0.523052155294    14.003074004430
      Gh(H)          -3.739918005943    -0.422897248483    -0.444352155294     1.007825032230
      Gh(H)          -5.265138005943     0.088512751517    -0.260922155294     1.007825032230
      Gh(C)          -3.874268005943     1.405612751517     0.424397844706    12.000000000000
      Gh(H)          -4.515618005943     2.282632751517     0.357917844706     1.007825032230
      Gh(H)          -3.846228005943     1.087042751517     1.471447844706     1.007825032230
      Gh(H)          -2.869038005943     1.719822751517     0.147937844706     1.007825032230
         N            0.636051994057    -1.323777248483    -0.137262155294    14.003074004430
         C            0.974491994057    -0.511437248483    -1.148982155294    12.000000000000
         H            0.431821994057    -0.655977248483    -2.074362155294     1.007825032230
         C            1.945821994057     0.480692751517    -1.048612155294    12.000000000000
         H            2.170671994057     1.105042751517    -1.901462155294     1.007825032230
         C            2.606651994057     0.650242751517     0.163657844706    12.000000000000
         H            3.364511994057     1.412472751517     0.280037844706     1.007825032230
         C            2.266521994057    -0.184727248483     1.222777844706    12.000000000000
         H            2.749111994057    -0.094257248483     2.185477844706     1.007825032230
         C            1.282741994057    -1.149507248483     1.023597844706    12.000000000000
         H            0.996661994057    -1.813257248483     1.830207844706     1.007825032230

  Running in c1 symmetry.

  Rotational constants: A =      0.10506  B =      0.01932  C =      0.01906 [cm^-1]
  Rotational constants: A =   3149.61683  B =    579.05401  C =    571.35291 [MHz]
  Nuclear repulsion =  206.234926802516895

  Charge       = 0
  Multiplicity = 1
  Electrons    = 42
  Nalpha       = 21
  Nbeta        = 21

  ==> Algorithm <==

  SCF Algorithm Type is DF.
  DIIS enabled.
  MOM disabled.
  Fractional occupation disabled.
  Guess Type is SAD.
  Energy threshold   = 1.00e-07
  Density threshold  = 1.00e-08
  Integral threshold = 0.00e+00

  ==> Primary Basis <==

  Basis Set: AUG-CC-PVTZ
    Blend: AUG-CC-PVTZ
    Number of shells: 202
    Number of basis function: 598
    Number of Cartesian functions: 690
    Spherical Harmonics?: true
    Max angular momentum: 3

   => Loading Basis Set <=

    Name: (AUG-CC-PVTZ AUX)
    Role: JKFIT
    Keyword: DF_BASIS_SCF
    atoms 1, 8                         entry N          line   224 file /home/liuchw/anaconda3/envs/psi4env/share/psi4/basis/aug-cc-pvtz-jkfit.gbs 
    atoms 2-3, 5-7, 10, 12, 14, 16, 18 entry H          line    70 file /home/liuchw/anaconda3/envs/psi4env/share/psi4/basis/aug-cc-pvtz-jkfit.gbs 
    atoms 4, 9, 11, 13, 15, 17         entry C          line   162 file /home/liuchw/anaconda3/envs/psi4env/share/psi4/basis/aug-cc-pvtz-jkfit.gbs 

  ==> Pre-Iterations <==

   -------------------------------------------------------
    Irrep   Nso     Nmo     Nalpha   Nbeta   Ndocc  Nsocc
   -------------------------------------------------------
     A        598     598       0       0       0       0
   -------------------------------------------------------
    Total     598     598      21      21      21       0
   -------------------------------------------------------

  ==> Integral Setup <==

  DFHelper Memory: AOs need 3.052 GiB; user supplied 13.970 GiB. Using in-core AOs.

  ==> MemDFJK: Density-Fitted J/K Matrices <==

    J tasked:                   Yes
    K tasked:                   Yes
    wK tasked:                   No
    OpenMP threads:               8
    Memory [MiB]:             14305
    Algorithm:                 Core
    Schwarz Cutoff:           1E-12
    Mask sparsity (%):      14.4120
    Fitting Condition:        1E-10

   => Auxiliary Basis Set <=

  Basis Set: (AUG-CC-PVTZ AUX)
    Blend: AUG-CC-PVTZ-JKFIT
    Number of shells: 380
    Number of basis function: 1292
    Number of Cartesian functions: 1598
    Spherical Harmonics?: true
    Max angular momentum: 4

  Minimum eigenvalue in the overlap matrix is 2.2332587708E-06.
  Using Symmetric Orthogonalization.

  SCF Guess: Superposition of Atomic Densities via on-the-fly atomic UHF.

  ==> Iterations <==

                           Total Energy        Delta E     RMS |[F,P]|

   @DF-RHF iter SAD:  -246.15759302124457   -2.46158e+02   0.00000e+00 
   @DF-RHF iter   1:  -246.63315761095743   -4.75565e-01   8.24750e-04 DIIS
   @DF-RHF iter   2:  -246.75322286099350   -1.20065e-01   3.78205e-04 DIIS
   @DF-RHF iter   3:  -246.77721478508172   -2.39919e-02   7.31184e-05 DIIS
   @DF-RHF iter   4:  -246.77859551195297   -1.38073e-03   2.13398e-05 DIIS
   @DF-RHF iter   5:  -246.77867510275374   -7.95908e-05   7.01219e-06 DIIS
   @DF-RHF iter   6:  -246.77868559726258   -1.04945e-05   1.59232e-06 DIIS
   @DF-RHF iter   7:  -246.77868634004076   -7.42778e-07   5.55525e-07 DIIS
   @DF-RHF iter   8:  -246.77868643199230   -9.19515e-08   2.31772e-07 DIIS
   @DF-RHF iter   9:  -246.77868645847406   -2.64818e-08   6.52322e-08 DIIS
   @DF-RHF iter  10:  -246.77868646162398   -3.14992e-09   2.40365e-08 DIIS
   @DF-RHF iter  11:  -246.77868646221887   -5.94895e-10   1.44345e-08 DIIS
   @DF-RHF iter  12:  -246.77868646238113   -1.62260e-10   4.53148e-09 DIIS
  Energy and wave function converged.


  ==> Post-Iterations <==

    Orbital Energies [Eh]
    ---------------------

    Doubly Occupied:                                                      

       1A    -15.567320     2A    -11.275436     3A    -11.275406  
       4A    -11.260687     5A    -11.242583     6A    -11.242526  
       7A     -1.256708     8A     -1.090138     9A     -1.034248  
      10A     -0.859887    11A     -0.856215    12A     -0.722408  
      13A     -0.660882    14A     -0.654766    15A     -0.599000  
      16A     -0.577575    17A     -0.541413    18A     -0.520550  
      19A     -0.419639    20A     -0.384152    21A     -0.348296  

    Virtual:                                                              

      22A      0.023372    23A      0.029303    24A      0.032596  
      25A      0.039849    26A      0.045735    27A      0.047040  
      28A      0.055108    29A      0.056280    30A      0.060142  
      31A      0.081467    32A      0.087040    33A      0.091927  
      34A      0.096278    35A      0.099316    36A      0.105377  
      37A      0.107114    38A      0.110287    39A      0.113608  
      40A      0.115790    41A      0.117604    42A      0.122550  
      43A      0.129826    44A      0.131427    45A      0.132559  
      46A      0.134724    47A      0.142215    48A      0.146412  
      49A      0.149713    50A      0.154008    51A      0.157374  
      52A      0.158317    53A      0.161853    54A      0.165799  
      55A      0.172449    56A      0.188569    57A      0.207580  
      58A      0.215367    59A      0.226574    60A      0.238986  
      61A      0.242189    62A      0.247116    63A      0.253155  
      64A      0.260030    65A      0.267194    66A      0.269943  
      67A      0.273780    68A      0.278508    69A      0.285502  
      70A      0.289013    71A      0.291622    72A      0.297567  
      73A      0.302250    74A      0.307888    75A      0.310016  
      76A      0.311148    77A      0.318142    78A      0.320847  
      79A      0.325489    80A      0.330275    81A      0.334455  
      82A      0.338104    83A      0.343530    84A      0.344383  
      85A      0.349803    86A      0.354813    87A      0.357985  
      88A      0.362771    89A      0.365887    90A      0.378398  
      91A      0.380289    92A      0.386531    93A      0.390193  
      94A      0.407651    95A      0.412490    96A      0.420114  
      97A      0.422648    98A      0.429754    99A      0.431328  
     100A      0.434309   101A      0.437015   102A      0.442641  
     103A      0.448176   104A      0.450473   105A      0.460140  
     106A      0.461422   107A      0.466136   108A      0.471483  
     109A      0.472698   110A      0.480940   111A      0.481441  
     112A      0.484726   113A      0.493774   114A      0.498533  
     115A      0.501296   116A      0.503412   117A      0.513276  
     118A      0.516316   119A      0.520406   120A      0.526411  
     121A      0.534960   122A      0.541206   123A      0.544838  
     124A      0.550276   125A      0.553394   126A      0.564424  
     127A      0.568993   128A      0.581591   129A      0.590818  
     130A      0.595665   131A      0.611054   132A      0.615134  
     133A      0.625187   134A      0.630882   135A      0.633423  
     136A      0.636465   137A      0.648147   138A      0.654040  
     139A      0.655559   140A      0.666427   141A      0.672059  
     142A      0.685527   143A      0.691367   144A      0.700561  
     145A      0.715293   146A      0.726029   147A      0.730292  
     148A      0.735537   149A      0.738111   150A      0.747008  
     151A      0.756314   152A      0.764447   153A      0.772117  
     154A      0.776481   155A      0.777644   156A      0.784310  
     157A      0.788252   158A      0.800577   159A      0.803926  
     160A      0.808371   161A      0.820720   162A      0.833382  
     163A      0.842023   164A      0.850100   165A      0.851594  
     166A      0.854810   167A      0.860558   168A      0.876025  
     169A      0.887256   170A      0.898075   171A      0.901595  
     172A      0.906827   173A      0.920782   174A      0.921866  
     175A      0.933375   176A      0.937464   177A      0.948562  
     178A      0.951221   179A      0.957107   180A      0.962175  
     181A      0.966537   182A      0.973500   183A      0.982556  
     184A      0.987674   185A      0.999818   186A      1.001717  
     187A      1.010837   188A      1.015839   189A      1.023688  
     190A      1.029903   191A      1.035600   192A      1.045718  
     193A      1.048430   194A      1.054709   195A      1.061024  
     196A      1.068916   197A      1.073228   198A      1.079049  
     199A      1.081998   200A      1.084167   201A      1.086584  
     202A      1.089360   203A      1.095770   204A      1.101538  
     205A      1.103413   206A      1.113258   207A      1.118747  
     208A      1.119044   209A      1.128557   210A      1.143882  
     211A      1.145349   212A      1.156275   213A      1.162296  
     214A      1.166293   215A      1.166800   216A      1.174268  
     217A      1.180716   218A      1.181898   219A      1.184593  
     220A      1.190077   221A      1.195746   222A      1.199329  
     223A      1.204013   224A      1.208577   225A      1.212005  
     226A      1.220234   227A      1.225601   228A      1.230014  
     229A      1.232968   230A      1.243049   231A      1.251728  
     232A      1.260285   233A      1.266448   234A      1.284946  
     235A      1.288283   236A      1.294677   237A      1.297853  
     238A      1.304528   239A      1.308597   240A      1.316018  
     241A      1.326960   242A      1.350477   243A      1.361155  
     244A      1.371207   245A      1.382364   246A      1.388341  
     247A      1.405955   248A      1.409818   249A      1.418584  
     250A      1.428904   251A      1.434402   252A      1.449029  
     253A      1.459440   254A      1.463102   255A      1.497384  
     256A      1.501962   257A      1.507398   258A      1.510374  
     259A      1.518538   260A      1.521614   261A      1.541828  
     262A      1.546696   263A      1.550873   264A      1.570878  
     265A      1.585080   266A      1.591008   267A      1.595220  
     268A      1.602201   269A      1.639473   270A      1.646715  
     271A      1.653686   272A      1.658180   273A      1.678296  
     274A      1.688942   275A      1.695224   276A      1.697846  
     277A      1.712186   278A      1.715171   279A      1.722122  
     280A      1.728773   281A      1.742052   282A      1.751005  
     283A      1.763497   284A      1.780079   285A      1.788459  
     286A      1.790792   287A      1.800407   288A      1.818017  
     289A      1.836184   290A      1.841771   291A      1.854782  
     292A      1.858752   293A      1.859888   294A      1.869755  
     295A      1.879512   296A      1.893388   297A      1.897353  
     298A      1.909758   299A      1.922788   300A      1.963358  
     301A      1.970627   302A      1.971283   303A      1.984807  
     304A      2.014545   305A      2.018261   306A      2.027444  
     307A      2.029827   308A      2.033670   309A      2.041262  
     310A      2.047285   311A      2.053534   312A      2.062370  
     313A      2.071351   314A      2.083889   315A      2.101366  
     316A      2.115592   317A      2.140412   318A      2.146405  
     319A      2.151296   320A      2.157614   321A      2.163709  
     322A      2.166283   323A      2.177328   324A      2.196637  
     325A      2.213412   326A      2.219182   327A      2.225704  
     328A      2.239182   329A      2.242981   330A      2.254485  
     331A      2.264051   332A      2.270073   333A      2.299905  
     334A      2.318530   335A      2.355578   336A      2.364154  
     337A      2.373230   338A      2.386990   339A      2.392673  
     340A      2.405480   341A      2.415662   342A      2.427906  
     343A      2.435004   344A      2.436800   345A      2.449730  
     346A      2.459969   347A      2.501457   348A      2.516116  
     349A      2.542617   350A      2.563446   351A      2.572295  
     352A      2.588531   353A      2.653609   354A      2.662308  
     355A      2.674243   356A      2.678704   357A      2.713137  
     358A      2.738429   359A      2.763305   360A      2.786897  
     361A      2.812860   362A      2.821023   363A      2.825089  
     364A      2.852159   365A      2.865177   366A      2.929394  
     367A      2.939731   368A      2.942622   369A      2.985259  
     370A      2.996579   371A      3.014165   372A      3.050782  
     373A      3.053760   374A      3.073120   375A      3.089588  
     376A      3.144621   377A      3.163424   378A      3.175259  
     379A      3.255822   380A      3.264965   381A      3.274767  
     382A      3.284157   383A      3.308705   384A      3.318580  
     385A      3.321315   386A      3.357686   387A      3.363620  
     388A      3.395753   389A      3.409481   390A      3.416336  
     391A      3.425322   392A      3.431763   393A      3.449871  
     394A      3.465871   395A      3.480660   396A      3.498130  
     397A      3.536395   398A      3.544679   399A      3.560975  
     400A      3.570438   401A      3.575762   402A      3.590614  
     403A      3.641063   404A      3.660716   405A      3.689560  
     406A      3.705689   407A      3.715727   408A      3.737757  
     409A      3.765417   410A      3.778982   411A      3.781178  
     412A      3.824230   413A      3.841030   414A      3.865434  
     415A      3.874209   416A      3.877622   417A      3.896063  
     418A      3.903428   419A      3.926200   420A      3.928877  
     421A      3.958723   422A      3.980524   423A      3.993465  
     424A      3.999887   425A      4.037554   426A      4.049935  
     427A      4.073797   428A      4.095991   429A      4.099442  
     430A      4.104600   431A      4.129476   432A      4.130751  
     433A      4.141195   434A      4.144784   435A      4.145676  
     436A      4.153651   437A      4.168932   438A      4.170991  
     439A      4.177533   440A      4.206833   441A      4.227482  
     442A      4.234621   443A      4.239557   444A      4.270344  
     445A      4.280954   446A      4.311048   447A      4.333873  
     448A      4.375068   449A      4.384431   450A      4.400530  
     451A      4.416041   452A      4.429840   453A      4.431445  
     454A      4.442081   455A      4.444289   456A      4.446962  
     457A      4.450636   458A      4.470965   459A      4.487959  
     460A      4.498596   461A      4.525319   462A      4.527849  
     463A      4.530787   464A      4.557074   465A      4.565743  
     466A      4.587791   467A      4.618282   468A      4.650560  
     469A      4.663738   470A      4.696278   471A      4.711146  
     472A      4.729300   473A      4.747211   474A      4.750441  
     475A      4.759456   476A      4.787981   477A      4.793843  
     478A      4.799987   479A      4.812863   480A      4.842945  
     481A      4.871964   482A      4.881359   483A      4.892830  
     484A      4.905711   485A      4.938669   486A      4.962689  
     487A      4.974512   488A      4.976904   489A      4.984625  
     490A      4.989579   491A      4.992875   492A      5.004460  
     493A      5.027011   494A      5.039668   495A      5.050562  
     496A      5.070969   497A      5.073750   498A      5.081218  
     499A      5.111057   500A      5.125366   501A      5.151829  
     502A      5.156413   503A      5.200355   504A      5.210701  
     505A      5.225227   506A      5.232914   507A      5.235627  
     508A      5.267806   509A      5.303917   510A      5.313977  
     511A      5.338839   512A      5.352504   513A      5.374152  
     514A      5.396097   515A      5.400841   516A      5.407887  
     517A      5.430975   518A      5.443687   519A      5.448131  
     520A      5.473080   521A      5.475768   522A      5.479884  
     523A      5.492071   524A      5.521658   525A      5.527162  
     526A      5.532622   527A      5.592744   528A      5.610296  
     529A      5.612496   530A      5.655595   531A      5.683430  
     532A      5.763290   533A      5.781948   534A      5.796378  
     535A      5.798441   536A      5.817980   537A      5.832579  
     538A      5.855905   539A      5.871336   540A      5.911255  
     541A      5.922146   542A      5.948663   543A      5.954670  
     544A      5.979914   545A      6.010622   546A      6.082263  
     547A      6.128221   548A      6.142988   549A      6.172749  
     550A      6.199375   551A      6.231247   552A      6.268024  
     553A      6.307116   554A      6.399269   555A      6.434230  
     556A      6.488376   557A      6.512537   558A      6.644468  
     559A      6.668780   560A      6.686397   561A      6.687785  
     562A      6.742522   563A      6.758773   564A      6.827250  
     565A      6.885645   566A      6.937820   567A      6.971181  
     568A      7.078601   569A      7.079070   570A      7.093719  
     571A      7.180005   572A      7.196264   573A      7.481584  
     574A      7.521551   575A      7.582804   576A      7.610859  
     577A      7.806100   578A      7.868245   579A      7.878743  
     580A      7.999462   581A      8.074085   582A      8.171631  
     583A      8.249586   584A      8.701682   585A      9.355950  
     586A      9.804308   587A     10.475289   588A     10.994544  
     589A     11.254576   590A     11.996547   591A     15.514656  
     592A     16.307708   593A     18.306394   594A     18.703485  
     595A     19.238874   596A     19.293653   597A     53.029358  
     598A     58.894692  

    Final Occupation by Irrep:
              A 
    DOCC [    21 ]

  @DF-RHF Final Energy:  -246.77868646238113

   => Energetics <=

    Nuclear Repulsion Energy =            206.2349268025168953
    One-Electron Energy =                -741.2475584791142182
    Two-Electron Energy =                 288.2339452142161349
    Total Energy =                       -246.7786864623811312

Computation Completed


Properties will be evaluated at   0.000000,   0.000000,   0.000000 [a0]

Properties computed using the SCF density matrix

  Nuclear Dipole Moment: [e a0]
     X:   129.6778      Y:   -25.7019      Z:     1.1975

  Electronic Dipole Moment: [e a0]
     X:  -129.0380      Y:    26.3501      Z:    -1.0981

  Dipole Moment: [e a0]
     X:     0.6398      Y:     0.6483      Z:     0.0994     Total:     0.9162

  Dipole Moment: [D]
     X:     1.6261      Y:     1.6477      Z:     0.2527     Total:     2.3288


*** tstop() called on node98.bme.utexas.edu at Thu Apr 23 19:00:52 2020
Module time:
	user time   =     105.98 seconds =       1.77 minutes
	system time =       2.24 seconds =       0.04 minutes
	total time  =         15 seconds =       0.25 minutes
Total time:
	user time   =     400.37 seconds =       6.67 minutes
	system time =       8.77 seconds =       0.15 minutes
	total time  =         62 seconds =       1.03 minutes

*** tstart() called on node98.bme.utexas.edu
*** at Thu Apr 23 19:00:52 2020


  //>>>>>>>>>>>>>>>>>>>>>>>>>>>>>>>>>>>//
  //               DFMP2               //
  //<<<<<<<<<<<<<<<<<<<<<<<<<<<<<<<<<<<//

   => Loading Basis Set <=

    Name: (AUG-CC-PVTZ AUX)
    Role: RIFIT
    Keyword: DF_BASIS_MP2
    atoms 1, 8                         entry N          line   206 file /home/liuchw/anaconda3/envs/psi4env/share/psi4/basis/aug-cc-pvtz-ri.gbs 
    atoms 2-3, 5-7, 10, 12, 14, 16, 18 entry H          line    30 file /home/liuchw/anaconda3/envs/psi4env/share/psi4/basis/aug-cc-pvtz-ri.gbs 
    atoms 4, 9, 11, 13, 15, 17         entry C          line   148 file /home/liuchw/anaconda3/envs/psi4env/share/psi4/basis/aug-cc-pvtz-ri.gbs 

	 --------------------------------------------------------
	                          DF-MP2                         
	      2nd-Order Density-Fitted Moller-Plesset Theory     
	              RMP2 Wavefunction,   8 Threads             
	                                                         
	        Rob Parrish, Justin Turney, Andy Simmonett,      
	           Ed Hohenstein, and C. David Sherrill          
	 --------------------------------------------------------

   => Auxiliary Basis Set <=

  Basis Set: (AUG-CC-PVTZ AUX)
    Blend: AUG-CC-PVTZ-RI
    Number of shells: 364
    Number of basis function: 1308
    Number of Cartesian functions: 1638
    Spherical Harmonics?: true
    Max angular momentum: 4

	 --------------------------------------------------------
	                 NBF =   598, NAUX =  1308
	 --------------------------------------------------------
	   CLASS    FOCC     OCC    AOCC    AVIR     VIR    FVIR
	   PAIRS       0      21      21     577     577       0
	 --------------------------------------------------------

[...]
     637A      4.088850   638A      4.100753   639A      4.124177  
     640A      4.125572   641A      4.133724   642A      4.149883  
     643A      4.153579   644A      4.159782   645A      4.164366  
     646A      4.178212   647A      4.189410   648A      4.204076  
     649A      4.206898   650A      4.215932   651A      4.236295  
     652A      4.262566   653A      4.278405   654A      4.283282  
     655A      4.292077   656A      4.303814   657A      4.316550  
     658A      4.330700   659A      4.335526   660A      4.349504  
     661A      4.368163   662A      4.374555   663A      4.387554  
     664A      4.408085   665A      4.417343   666A      4.445251  
     667A      4.454312   668A      4.467126   669A      4.471921  
     670A      4.476781   671A      4.489017   672A      4.492944  
     673A      4.503545   674A      4.510761   675A      4.516179  
     676A      4.524941   677A      4.525835   678A      4.553565  
     679A      4.569438   680A      4.579324   681A      4.582105  
     682A      4.598891   683A      4.613684   684A      4.625455  
     685A      4.626494   686A      4.646190   687A      4.659750  
     688A      4.680013   689A      4.698085   690A      4.703861  
     691A      4.708116   692A      4.725890   693A      4.750581  
     694A      4.792682   695A      4.802750   696A      4.819788  
     697A      4.827442   698A      4.855181   699A      4.863258  
     700A      4.876487   701A      4.885399   702A      4.894559  
     703A      4.908565   704A      4.912135   705A      4.951244  
     706A      4.983206   707A      5.001271   708A      5.010267  
     709A      5.022248   710A      5.031611   711A      5.049629  
     712A      5.073694   713A      5.098990   714A      5.109958  
     715A      5.121151   716A      5.148510   717A      5.174838  
     718A      5.213500   719A      5.221580   720A      5.241315  
     721A      5.252894   722A      5.304956   723A      5.318496  
     724A      5.374049   725A      5.380139   726A      5.411533  
     727A      5.428875   728A      5.433457   729A      5.451805  
     730A      5.457330   731A      5.476201   732A      5.549323  
     733A      5.618346   734A      5.627873   735A      5.672263  
     736A      5.707531   737A      5.740443   738A      5.807375  
     739A      5.809944   740A      5.829105   741A      5.856817  
     742A      5.907278   743A      5.921505   744A      5.992372  
     745A      6.009346   746A      6.054687   747A      6.061163  
     748A      6.082402   749A      6.114142   750A      6.121765  
     751A      6.149478   752A      6.158718   753A      6.160328  
     754A      6.187337   755A      6.201495   756A      6.223811  
     757A      6.254022   758A      6.305747   759A      6.315480  
     760A      6.318073   761A      6.331106   762A      6.380415  
     763A      6.398364   764A      6.423553   765A      6.431435  
     766A      6.467004   767A      6.474882   768A      6.485427  
     769A      6.485928   770A      6.517970   771A      6.519537  
     772A      6.550359   773A      6.589967   774A      6.591957  
     775A      6.595102   776A      6.606239   777A      6.619328  
     778A      6.640406   779A      6.640961   780A      6.654751  
     781A      6.658135   782A      6.671671   783A      6.712192  
     784A      6.715425   785A      6.727129   786A      6.752547  
     787A      6.755167   788A      6.765087   789A      6.785355  
     790A      6.803796   791A      6.810815   792A      6.815683  
     793A      6.822525   794A      6.840142   795A      6.858807  
     796A      6.869833   797A      6.893984   798A      6.895665  
     799A      6.902062   800A      6.907956   801A      6.939216  
     802A      6.953471   803A      6.957518   804A      6.964088  
     805A      6.975485   806A      6.983849   807A      6.998820  
     808A      7.001366   809A      7.011859   810A      7.019080  
     811A      7.024382   812A      7.025981   813A      7.026474  
     814A      7.038181   815A      7.053621   816A      7.068209  
     817A      7.082620   818A      7.093571   819A      7.121274  
     820A      7.124586   821A      7.148561   822A      7.152163  
     823A      7.165119   824A      7.170312   825A      7.181938  
     826A      7.185612   827A      7.205071   828A      7.220155  
     829A      7.221315   830A      7.232184   831A      7.245691  
     832A      7.278425   833A      7.288346   834A      7.291242  
     835A      7.325830   836A      7.329310   837A      7.346938  
     838A      7.357541   839A      7.375414   840A      7.389296  
     841A      7.398127   842A      7.402815   843A      7.407255  
     844A      7.431588   845A      7.439469   846A      7.467397  
     847A      7.472897   848A      7.484487   849A      7.504936  
     850A      7.523768   851A      7.544768   852A      7.573604  
     853A      7.587669   854A      7.590924   855A      7.625738  
     856A      7.636585   857A      7.647685   858A      7.649663  
     859A      7.682945   860A      7.702263   861A      7.713026  
     862A      7.717505   863A      7.733095   864A      7.748715  
     865A      7.749358   866A      7.771876   867A      7.777661  
     868A      7.779559   869A      7.782734   870A      7.796126  
     871A      7.811782   872A      7.843437   873A      7.849737  
     874A      7.859065   875A      7.880341   876A      7.897637  
     877A      7.930854   878A      7.948492   879A      7.956631  
     880A      7.988306   881A      8.005423   882A      8.009194  
     883A      8.021408   884A      8.025850   885A      8.031694  
     886A      8.046031   887A      8.064836   888A      8.074292  
     889A      8.095610   890A      8.097042   891A      8.116467  
     892A      8.146843   893A      8.150257   894A      8.153032  
     895A      8.167214   896A      8.175329   897A      8.284427  
     898A      8.303610   899A      8.309384   900A      8.323180  
     901A      8.357063   902A      8.368291   903A      8.382861  
     904A      8.410156   905A      8.417237   906A      8.459754  
     907A      8.470638   908A      8.494845   909A      8.514809  
     910A      8.532640   911A      8.536688   912A      8.551810  
     913A      8.578514   914A      8.613550   915A      8.627533  
     916A      8.632638   917A      8.650787   918A      8.674595  
     919A      8.682244   920A      8.695170   921A      8.698939  
     922A      8.705136   923A      8.715402   924A      8.724152  
     925A      8.733506   926A      8.736445   927A      8.756294  
     928A      8.813128   929A      8.824764   930A      8.833657  
     931A      8.839419   932A      8.864450   933A      8.878372  
     934A      8.896277   935A      8.901344   936A      8.938091  
     937A      8.948189   938A      8.957425   939A      8.961659  
     940A      8.964051   941A      8.972010   942A      8.985748  
     943A      8.998733   944A      9.047798   945A      9.054754  
     946A      9.071640   947A      9.081832   948A      9.103144  
     949A      9.123051   950A      9.124248   951A      9.142864  
     952A      9.150112   953A      9.180206   954A      9.205012  
     955A      9.213237   956A      9.215599   957A      9.227766  
     958A      9.258190   959A      9.264108   960A      9.288912  
     961A      9.298471   962A      9.326242   963A      9.332349  
     964A      9.357053   965A      9.380949   966A      9.396664  
     967A      9.398657   968A      9.401912   969A      9.421435  
     970A      9.445554   971A      9.448391   972A      9.472426  
     973A      9.482577   974A      9.502347   975A      9.551606  
     976A      9.557241   977A      9.562822   978A      9.575885  
     979A      9.594982   980A      9.602876   981A      9.621316  
     982A      9.627217   983A      9.648537   984A      9.656752  
     985A      9.672285   986A      9.705631   987A      9.726941  
     988A      9.730620   989A      9.733397   990A      9.739867  
     991A      9.756998   992A      9.803330   993A      9.824291  
     994A      9.868519   995A      9.880011   996A      9.897367  
     997A      9.905742   998A      9.963519   999A      9.967957  
    1000A      9.970721  1001A      9.978540  1002A      9.998547  
    1003A     10.009264  1004A     10.021233  1005A     10.029886  
    1006A     10.036068  1007A     10.087873  1008A     10.102943  
    1009A     10.114411  1010A     10.150116  1011A     10.158322  
    1012A     10.198364  1013A     10.220680  1014A     10.233278  
    1015A     10.234951  1016A     10.240283  1017A     10.245911  
    1018A     10.248819  1019A     10.294692  1020A     10.324019  
    1021A     10.332629  1022A     10.370620  1023A     10.385942  
    1024A     10.392618  1025A     10.474073  1026A     10.479710  
    1027A     10.488918  1028A     10.498775  1029A     10.500746  
    1030A     10.512203  1031A     10.518989  1032A     10.541926  
    1033A     10.582889  1034A     10.608991  1035A     10.630481  
    1036A     10.648479  1037A     10.657701  1038A     10.707690  
    1039A     10.719873  1040A     10.766443  1041A     10.770578  
    1042A     10.773508  1043A     10.774443  1044A     10.780834  
    1045A     10.799970  1046A     10.851511  1047A     10.885841  
    1048A     10.931571  1049A     10.943978  1050A     11.001467  
    1051A     11.060524  1052A     11.062578  1053A     11.075012  
    1054A     11.190458  1055A     11.198853  1056A     11.201051  
    1057A     11.269419  1058A     11.330355  1059A     11.374212  
    1060A     11.379754  1061A     11.449951  1062A     11.458432  
    1063A     11.459907  1064A     11.514475  1065A     11.571604  
    1066A     11.575257  1067A     11.597179  1068A     11.650469  
    1069A     11.673573  1070A     11.702341  1071A     11.781852  
    1072A     11.907810  1073A     12.209698  1074A     12.288905  
    1075A     12.353205  1076A     12.416345  1077A     12.498047  
    1078A     12.649164  1079A     12.674637  1080A     12.732054  
    1081A     12.849242  1082A     13.213924  1083A     13.226938  
    1084A     13.286262  1085A     13.359315  1086A     13.376983  
    1087A     13.383166  1088A     13.532116  1089A     13.588549  
    1090A     13.653239  1091A     15.022536  1092A     15.225395  
    1093A     26.176072  1094A     26.297179  1095A     26.540180  
    1096A     26.950524  1097A     27.193199  1098A     29.112041  
    1099A     34.233939  1100A     36.346349  

    Final Occupation by Irrep:
              A 
    DOCC [    30 ]

  @DF-RHF Final Energy:  -342.05473237982238

   => Energetics <=

    Nuclear Repulsion Energy =            314.9195688523458330
    One-Electron Energy =               -1086.0771489692322120
    Two-Electron Energy =                 429.1028477370639962
    Total Energy =                       -342.0547323798223829

Computation Completed


Properties will be evaluated at   0.000000,   0.000000,   0.000000 [a0]

Properties computed using the SCF density matrix

  Nuclear Dipole Moment: [e a0]
     X:    -9.8544      Y:     4.4174      Z:     1.4943

  Electronic Dipole Moment: [e a0]
     X:    10.5185      Y:    -4.0010      Z:    -0.8861

  Dipole Moment: [e a0]
     X:     0.6641      Y:     0.4164      Z:     0.6082     Total:     0.9921

  Dipole Moment: [D]
     X:     1.6879      Y:     1.0584      Z:     1.5459     Total:     2.5217


*** tstop() called on node98.bme.utexas.edu at Thu Apr 23 19:07:19 2020
Module time:
	user time   =     562.43 seconds =       9.37 minutes
	system time =      27.84 seconds =       0.46 minutes
	total time  =         81 seconds =       1.35 minutes
Total time:
	user time   =    2822.06 seconds =      47.03 minutes
	system time =      95.46 seconds =       1.59 minutes
	total time  =        449 seconds =       7.48 minutes

*** tstart() called on node98.bme.utexas.edu
*** at Thu Apr 23 19:07:19 2020


  //>>>>>>>>>>>>>>>>>>>>>>>>>>>>>>>>>>>//
  //               DFMP2               //
  //<<<<<<<<<<<<<<<<<<<<<<<<<<<<<<<<<<<//

   => Loading Basis Set <=

    Name: (AUG-CC-PVQZ AUX)
    Role: RIFIT
    Keyword: DF_BASIS_MP2
    atoms 1, 8                         entry N          line   258 file /home/liuchw/anaconda3/envs/psi4env/share/psi4/basis/aug-cc-pvqz-ri.gbs 
    atoms 2-3, 5-7, 10, 12, 14, 16, 18 entry H          line    30 file /home/liuchw/anaconda3/envs/psi4env/share/psi4/basis/aug-cc-pvqz-ri.gbs 
    atoms 4, 9, 11, 13, 15, 17         entry C          line   184 file /home/liuchw/anaconda3/envs/psi4env/share/psi4/basis/aug-cc-pvqz-ri.gbs 

	 --------------------------------------------------------
	                          DF-MP2                         
	      2nd-Order Density-Fitted Moller-Plesset Theory     
	              RMP2 Wavefunction,   8 Threads             
	                                                         
	        Rob Parrish, Justin Turney, Andy Simmonett,      
	           Ed Hohenstein, and C. David Sherrill          
	 --------------------------------------------------------

   => Auxiliary Basis Set <=

  Basis Set: (AUG-CC-PVQZ AUX)
    Blend: AUG-CC-PVQZ-RI
    Number of shells: 488
    Number of basis function: 2144
    Number of Cartesian functions: 2946
    Spherical Harmonics?: true
    Max angular momentum: 5

	 --------------------------------------------------------
	                 NBF =  1100, NAUX =  2144
	 --------------------------------------------------------
	   CLASS    FOCC     OCC    AOCC    AVIR     VIR    FVIR
	   PAIRS       0      30      30    1070    1070       0
	 --------------------------------------------------------

	-----------------------------------------------------------
	 ==================> DF-MP2 Energies <==================== 
	-----------------------------------------------------------
	 Reference Energy          =    -342.0547323798223829 [Eh]
	 Singles Energy            =      -0.0000000000000000 [Eh]
	 Same-Spin Energy          =      -0.3855770643496184 [Eh]
	 Opposite-Spin Energy      =      -1.3352772774161701 [Eh]
	 Correlation Energy        =      -1.7208543417657884 [Eh]
	 Total Energy              =    -343.7755867215881835 [Eh]
	-----------------------------------------------------------
	 ================> DF-SCS-MP2 Energies <================== 
	-----------------------------------------------------------
	 SCS Same-Spin Scale       =       0.3333333333333333 [-]
	 SCS Opposite-Spin Scale   =       1.2000000000000000 [-]
	 SCS Same-Spin Energy      =      -0.1285256881165395 [Eh]
	 SCS Opposite-Spin Energy  =      -1.6023327328994041 [Eh]
	 SCS Correlation Energy    =      -1.7308584210159437 [Eh]
	 SCS Total Energy          =    -343.7855908008383494 [Eh]
	-----------------------------------------------------------


*** tstop() called on node98.bme.utexas.edu at Thu Apr 23 19:08:20 2020
Module time:
	user time   =     308.18 seconds =       5.14 minutes
	system time =      12.18 seconds =       0.20 minutes
	total time  =         61 seconds =       1.02 minutes
Total time:
	user time   =    3130.24 seconds =      52.17 minutes
	system time =     107.64 seconds =       1.79 minutes
	total time  =        510 seconds =       8.50 minutes

  //>>>>>>>>>>>>>>>>>>>>>>>>>>>>>>>>>>>//
  //  CBS Results: mp2/aug-cc-pv[tq]z  //
  //<<<<<<<<<<<<<<<<<<<<<<<<<<<<<<<<<<<//


   ==> HF <==

   HI-zeta (4) Energy:               -342.054732379822


   ==> Helgaker 2-point correlated extrapolation for method: MP2 <==

   LO-zeta (3) Energy:               -343.590222398799
   HI-zeta (4) Energy:               -343.775586721588
   Alpha (exponent) Value:             3.000000000000
   Extrapolated Energy:              -343.910852578759

   @Extrapolated MP2/(T,Q):          -343.910852578759



   ==> Helgaker 2-point correlated extrapolation for method: HF <==

   LO-zeta (3) Energy:               -342.034629443583
   HI-zeta (4) Energy:               -342.054732379822
   Alpha (exponent) Value:             3.000000000000
   Extrapolated Energy:              -342.069402090051

   @Extrapolated HF/(T,Q):           -342.069402090051


   ==> Components <==

  ---------------------------------------------------------------------------------------------------------
                          Method / Basis                      Rqd      Energy [Eh]   Variable
  ---------------------------------------------------------------------------------------------------------
                              hf / aug-cc-pvtz                  *    -342.03462944   HF TOTAL ENERGY
                             mp2 / aug-cc-pvtz                  *    -343.59022240   MP2 TOTAL ENERGY
                              hf / aug-cc-pvqz                  *    -342.05473238   HF TOTAL ENERGY
                             mp2 / aug-cc-pvqz                  *    -343.77558672   MP2 TOTAL ENERGY
  ---------------------------------------------------------------------------------------------------------

   ==> Stages <==

  ---------------------------------------------------------------------------------------------------------
      Stage               Method / Basis                       Wt      Energy [Eh]   Scheme
  ---------------------------------------------------------------------------------------------------------
        scf                   hf / aug-cc-pvqz                  1    -342.05473238   xtpl_highest_1
       corl                  mp2 / aug-cc-pv[tq]z               1    -343.91085258   corl_xtpl_helgaker_2
       corl                   hf / aug-cc-pv[tq]z              -1    -342.06940209   corl_xtpl_helgaker_2
  ---------------------------------------------------------------------------------------------------------

   ==> CBS <==

  ---------------------------------------------------------------------------------------------------------
      Stage               Method / Basis                               Energy [Eh]   Scheme
  ---------------------------------------------------------------------------------------------------------
        scf                   hf / aug-cc-pvqz                       -342.05473238   xtpl_highest_1
       corl                  mp2 / aug-cc-pv[tq]z                      -1.84145049   corl_xtpl_helgaker_2
      total                  CBS                                     -343.89618287   
  ---------------------------------------------------------------------------------------------------------
   => Loading Basis Set <=

    Name: DEF2-SVP
    Role: ORBITAL
    Keyword: BASIS
    atoms 1, 8                         entry N          line   110 file /home/liuchw/anaconda3/envs/psi4env/share/psi4/basis/def2-svp.gbs 
    atoms 2-3, 5-7, 10, 12, 14, 16, 18 entry H          line    15 file /home/liuchw/anaconda3/envs/psi4env/share/psi4/basis/def2-svp.gbs 
    atoms 4, 9, 11, 13, 15, 17         entry C          line    90 file /home/liuchw/anaconda3/envs/psi4env/share/psi4/basis/def2-svp.gbs 


       N-Body: Complex Energy (fragments = (1, 2), basis = (1, 2):  -343.89618286853005)

   ==> N-Body: Counterpoise Corrected (CP) energies <==

   n-Body     Total Energy [Eh]       I.E. [kcal/mol]      Delta [kcal/mol]
        1     -343.895183240308        0.000000000000        0.000000000000
        2     -343.896237280965       -0.661420498038       -0.661420498038

   => Loading Basis Set <=

    Name: DEF2-SVP
    Role: ORBITAL
    Keyword: BASIS
    atoms 1, 8                         entry N          line   110 file /home/liuchw/anaconda3/envs/psi4env/share/psi4/basis/def2-svp.gbs 
    atoms 2-3, 5-7, 10, 12, 14, 16, 18 entry H          line    15 file /home/liuchw/anaconda3/envs/psi4env/share/psi4/basis/def2-svp.gbs 
    atoms 4, 9, 11, 13, 15, 17         entry C          line    90 file /home/liuchw/anaconda3/envs/psi4env/share/psi4/basis/def2-svp.gbs 


    Psi4 stopped on: Thursday, 23 April 2020 07:08PM
    Psi4 wall time for execution: 0:08:31.16

*** Psi4 exiting successfully. Buy a developer a beer!
