
    -----------------------------------------------------------------------
          Psi4: An Open-Source Ab Initio Electronic Structure Package
                               Psi4 1.4a2.dev224 

                         Git: Rev {master} e453b16 


    R. M. Parrish, L. A. Burns, D. G. A. Smith, A. C. Simmonett,
    A. E. DePrince III, E. G. Hohenstein, U. Bozkaya, A. Yu. Sokolov,
    R. Di Remigio, R. M. Richard, J. F. Gonthier, A. M. James,
    H. R. McAlexander, A. Kumar, M. Saitow, X. Wang, B. P. Pritchard,
    P. Verma, H. F. Schaefer III, K. Patkowski, R. A. King, E. F. Valeev,
    F. A. Evangelista, J. M. Turney, T. D. Crawford, and C. D. Sherrill,
    J. Chem. Theory Comput. 13(7) pp 3185--3197 (2017).
    (doi: 10.1021/acs.jctc.7b00174)


                         Additional Contributions by
    P. Kraus, H. Kruse, M. H. Lechner, M. C. Schieber, R. A. Shaw,
    A. Alenaizan, R. Galvelis, Z. L. Glick, S. Lehtola, and J. P. Misiewicz

    -----------------------------------------------------------------------


    Psi4 started on: Thursday, 23 April 2020 06:28PM

    Process ID: 32926
    Host:       node47.bme.utexas.edu
    PSIDATADIR: /home/liuchw/anaconda3/envs/psi4env/share/psi4
    Memory:     500.0 MiB
    Threads:    8
    
  ==> Input File <==

--------------------------------------------------------------------------
#Generated by lconvert.py for cbs job

memory 20 GB

molecule  {
0 1
  C       1.175590   -0.145800    0.231610
  S      -0.147760    0.408100   -0.884360
  H      -0.442200    1.535650   -0.231010
  H       0.791450   -0.327970    1.229660
  H       1.542170   -1.081880   -0.179480
  H       1.988250    0.572530    0.252180
--
0 1
  O      -2.240910   -1.805410    1.995610
  H      -2.150920   -1.366690    1.141460
  H      -3.124560   -2.176530    1.971080
units angstrom
no_reorient
symmetry c1
}

set {
scf_type DF
mp2_type DF
e_convergence 7
reference rhf
}

energy('mp2/aug-cc-pv[tq]z', bsse_type='cp')
--------------------------------------------------------------------------

  Memory set to  18.626 GiB by Python driver.

Scratch directory: /scratch/liuchw/


   ===> N-Body Interaction Abacus <===
        BSSE Treatment:                     cp
        Number of 1-body computations:     4
        Number of 2-body computations:     1

   ==> N-Body: Now computing 1-body complexes <==


       N-Body: Computing complex (1/4) with fragments (2,) in the basis of fragments (2,).


Scratch directory: /scratch/liuchw/

  //>>>>>>>>>>>>>>>>>>>>>>>>>>>>>>>>>>>//
  //   CBS Setup: mp2/aug-cc-pv[tq]z   //
  //<<<<<<<<<<<<<<<<<<<<<<<<<<<<<<<<<<<//

    Naive listing of computations required.
             hf / aug-cc-pvqz              for  HF TOTAL ENERGY
            mp2 / aug-cc-pvtz              for  MP2 TOTAL ENERGY
            mp2 / aug-cc-pvqz              for  MP2 TOTAL ENERGY
             hf / aug-cc-pvtz              for  HF TOTAL ENERGY
             hf / aug-cc-pvqz              for  HF TOTAL ENERGY

    Enlightened listing of computations required.
            mp2 / aug-cc-pvtz              for  MP2 TOTAL ENERGY
            mp2 / aug-cc-pvqz              for  MP2 TOTAL ENERGY

    Full listing of computations to be obtained (required and bonus).
             hf / aug-cc-pvtz              for  HF TOTAL ENERGY
            mp2 / aug-cc-pvtz              for  MP2 TOTAL ENERGY
             hf / aug-cc-pvqz              for  HF TOTAL ENERGY
            mp2 / aug-cc-pvqz              for  MP2 TOTAL ENERGY

  //>>>>>>>>>>>>>>>>>>>>>>>>>>>>>>>>>>>>//
  // CBS Computation: MP2 / AUG-CC-PVTZ //
  //<<<<<<<<<<<<<<<<<<<<<<<<<<<<<<<<<<<<//


Scratch directory: /scratch/liuchw/

*** tstart() called on node47.bme.utexas.edu
*** at Thu Apr 23 18:28:41 2020

   => Loading Basis Set <=

    Name: AUG-CC-PVTZ
    Role: ORBITAL
    Keyword: BASIS
    atoms 1   entry O          line   331 file /home/liuchw/anaconda3/envs/psi4env/share/psi4/basis/aug-cc-pvtz.gbs 
    atoms 2-3 entry H          line    40 file /home/liuchw/anaconda3/envs/psi4env/share/psi4/basis/aug-cc-pvtz.gbs 


         ---------------------------------------------------------
                                   SCF
               by Justin Turney, Rob Parrish, Andy Simmonett
                          and Daniel G. A. Smith
                              RHF Reference
                        8 Threads,  19073 MiB Core
         ---------------------------------------------------------

  ==> Geometry <==

    Molecular point group: c1
    Full point group: C1

    Geometry (in Angstrom), charge = 0, multiplicity = 1:

       Center              X                  Y                   Z               Mass       
    ------------   -----------------  -----------------  -----------------  -----------------
         O           -1.818771716647    -1.495682552194     1.834420705420    15.994914619570
         H           -1.728781716647    -1.056962552194     0.980270705420     1.007825032230
         H           -2.702421716647    -1.866802552194     1.809890705420     1.007825032230

  Running in c1 symmetry.

  Rotational constants: A =     26.65922  B =      0.10460  C =      0.10419 [cm^-1]
  Rotational constants: A = 799223.29982  B =   3135.76331  C =   3123.58817 [MHz]
  Nuclear repulsion =    9.154674454693650

  Charge       = 0
  Multiplicity = 1
  Electrons    = 10
  Nalpha       = 5
  Nbeta        = 5

  ==> Algorithm <==

  SCF Algorithm Type is DF.
  DIIS enabled.
  MOM disabled.
  Fractional occupation disabled.
  Guess Type is SAD.
  Energy threshold   = 1.00e-07
  Density threshold  = 1.00e-08
  Integral threshold = 0.00e+00

  ==> Primary Basis <==

  Basis Set: AUG-CC-PVTZ
    Blend: AUG-CC-PVTZ
    Number of shells: 32
    Number of basis function: 92
    Number of Cartesian functions: 105
    Spherical Harmonics?: true
    Max angular momentum: 3

   => Loading Basis Set <=

    Name: (AUG-CC-PVTZ AUX)
    Role: JKFIT
    Keyword: DF_BASIS_SCF
    atoms 1   entry O          line   286 file /home/liuchw/anaconda3/envs/psi4env/share/psi4/basis/aug-cc-pvtz-jkfit.gbs 
    atoms 2-3 entry H          line    70 file /home/liuchw/anaconda3/envs/psi4env/share/psi4/basis/aug-cc-pvtz-jkfit.gbs 

  ==> Pre-Iterations <==

   -------------------------------------------------------
    Irrep   Nso     Nmo     Nalpha   Nbeta   Ndocc  Nsocc
   -------------------------------------------------------
     A         92      92       0       0       0       0
   -------------------------------------------------------
    Total      92      92       5       5       5       0
   -------------------------------------------------------

  ==> Integral Setup <==

  DFHelper Memory: AOs need 0.015 GiB; user supplied 13.970 GiB. Using in-core AOs.

  ==> MemDFJK: Density-Fitted J/K Matrices <==

    J tasked:                   Yes
    K tasked:                   Yes
    wK tasked:                   No
    OpenMP threads:               8
    Memory [MiB]:             14305
    Algorithm:                 Core
    Schwarz Cutoff:           1E-12
    Mask sparsity (%):       0.0000
    Fitting Condition:        1E-10

   => Auxiliary Basis Set <=

  Basis Set: (AUG-CC-PVTZ AUX)
    Blend: AUG-CC-PVTZ-JKFIT
    Number of shells: 58
    Number of basis function: 196
    Number of Cartesian functions: 241
    Spherical Harmonics?: true
    Max angular momentum: 4

  Minimum eigenvalue in the overlap matrix is 3.8912436581E-04.
  Using Symmetric Orthogonalization.

  SCF Guess: Superposition of Atomic Densities via on-the-fly atomic UHF.

  ==> Iterations <==

                           Total Energy        Delta E     RMS |[F,P]|

   @DF-RHF iter SAD:   -75.47372135211741   -7.54737e+01   0.00000e+00 
   @DF-RHF iter   1:   -75.97572631421745   -5.02005e-01   5.09021e-03 DIIS
   @DF-RHF iter   2:   -76.02816641820152   -5.24401e-02   3.47963e-03 DIIS
   @DF-RHF iter   3:   -76.05980179627872   -3.16354e-02   2.36432e-04 DIIS
   @DF-RHF iter   4:   -76.06019315503475   -3.91359e-04   5.68579e-05 DIIS
   @DF-RHF iter   5:   -76.06021788015518   -2.47251e-05   1.29414e-05 DIIS
   @DF-RHF iter   6:   -76.06021990950561   -2.02935e-06   2.83232e-06 DIIS
   @DF-RHF iter   7:   -76.06022001622520   -1.06720e-07   5.07842e-07 DIIS
   @DF-RHF iter   8:   -76.06022001923637   -3.01117e-09   8.53066e-08 DIIS
   @DF-RHF iter   9:   -76.06022001930292   -6.65494e-11   2.09632e-08 DIIS
   @DF-RHF iter  10:   -76.06022001930673   -3.80851e-12   3.09754e-09 DIIS
  Energy and wave function converged.


  ==> Post-Iterations <==

    Orbital Energies [Eh]
    ---------------------

    Doubly Occupied:                                                      

       1A    -20.568255     2A     -1.351849     3A     -0.714188  
       4A     -0.585404     5A     -0.510197  

    Virtual:                                                              

       6A      0.029340     7A      0.047708     8A      0.135838  
       9A      0.158837    10A      0.175201    11A      0.183141  
      12A      0.227009    13A      0.244950    14A      0.265503  
      15A      0.299740    16A      0.309966    17A      0.365825  
      18A      0.437277    19A      0.466007    20A      0.599013  
      21A      0.658728    22A      0.707784    23A      0.722905  
      24A      0.731724    25A      0.830727    26A      0.846600  
      27A      0.892398    28A      0.912472    29A      0.918035  
      30A      0.922527    31A      0.931007    32A      0.960946  
      33A      1.020651    34A      1.043033    35A      1.082430  
      36A      1.108195    37A      1.176457    38A      1.182140  
      39A      1.261221    40A      1.509961    41A      1.533401  
      42A      1.581905    43A      1.805869    44A      1.822365  
      45A      1.982633    46A      2.117635    47A      2.263082  
      48A      2.315808    49A      2.327254    50A      2.418489  
      51A      2.421190    52A      2.443377    53A      2.480582  
      54A      2.677121    55A      2.698181    56A      2.771379  
      57A      2.813205    58A      2.884040    59A      3.652462  
      60A      3.738841    61A      4.019217    62A      4.082454  
      63A      4.160735    64A      4.248600    65A      4.284306  
      66A      4.372487    67A      4.377144    68A      4.405150  
      69A      4.518872    70A      4.725669    71A      4.843311  
      72A      5.147273    73A      5.150479    74A      5.246753  
      75A      5.321935    76A      5.522090    77A      5.659455  
      78A      6.180343    79A      6.515455    80A      6.714375  
      81A      6.904661    82A      7.135122    83A      7.257598  
      84A      7.297374    85A      7.316512    86A      7.337583  
      87A      7.360390    88A      7.533083    89A      7.896705  
      90A      7.926514    91A      8.805349    92A     15.698194  

    Final Occupation by Irrep:
              A 
    DOCC [     5 ]

  @DF-RHF Final Energy:   -76.06022001930673

   => Energetics <=

    Nuclear Repulsion Energy =              9.1546744546936498
    One-Electron Energy =                -122.9700020517161647
    Two-Electron Energy =                  37.7551075777157905
    Total Energy =                        -76.0602200193067262

Computation Completed


Properties will be evaluated at   0.000000,   0.000000,   0.000000 [a0]

Properties computed using the SCF density matrix

  Nuclear Dipole Moment: [e a0]
     X:   -35.8696      Y:   -28.1366      Z:    33.0051

  Electronic Dipole Moment: [e a0]
     X:    35.3432      Y:    28.1808      Z:   -33.5866

  Dipole Moment: [e a0]
     X:    -0.5265      Y:     0.0442      Z:    -0.5816     Total:     0.7857

  Dipole Moment: [D]
     X:    -1.3381      Y:     0.1125      Z:    -1.4782     Total:     1.9971


*** tstop() called on node47.bme.utexas.edu at Thu Apr 23 18:28:42 2020
Module time:
	user time   =       7.47 seconds =       0.12 minutes
	system time =       0.27 seconds =       0.00 minutes
	total time  =          1 seconds =       0.02 minutes
Total time:
	user time   =       7.47 seconds =       0.12 minutes
	system time =       0.27 seconds =       0.00 minutes
	total time  =          1 seconds =       0.02 minutes

*** tstart() called on node47.bme.utexas.edu
*** at Thu Apr 23 18:28:42 2020


  //>>>>>>>>>>>>>>>>>>>>>>>>>>>>>>>>>>>//
  //               DFMP2               //
  //<<<<<<<<<<<<<<<<<<<<<<<<<<<<<<<<<<<//

   => Loading Basis Set <=

    Name: (AUG-CC-PVTZ AUX)
    Role: RIFIT
    Keyword: DF_BASIS_MP2
    atoms 1   entry O          line   264 file /home/liuchw/anaconda3/envs/psi4env/share/psi4/basis/aug-cc-pvtz-ri.gbs 
    atoms 2-3 entry H          line    30 file /home/liuchw/anaconda3/envs/psi4env/share/psi4/basis/aug-cc-pvtz-ri.gbs 

	 --------------------------------------------------------
	                          DF-MP2                         
	      2nd-Order Density-Fitted Moller-Plesset Theory     
	              RMP2 Wavefunction,   8 Threads             
	                                                         
	        Rob Parrish, Justin Turney, Andy Simmonett,      
	           Ed Hohenstein, and C. David Sherrill          
	 --------------------------------------------------------

   => Auxiliary Basis Set <=

  Basis Set: (AUG-CC-PVTZ AUX)
    Blend: AUG-CC-PVTZ-RI
    Number of shells: 56
    Number of basis function: 198
    Number of Cartesian functions: 246
    Spherical Harmonics?: true
    Max angular momentum: 4

	 --------------------------------------------------------
	                 NBF =    92, NAUX =   198
	 --------------------------------------------------------
	   CLASS    FOCC     OCC    AOCC    AVIR     VIR    FVIR
	   PAIRS       0       5       5      87      87       0
	 --------------------------------------------------------

	-----------------------------------------------------------
	 ==================> DF-MP2 Energies <==================== 
	-----------------------------------------------------------
	 Reference Energy          =     -76.0602200193067262 [Eh]
	 Singles Energy            =      -0.0000000000000000 [Eh]
	 Same-Spin Energy          =      -0.0684235119050682 [Eh]
	 Opposite-Spin Energy      =      -0.2154158165634820 [Eh]
	 Correlation Energy        =      -0.2838393284685502 [Eh]
	 Total Energy              =     -76.3440593477752714 [Eh]
	-----------------------------------------------------------
	 ================> DF-SCS-MP2 Energies <================== 
	-----------------------------------------------------------
	 SCS Same-Spin Scale       =       0.3333333333333333 [-]
	 SCS Opposite-Spin Scale   =       1.2000000000000000 [-]
	 SCS Same-Spin Energy      =      -0.0228078373016894 [Eh]
	 SCS Opposite-Spin Energy  =      -0.2584989798761784 [Eh]
	 SCS Correlation Energy    =      -0.2813068171778678 [Eh]
	 SCS Total Energy          =     -76.3415268364845900 [Eh]
	-----------------------------------------------------------


*** tstop() called on node47.bme.utexas.edu at Thu Apr 23 18:28:43 2020
Module time:
	user time   =       3.60 seconds =       0.06 minutes
	system time =       0.12 seconds =       0.00 minutes
	total time  =          1 seconds =       0.02 minutes
Total time:
	user time   =      11.07 seconds =       0.18 minutes
	system time =       0.39 seconds =       0.01 minutes
	total time  =          2 seconds =       0.03 minutes

  //>>>>>>>>>>>>>>>>>>>>>>>>>>>>>>>>>>>>//
  // CBS Computation: MP2 / AUG-CC-PVQZ //
  //<<<<<<<<<<<<<<<<<<<<<<<<<<<<<<<<<<<<//


Scratch directory: /scratch/liuchw/

*** tstart() called on node47.bme.utexas.edu
*** at Thu Apr 23 18:28:43 2020

   => Loading Basis Set <=

    Name: AUG-CC-PVQZ
    Role: ORBITAL
    Keyword: BASIS
    atoms 1   entry O          line   423 file /home/liuchw/anaconda3/envs/psi4env/share/psi4/basis/aug-cc-pvqz.gbs 
    atoms 2-3 entry H          line    40 file /home/liuchw/anaconda3/envs/psi4env/share/psi4/basis/aug-cc-pvqz.gbs 


         ---------------------------------------------------------
                                   SCF
               by Justin Turney, Rob Parrish, Andy Simmonett
                          and Daniel G. A. Smith
                              RHF Reference
                        8 Threads,  19073 MiB Core
         ---------------------------------------------------------

  ==> Geometry <==

    Molecular point group: c1
    Full point group: C1

    Geometry (in Angstrom), charge = 0, multiplicity = 1:

       Center              X                  Y                   Z               Mass       
    ------------   -----------------  -----------------  -----------------  -----------------
         O           -1.818771716647    -1.495682552194     1.834420705420    15.994914619570
         H           -1.728781716647    -1.056962552194     0.980270705420     1.007825032230
         H           -2.702421716647    -1.866802552194     1.809890705420     1.007825032230

  Running in c1 symmetry.

  Rotational constants: A =     26.65922  B =      0.10460  C =      0.10419 [cm^-1]
  Rotational constants: A = 799223.29982  B =   3135.76331  C =   3123.58817 [MHz]
  Nuclear repulsion =    9.154674454693650

  Charge       = 0
  Multiplicity = 1
  Electrons    = 10
  Nalpha       = 5
  Nbeta        = 5

  ==> Algorithm <==

  SCF Algorithm Type is DF.
  DIIS enabled.
  MOM disabled.
  Fractional occupation disabled.
  Guess Type is SAD.
  Energy threshold   = 1.00e-07
  Density threshold  = 1.00e-08
  Integral threshold = 0.00e+00

  ==> Primary Basis <==

  Basis Set: AUG-CC-PVQZ
    Blend: AUG-CC-PVQZ
    Number of shells: 48
    Number of basis function: 172
    Number of Cartesian functions: 215
    Spherical Harmonics?: true
    Max angular momentum: 4

   => Loading Basis Set <=

    Name: (AUG-CC-PVQZ AUX)
    Role: JKFIT
    Keyword: DF_BASIS_SCF
    atoms 1   entry O          line   318 file /home/liuchw/anaconda3/envs/psi4env/share/psi4/basis/aug-cc-pvqz-jkfit.gbs 
    atoms 2-3 entry H          line    70 file /home/liuchw/anaconda3/envs/psi4env/share/psi4/basis/aug-cc-pvqz-jkfit.gbs 

  ==> Pre-Iterations <==

   -------------------------------------------------------
    Irrep   Nso     Nmo     Nalpha   Nbeta   Ndocc  Nsocc
   -------------------------------------------------------
     A        172     172       0       0       0       0
   -------------------------------------------------------
    Total     172     172       5       5       5       0
   -------------------------------------------------------

  ==> Integral Setup <==

  DFHelper Memory: AOs need 0.074 GiB; user supplied 13.970 GiB. Using in-core AOs.

  ==> MemDFJK: Density-Fitted J/K Matrices <==

    J tasked:                   Yes
    K tasked:                   Yes
    wK tasked:                   No
    OpenMP threads:               8
    Memory [MiB]:             14305
    Algorithm:                 Core
    Schwarz Cutoff:           1E-12
    Mask sparsity (%):       0.0000
    Fitting Condition:        1E-10

   => Auxiliary Basis Set <=

  Basis Set: (AUG-CC-PVQZ AUX)
    Blend: AUG-CC-PVQZ-JKFIT
    Number of shells: 70
    Number of basis function: 294
    Number of Cartesian functions: 400
    Spherical Harmonics?: true
    Max angular momentum: 5

  Minimum eigenvalue in the overlap matrix is 8.7739319017E-05.
  Using Symmetric Orthogonalization.

  SCF Guess: Superposition of Atomic Densities via on-the-fly atomic UHF.

  ==> Iterations <==

                           Total Energy        Delta E     RMS |[F,P]|

   @DF-RHF iter SAD:   -75.47885957409062   -7.54789e+01   0.00000e+00 
   @DF-RHF iter   1:   -75.98079671486369   -5.01937e-01   2.72853e-03 DIIS
   @DF-RHF iter   2:   -76.03333622870436   -5.25395e-02   1.86939e-03 DIIS
   @DF-RHF iter   3:   -76.06517067940133   -3.18345e-02   1.27424e-04 DIIS
   @DF-RHF iter   4:   -76.06556413910232   -3.93460e-04   3.13273e-05 DIIS
   @DF-RHF iter   5:   -76.06558977326914   -2.56342e-05   7.10567e-06 DIIS
   @DF-RHF iter   6:   -76.06559188583972   -2.11257e-06   1.59813e-06 DIIS
   @DF-RHF iter   7:   -76.06559200422437   -1.18385e-07   2.96390e-07 DIIS
   @DF-RHF iter   8:   -76.06559200779603   -3.57166e-09   4.78140e-08 DIIS
   @DF-RHF iter   9:   -76.06559200787129   -7.52607e-11   1.14799e-08 DIIS
   @DF-RHF iter  10:   -76.06559200787500   -3.70903e-12   1.72850e-09 DIIS
  Energy and wave function converged.


  ==> Post-Iterations <==

    Orbital Energies [Eh]
    ---------------------

    Doubly Occupied:                                                      

       1A    -20.565800     2A     -1.351119     3A     -0.714154  
       4A     -0.585452     5A     -0.510330  

    Virtual:                                                              

       6A      0.026863     7A      0.043102     8A      0.114082  
       9A      0.133559    10A      0.151108    11A      0.158703  
      12A      0.184882    13A      0.197046    14A      0.209359  
      15A      0.237259    16A      0.257008    17A      0.291603  
      18A      0.357390    19A      0.389756    20A      0.469691  
      21A      0.508773    22A      0.542026    23A      0.547607  
      24A      0.556330    25A      0.614331    26A      0.632529  
      27A      0.647213    28A      0.663428    29A      0.665893  
      30A      0.684682    31A      0.706544    32A      0.718958  
      33A      0.769608    34A      0.788466    35A      0.802243  
      36A      0.802527    37A      0.843236    38A      0.854200  
      39A      0.968307    40A      1.123377    41A      1.136435  
      42A      1.208437    43A      1.332035    44A      1.439503  
      45A      1.481835    46A      1.509377    47A      1.512655  
      48A      1.526701    49A      1.553990    50A      1.590607  
      51A      1.620717    52A      1.637225    53A      1.662478  
      54A      1.664421    55A      1.688933    56A      1.702770  
      57A      1.736260    58A      1.752313    59A      1.766757  
      60A      1.775766    61A      1.842762    62A      1.864945  
      63A      1.893994    64A      1.915489    65A      1.981847  
      66A      2.008622    67A      2.034091    68A      2.039417  
      69A      2.100550    70A      2.206147    71A      2.216915  
      72A      2.313011    73A      2.436863    74A      2.625183  
      75A      2.630523    76A      2.885424    77A      2.956690  
      78A      2.994209    79A      3.040117    80A      3.054933  
      81A      3.084674    82A      3.267365    83A      3.300503  
      84A      3.308339    85A      3.489734    86A      3.588402  
      87A      3.642461    88A      3.687644    89A      3.718829  
      90A      3.775868    91A      3.923692    92A      4.078420  
      93A      4.166600    94A      4.168071    95A      4.178143  
      96A      4.179214    97A      4.234021    98A      4.328959  
      99A      4.432883   100A      4.578344   101A      4.723840  
     102A      4.744842   103A      4.779858   104A      4.779996  
     105A      4.808584   106A      4.876774   107A      4.995016  
     108A      5.236581   109A      5.313493   110A      5.518618  
     111A      5.529715   112A      5.854746   113A      5.884911  
     114A      6.071217   115A      6.229775   116A      6.823651  
     117A      6.882677   118A      6.884334   119A      6.907979  
     120A      7.724835   121A      7.772886   122A      7.785100  
     123A      7.822884   124A      7.831719   125A      7.897310  
     126A      7.924207   127A      8.020155   128A      8.173076  
     129A      8.197955   130A      8.528634   131A      8.626376  
     132A      8.649666   133A      8.697036   134A      8.780887  
     135A      8.843948   136A      8.987327   137A      9.039237  
     138A      9.214967   139A      9.664825   140A      9.899225  
     141A      9.903992   142A      9.933165   143A      9.987194  
     144A     10.322536   145A     10.446833   146A     10.687522  
     147A     11.016254   148A     11.080831   149A     11.088499  
     150A     11.269593   151A     11.308915   152A     11.411675  
     153A     11.711892   154A     11.792729   155A     11.832023  
     156A     11.987068   157A     12.198640   158A     12.202558  
     159A     12.614560   160A     12.731752   161A     12.821681  
     162A     12.901326   163A     13.177539   164A     13.980451  
     165A     14.008592   166A     14.491801   167A     14.794516  
     168A     14.888835   169A     15.238582   170A     16.827923  
     171A     17.277922   172A     45.481764  

    Final Occupation by Irrep:
              A 
    DOCC [     5 ]

  @DF-RHF Final Energy:   -76.06559200787500

   => Energetics <=

    Nuclear Repulsion Energy =              9.1546744546936498
    One-Electron Energy =                -122.9868252049085129
    Two-Electron Energy =                  37.7665587423398676
    Total Energy =                        -76.0655920078749972

Computation Completed


Properties will be evaluated at   0.000000,   0.000000,   0.000000 [a0]

Properties computed using the SCF density matrix

  Nuclear Dipole Moment: [e a0]
     X:   -35.8696      Y:   -28.1366      Z:    33.0051

  Electronic Dipole Moment: [e a0]
     X:    35.3437      Y:    28.1808      Z:   -33.5860

  Dipole Moment: [e a0]
     X:    -0.5259      Y:     0.0442      Z:    -0.5809     Total:     0.7849

  Dipole Moment: [D]
     X:    -1.3366      Y:     0.1123      Z:    -1.4766     Total:     1.9949


*** tstop() called on node47.bme.utexas.edu at Thu Apr 23 18:28:44 2020
Module time:
	user time   =      11.36 seconds =       0.19 minutes
	system time =       0.41 seconds =       0.01 minutes
	total time  =          1 seconds =       0.02 minutes
Total time:
	user time   =      22.47 seconds =       0.37 minutes
	system time =       0.80 seconds =       0.01 minutes
	total time  =          3 seconds =       0.05 minutes

*** tstart() called on node47.bme.utexas.edu
*** at Thu Apr 23 18:28:44 2020


  //>>>>>>>>>>>>>>>>>>>>>>>>>>>>>>>>>>>//
  //               DFMP2               //
  //<<<<<<<<<<<<<<<<<<<<<<<<<<<<<<<<<<<//

   => Loading Basis Set <=

    Name: (AUG-CC-PVQZ AUX)
    Role: RIFIT
    Keyword: DF_BASIS_MP2
    atoms 1   entry O          line   332 file /home/liuchw/anaconda3/envs/psi4env/share/psi4/basis/aug-cc-pvqz-ri.gbs 
    atoms 2-3 entry H          line    30 file /home/liuchw/anaconda3/envs/psi4env/share/psi4/basis/aug-cc-pvqz-ri.gbs 

	 --------------------------------------------------------
	                          DF-MP2                         
	      2nd-Order Density-Fitted Moller-Plesset Theory     
	              RMP2 Wavefunction,   8 Threads             
	                                                         
	        Rob Parrish, Justin Turney, Andy Simmonett,      
	           Ed Hohenstein, and C. David Sherrill          
	 --------------------------------------------------------

   => Auxiliary Basis Set <=

  Basis Set: (AUG-CC-PVQZ AUX)
    Blend: AUG-CC-PVQZ-RI
    Number of shells: 76
    Number of basis function: 328
    Number of Cartesian functions: 447
    Spherical Harmonics?: true
    Max angular momentum: 5

	 --------------------------------------------------------
	                 NBF =   172, NAUX =   328
	 --------------------------------------------------------
	   CLASS    FOCC     OCC    AOCC    AVIR     VIR    FVIR
	   PAIRS       0       5       5     167     167       0
	 --------------------------------------------------------

	-----------------------------------------------------------
	 ==================> DF-MP2 Energies <==================== 
	-----------------------------------------------------------
	 Reference Energy          =     -76.0655920078749972 [Eh]
	 Singles Energy            =      -0.0000000000000000 [Eh]
	 Same-Spin Energy          =      -0.0727480750499969 [Eh]
	 Opposite-Spin Energy      =      -0.2443578114955251 [Eh]
	 Correlation Energy        =      -0.3171058865455220 [Eh]
	 Total Energy              =     -76.3826978944205166 [Eh]
	-----------------------------------------------------------
	 ================> DF-SCS-MP2 Energies <================== 
	-----------------------------------------------------------
	 SCS Same-Spin Scale       =       0.3333333333333333 [-]
	 SCS Opposite-Spin Scale   =       1.2000000000000000 [-]
	 SCS Same-Spin Energy      =      -0.0242493583499990 [Eh]
	 SCS Opposite-Spin Energy  =      -0.2932293737946301 [Eh]
	 SCS Correlation Energy    =      -0.3174787321446291 [Eh]
	 SCS Total Energy          =     -76.3830707400196331 [Eh]
	-----------------------------------------------------------


*** tstop() called on node47.bme.utexas.edu at Thu Apr 23 18:28:45 2020
Module time:
	user time   =       4.53 seconds =       0.08 minutes
	system time =       0.18 seconds =       0.00 minutes
	total time  =          1 seconds =       0.02 minutes
Total time:
	user time   =      27.00 seconds =       0.45 minutes
	system time =       0.99 seconds =       0.02 minutes
	total time  =          4 seconds =       0.07 minutes

  //>>>>>>>>>>>>>>>>>>>>>>>>>>>>>>>>>>>//
  //  CBS Results: mp2/aug-cc-pv[tq]z  //
  //<<<<<<<<<<<<<<<<<<<<<<<<<<<<<<<<<<<//


   ==> HF <==

   HI-zeta (4) Energy:               -76.065592007875


   ==> Helgaker 2-point correlated extrapolation for method: MP2 <==

   LO-zeta (3) Energy:               -76.344059347775
   HI-zeta (4) Energy:               -76.382697894421
   Alpha (exponent) Value:             3.000000000000
   Extrapolated Energy:              -76.410893590621

   @Extrapolated MP2/(T,Q):          -76.410893590621



   ==> Helgaker 2-point correlated extrapolation for method: HF <==

   LO-zeta (3) Energy:               -76.060220019307
   HI-zeta (4) Energy:               -76.065592007875
   Alpha (exponent) Value:             3.000000000000
   Extrapolated Energy:              -76.069512107641

   @Extrapolated HF/(T,Q):           -76.069512107641


   ==> Components <==

  ---------------------------------------------------------------------------------------------------------
                          Method / Basis                      Rqd      Energy [Eh]   Variable
  ---------------------------------------------------------------------------------------------------------
                              hf / aug-cc-pvtz                  *     -76.06022002   HF TOTAL ENERGY
                             mp2 / aug-cc-pvtz                  *     -76.34405935   MP2 TOTAL ENERGY
                              hf / aug-cc-pvqz                  *     -76.06559201   HF TOTAL ENERGY
                             mp2 / aug-cc-pvqz                  *     -76.38269789   MP2 TOTAL ENERGY
  ---------------------------------------------------------------------------------------------------------

   ==> Stages <==

  ---------------------------------------------------------------------------------------------------------
      Stage               Method / Basis                       Wt      Energy [Eh]   Scheme
  ---------------------------------------------------------------------------------------------------------
        scf                   hf / aug-cc-pvqz                  1     -76.06559201   xtpl_highest_1
       corl                  mp2 / aug-cc-pv[tq]z               1     -76.41089359   corl_xtpl_helgaker_2
       corl                   hf / aug-cc-pv[tq]z              -1     -76.06951211   corl_xtpl_helgaker_2
  ---------------------------------------------------------------------------------------------------------

   ==> CBS <==

  ---------------------------------------------------------------------------------------------------------
      Stage               Method / Basis                               Energy [Eh]   Scheme
  ---------------------------------------------------------------------------------------------------------
        scf                   hf / aug-cc-pvqz                        -76.06559201   xtpl_highest_1
       corl                  mp2 / aug-cc-pv[tq]z                      -0.34138148   corl_xtpl_helgaker_2
      total                  CBS                                      -76.40697349   
  ---------------------------------------------------------------------------------------------------------
   => Loading Basis Set <=

    Name: DEF2-SVP
    Role: ORBITAL
    Keyword: BASIS
    atoms 1   entry O          line   130 file /home/liuchw/anaconda3/envs/psi4env/share/psi4/basis/def2-svp.gbs 
    atoms 2-3 entry H          line    15 file /home/liuchw/anaconda3/envs/psi4env/share/psi4/basis/def2-svp.gbs 


       N-Body: Complex Energy (fragments = (2,), basis = (2,):   -76.40697349085505)

       N-Body: Computing complex (2/4) with fragments (2,) in the basis of fragments (1, 2).


Scratch directory: /scratch/liuchw/

  //>>>>>>>>>>>>>>>>>>>>>>>>>>>>>>>>>>>//
  //   CBS Setup: mp2/aug-cc-pv[tq]z   //
  //<<<<<<<<<<<<<<<<<<<<<<<<<<<<<<<<<<<//

    Naive listing of computations required.
             hf / aug-cc-pvqz              for  HF TOTAL ENERGY
            mp2 / aug-cc-pvtz              for  MP2 TOTAL ENERGY
            mp2 / aug-cc-pvqz              for  MP2 TOTAL ENERGY
             hf / aug-cc-pvtz              for  HF TOTAL ENERGY
             hf / aug-cc-pvqz              for  HF TOTAL ENERGY

    Enlightened listing of computations required.
            mp2 / aug-cc-pvtz              for  MP2 TOTAL ENERGY
            mp2 / aug-cc-pvqz              for  MP2 TOTAL ENERGY

    Full listing of computations to be obtained (required and bonus).
             hf / aug-cc-pvtz              for  HF TOTAL ENERGY
            mp2 / aug-cc-pvtz              for  MP2 TOTAL ENERGY
             hf / aug-cc-pvqz              for  HF TOTAL ENERGY
            mp2 / aug-cc-pvqz              for  MP2 TOTAL ENERGY

  //>>>>>>>>>>>>>>>>>>>>>>>>>>>>>>>>>>>>//
  // CBS Computation: MP2 / AUG-CC-PVTZ //
  //<<<<<<<<<<<<<<<<<<<<<<<<<<<<<<<<<<<<//


Scratch directory: /scratch/liuchw/

*** tstart() called on node47.bme.utexas.edu
*** at Thu Apr 23 18:28:46 2020

   => Loading Basis Set <=

    Name: AUG-CC-PVTZ
    Role: ORBITAL
    Keyword: BASIS
    atoms 1        entry C          line   239 file /home/liuchw/anaconda3/envs/psi4env/share/psi4/basis/aug-cc-pvtz.gbs 
    atoms 2        entry S          line   906 file /home/liuchw/anaconda3/envs/psi4env/share/psi4/basis/aug-cc-pvtz.gbs 
    atoms 3-6, 8-9 entry H          line    40 file /home/liuchw/anaconda3/envs/psi4env/share/psi4/basis/aug-cc-pvtz.gbs 
    atoms 7        entry O          line   331 file /home/liuchw/anaconda3/envs/psi4env/share/psi4/basis/aug-cc-pvtz.gbs 


         ---------------------------------------------------------
                                   SCF
               by Justin Turney, Rob Parrish, Andy Simmonett
                          and Daniel G. A. Smith
                              RHF Reference
                        8 Threads,  19073 MiB Core
         ---------------------------------------------------------

  ==> Geometry <==

    Molecular point group: c1
    Full point group: C1

    Geometry (in Angstrom), charge = 0, multiplicity = 1:

       Center              X                  Y                   Z               Mass       
    ------------   -----------------  -----------------  -----------------  -----------------
      Gh(C)           1.597728283353     0.163927447806     0.070420705420    12.000000000000
      Gh(S)           0.274378283353     0.717827447806    -1.045549294580    31.972071174400
      Gh(H)          -0.020061716647     1.845377447806    -0.392199294580     1.007825032230
      Gh(H)           1.213588283353    -0.018242552194     1.068470705420     1.007825032230
      Gh(H)           1.964308283353    -0.772152552194    -0.340669294580     1.007825032230
      Gh(H)           2.410388283353     0.882257447806     0.090990705420     1.007825032230
         O           -1.818771716647    -1.495682552194     1.834420705420    15.994914619570
         H           -1.728781716647    -1.056962552194     0.980270705420     1.007825032230
         H           -2.702421716647    -1.866802552194     1.809890705420     1.007825032230

  Running in c1 symmetry.

  Rotational constants: A =      0.40985  B =      0.07449  C =      0.06464 [cm^-1]
  Rotational constants: A =  12287.10186  B =   2233.03578  C =   1937.86034 [MHz]
  Nuclear repulsion =    9.154674454693650

  Charge       = 0
  Multiplicity = 1
  Electrons    = 10
  Nalpha       = 5
  Nbeta        = 5

  ==> Algorithm <==

  SCF Algorithm Type is DF.
  DIIS enabled.
  MOM disabled.
  Fractional occupation disabled.
  Guess Type is SAD.
  Energy threshold   = 1.00e-07
  Density threshold  = 1.00e-08
  Integral threshold = 0.00e+00

  ==> Primary Basis <==

  Basis Set: AUG-CC-PVTZ
    Blend: AUG-CC-PVTZ
    Number of shells: 98
    Number of basis function: 280
    Number of Cartesian functions: 319
    Spherical Harmonics?: true
    Max angular momentum: 3

   => Loading Basis Set <=

    Name: (AUG-CC-PVTZ AUX)
    Role: JKFIT
    Keyword: DF_BASIS_SCF
    atoms 1        entry C          line   162 file /home/liuchw/anaconda3/envs/psi4env/share/psi4/basis/aug-cc-pvtz-jkfit.gbs 
    atoms 2        entry S          line   730 file /home/liuchw/anaconda3/envs/psi4env/share/psi4/basis/aug-cc-pvtz-jkfit.gbs 
    atoms 3-6, 8-9 entry H          line    70 file /home/liuchw/anaconda3/envs/psi4env/share/psi4/basis/aug-cc-pvtz-jkfit.gbs 
    atoms 7        entry O          line   286 file /home/liuchw/anaconda3/envs/psi4env/share/psi4/basis/aug-cc-pvtz-jkfit.gbs 

  ==> Pre-Iterations <==

   -------------------------------------------------------
    Irrep   Nso     Nmo     Nalpha   Nbeta   Ndocc  Nsocc
   -------------------------------------------------------
     A        280     280       0       0       0       0
   -------------------------------------------------------
    Total     280     280       5       5       5       0
   -------------------------------------------------------

  ==> Integral Setup <==

  DFHelper Memory: AOs need 0.375 GiB; user supplied 13.970 GiB. Using in-core AOs.

  ==> MemDFJK: Density-Fitted J/K Matrices <==

    J tasked:                   Yes
    K tasked:                   Yes
    wK tasked:                   No
    OpenMP threads:               8
    Memory [MiB]:             14305
    Algorithm:                 Core
    Schwarz Cutoff:           1E-12
    Mask sparsity (%):       4.4056
    Fitting Condition:        1E-10

   => Auxiliary Basis Set <=

  Basis Set: (AUG-CC-PVTZ AUX)
    Blend: AUG-CC-PVTZ-JKFIT
    Number of shells: 186
    Number of basis function: 630
    Number of Cartesian functions: 772
    Spherical Harmonics?: true
    Max angular momentum: 4

  Minimum eigenvalue in the overlap matrix is 6.2008135951E-05.
  Using Symmetric Orthogonalization.

  SCF Guess: Superposition of Atomic Densities via on-the-fly atomic UHF.

  ==> Iterations <==

                           Total Energy        Delta E     RMS |[F,P]|

   @DF-RHF iter SAD:   -75.47372134403678   -7.54737e+01   0.00000e+00 
   @DF-RHF iter   1:   -75.97573962493642   -5.02018e-01   1.67254e-03 DIIS
   @DF-RHF iter   2:   -76.02818198053394   -5.24424e-02   1.14340e-03 DIIS
   @DF-RHF iter   3:   -76.05982043760685   -3.16385e-02   7.76895e-05 DIIS
   @DF-RHF iter   4:   -76.06021181037809   -3.91373e-04   1.86845e-05 DIIS
   @DF-RHF iter   5:   -76.06023653843783   -2.47281e-05   4.25317e-06 DIIS
   @DF-RHF iter   6:   -76.06023856887063   -2.03043e-06   9.31205e-07 DIIS
   @DF-RHF iter   7:   -76.06023867578426   -1.06914e-07   1.67110e-07 DIIS
   @DF-RHF iter   8:   -76.06023867880528   -3.02101e-09   2.80624e-08 DIIS
   @DF-RHF iter   9:   -76.06023867887205   -6.67768e-11   6.89700e-09 DIIS
  Energy and wave function converged.


  ==> Post-Iterations <==

    Orbital Energies [Eh]
    ---------------------

    Doubly Occupied:                                                      

       1A    -20.568259     2A     -1.351848     3A     -0.714190  
       4A     -0.585399     5A     -0.510196  

    Virtual:                                                              

       6A      0.019927     7A      0.034939     8A      0.041630  
       9A      0.045942    10A      0.060154    11A      0.073009  
      12A      0.081354    13A      0.095542    14A      0.101935  
      15A      0.116340    16A      0.121777    17A      0.127484  
      18A      0.130723    19A      0.156679    20A      0.163686  
      21A      0.173039    22A      0.189493    23A      0.202884  
      24A      0.227171    25A      0.247147    26A      0.255969  
      27A      0.269626    28A      0.270108    29A      0.284041  
      30A      0.288464    31A      0.290084    32A      0.295585  
      33A      0.302687    34A      0.307732    35A      0.313491  
      36A      0.322240    37A      0.331861    38A      0.345632  
      39A      0.360847    40A      0.371128    41A      0.381639  
      42A      0.398719    43A      0.403093    44A      0.415554  
      45A      0.422271    46A      0.425346    47A      0.438358  
      48A      0.449396    49A      0.467450    50A      0.485774  
      51A      0.488828    52A      0.507267    53A      0.511547  
      54A      0.523966    55A      0.545338    56A      0.560173  
      57A      0.564929    58A      0.585918    59A      0.608446  
      60A      0.617753    61A      0.631002    62A      0.638142  
      63A      0.658191    64A      0.676155    65A      0.699766  
      66A      0.735197    67A      0.745927    68A      0.748800  
      69A      0.754544    70A      0.771066    71A      0.839994  
      72A      0.853714    73A      0.899596    74A      0.902212  
      75A      0.917744    76A      0.925715    77A      0.939776  
      78A      0.946364    79A      0.951419    80A      0.962356  
      81A      0.967716    82A      0.972876    83A      0.995040  
      84A      1.003408    85A      1.007436    86A      1.018992  
      87A      1.033630    88A      1.042765    89A      1.048456  
      90A      1.064785    91A      1.077169    92A      1.080265  
      93A      1.083959    94A      1.102112    95A      1.109359  
      96A      1.120760    97A      1.126308    98A      1.127567  
      99A      1.139501   100A      1.158099   101A      1.167466  
     102A      1.177963   103A      1.188164   104A      1.202449  
     105A      1.203435   106A      1.207564   107A      1.225269  
     108A      1.231707   109A      1.252000   110A      1.254703  
     111A      1.275411   112A      1.297357   113A      1.317388  
     114A      1.329521   115A      1.346503   116A      1.359372  
     117A      1.371282   118A      1.382686   119A      1.387991  
     120A      1.402112   121A      1.423821   122A      1.445632  
     123A      1.455676   124A      1.466575   125A      1.527426  
     126A      1.551194   127A      1.552412   128A      1.597368  
     129A      1.602439   130A      1.643838   131A      1.717777  
     132A      1.727055   133A      1.808590   134A      1.838970  
     135A      1.841767   136A      1.848571   137A      1.862210  
     138A      1.885214   139A      1.949665   140A      1.961485  
     141A      1.976630   142A      1.992110   143A      2.008612  
     144A      2.044023   145A      2.065384   146A      2.075926  
     147A      2.097225   148A      2.119374   149A      2.171305  
     150A      2.205653   151A      2.272173   152A      2.282665  
     153A      2.301632   154A      2.340973   155A      2.369690  
     156A      2.411603   157A      2.426190   158A      2.441555  
     159A      2.442927   160A      2.459830   161A      2.476120  
     162A      2.492811   163A      2.533447   164A      2.584235  
     165A      2.716223   166A      2.722490   167A      2.725952  
     168A      2.742212   169A      2.836462   170A      2.880840  
     171A      2.896096   172A      2.901698   173A      3.103923  
     174A      3.142415   175A      3.172644   176A      3.241740  
     177A      3.354974   178A      3.374950   179A      3.445523  
     180A      3.653214   181A      3.662938   182A      3.690942  
     183A      3.726045   184A      3.768935   185A      3.811930  
     186A      3.826756   187A      3.828939   188A      3.915803  
     189A      4.034642   190A      4.038848   191A      4.060384  
     192A      4.092304   193A      4.112141   194A      4.122101  
     195A      4.134866   196A      4.161627   197A      4.189103  
     198A      4.221051   199A      4.280165   200A      4.298630  
     201A      4.301017   202A      4.312965   203A      4.387004  
     204A      4.402605   205A      4.408360   206A      4.412074  
     207A      4.428040   208A      4.440856   209A      4.463144  
     210A      4.509701   211A      4.550082   212A      4.559990  
     213A      4.640534   214A      4.677704   215A      4.692368  
     216A      4.707306   217A      4.767862   218A      4.805896  
     219A      4.825071   220A      4.884829   221A      4.899396  
     222A      4.927762   223A      4.941332   224A      4.956877  
     225A      4.988225   226A      5.036080   227A      5.138468  
     228A      5.149906   229A      5.180605   230A      5.202664  
     231A      5.269090   232A      5.284381   233A      5.318587  
     234A      5.348251   235A      5.360530   236A      5.364839  
     237A      5.462341   238A      5.486474   239A      5.511761  
     240A      5.524413   241A      5.612285   242A      5.672434  
     243A      5.714100   244A      5.815353   245A      5.858906  
     246A      6.124671   247A      6.173728   248A      6.185847  
     249A      6.221863   250A      6.240576   251A      6.554003  
     252A      6.690335   253A      6.696732   254A      6.732971  
     255A      6.778048   256A      6.936303   257A      7.138962  
     258A      7.148130   259A      7.266342   260A      7.315484  
     261A      7.323886   262A      7.370665   263A      7.378519  
     264A      7.568645   265A      7.740824   266A      7.769917  
     267A      7.824170   268A      7.926896   269A      7.943051  
     270A      8.161295   271A      8.198584   272A      8.815466  
     273A     10.307344   274A     14.994357   275A     15.862570  
     276A     24.382553   277A     24.926661   278A     25.260195  
     279A     51.484106   280A    141.698456  

    Final Occupation by Irrep:
              A 
    DOCC [     5 ]

  @DF-RHF Final Energy:   -76.06023867887205

   => Energetics <=

    Nuclear Repulsion Energy =              9.1546744546936498
    One-Electron Energy =                -122.9700377345007354
    Two-Electron Energy =                  37.7551246009350265
    Total Energy =                        -76.0602386788720537

Computation Completed


Properties will be evaluated at   0.000000,   0.000000,   0.000000 [a0]

Properties computed using the SCF density matrix

  Nuclear Dipole Moment: [e a0]
     X:   -35.8696      Y:   -28.1366      Z:    33.0051

  Electronic Dipole Moment: [e a0]
     X:    35.3431      Y:    28.1808      Z:   -33.5868

  Dipole Moment: [e a0]
     X:    -0.5265      Y:     0.0443      Z:    -0.5818     Total:     0.7859

  Dipole Moment: [D]
     X:    -1.3383      Y:     0.1125      Z:    -1.4787     Total:     1.9976


*** tstop() called on node47.bme.utexas.edu at Thu Apr 23 18:28:49 2020
Module time:
	user time   =      17.49 seconds =       0.29 minutes
	system time =       0.46 seconds =       0.01 minutes
	total time  =          3 seconds =       0.05 minutes
Total time:
	user time   =      46.46 seconds =       0.77 minutes
	system time =       1.50 seconds =       0.03 minutes
	total time  =          8 seconds =       0.13 minutes

*** tstart() called on node47.bme.utexas.edu
*** at Thu Apr 23 18:28:49 2020


  //>>>>>>>>>>>>>>>>>>>>>>>>>>>>>>>>>>>//
  //               DFMP2               //
  //<<<<<<<<<<<<<<<<<<<<<<<<<<<<<<<<<<<//

   => Loading Basis Set <=

    Name: (AUG-CC-PVTZ AUX)
    Role: RIFIT
    Keyword: DF_BASIS_MP2
    atoms 1        entry C          line   148 file /home/liuchw/anaconda3/envs/psi4env/share/psi4/basis/aug-cc-pvtz-ri.gbs 
    atoms 2        entry S          line   666 file /home/liuchw/anaconda3/envs/psi4env/share/psi4/basis/aug-cc-pvtz-ri.gbs 
    atoms 3-6, 8-9 entry H          line    30 file /home/liuchw/anaconda3/envs/psi4env/share/psi4/basis/aug-cc-pvtz-ri.gbs 
    atoms 7        entry O          line   264 file /home/liuchw/anaconda3/envs/psi4env/share/psi4/basis/aug-cc-pvtz-ri.gbs 

	 --------------------------------------------------------
	                          DF-MP2                         
	      2nd-Order Density-Fitted Moller-Plesset Theory     
	              RMP2 Wavefunction,   8 Threads             
	                                                         
	        Rob Parrish, Justin Turney, Andy Simmonett,      
	           Ed Hohenstein, and C. David Sherrill          
	 --------------------------------------------------------

   => Auxiliary Basis Set <=

  Basis Set: (AUG-CC-PVTZ AUX)
    Blend: AUG-CC-PVTZ-RI
    Number of shells: 177
    Number of basis function: 635
    Number of Cartesian functions: 793
    Spherical Harmonics?: true
    Max angular momentum: 4

	 --------------------------------------------------------
	                 NBF =   280, NAUX =   635
	 --------------------------------------------------------
	   CLASS    FOCC     OCC    AOCC    AVIR     VIR    FVIR
	   PAIRS       0       5       5     275     275       0
	 --------------------------------------------------------

	-----------------------------------------------------------
	 ==================> DF-MP2 Energies <==================== 
	-----------------------------------------------------------
	 Reference Energy          =     -76.0602386788720537 [Eh]
	 Singles Energy            =      -0.0000000000000000 [Eh]
	 Same-Spin Energy          =      -0.0684423510256263 [Eh]
	 Opposite-Spin Energy      =      -0.2155764708600604 [Eh]
	 Correlation Energy        =      -0.2840188218856867 [Eh]
	 Total Energy              =     -76.3442575007577346 [Eh]
	-----------------------------------------------------------
	 ================> DF-SCS-MP2 Energies <================== 
	-----------------------------------------------------------
	 SCS Same-Spin Scale       =       0.3333333333333333 [-]
	 SCS Opposite-Spin Scale   =       1.2000000000000000 [-]
	 SCS Same-Spin Energy      =      -0.0228141170085421 [Eh]
	 SCS Opposite-Spin Energy  =      -0.2586917650320725 [Eh]
	 SCS Correlation Energy    =      -0.2815058820406146 [Eh]
	 SCS Total Energy          =     -76.3417445609126730 [Eh]
	-----------------------------------------------------------


*** tstop() called on node47.bme.utexas.edu at Thu Apr 23 18:28:50 2020
Module time:
	user time   =       8.46 seconds =       0.14 minutes
	system time =       0.25 seconds =       0.00 minutes
	total time  =          1 seconds =       0.02 minutes
Total time:
	user time   =      54.93 seconds =       0.92 minutes
	system time =       1.75 seconds =       0.03 minutes
	total time  =          9 seconds =       0.15 minutes

  //>>>>>>>>>>>>>>>>>>>>>>>>>>>>>>>>>>>>//
  // CBS Computation: MP2 / AUG-CC-PVQZ //
  //<<<<<<<<<<<<<<<<<<<<<<<<<<<<<<<<<<<<//


Scratch directory: /scratch/liuchw/

*** tstart() called on node47.bme.utexas.edu
*** at Thu Apr 23 18:28:50 2020

   => Loading Basis Set <=

    Name: AUG-CC-PVQZ
    Role: ORBITAL
    Keyword: BASIS
    atoms 1        entry C          line   303 file /home/liuchw/anaconda3/envs/psi4env/share/psi4/basis/aug-cc-pvqz.gbs 
    atoms 2        entry S          line  1126 file /home/liuchw/anaconda3/envs/psi4env/share/psi4/basis/aug-cc-pvqz.gbs 
    atoms 3-6, 8-9 entry H          line    40 file /home/liuchw/anaconda3/envs/psi4env/share/psi4/basis/aug-cc-pvqz.gbs 
    atoms 7        entry O          line   423 file /home/liuchw/anaconda3/envs/psi4env/share/psi4/basis/aug-cc-pvqz.gbs 


         ---------------------------------------------------------
                                   SCF
               by Justin Turney, Rob Parrish, Andy Simmonett
                          and Daniel G. A. Smith
                              RHF Reference
                        8 Threads,  19073 MiB Core
         ---------------------------------------------------------

  ==> Geometry <==

    Molecular point group: c1
    Full point group: C1

    Geometry (in Angstrom), charge = 0, multiplicity = 1:

       Center              X                  Y                   Z               Mass       
    ------------   -----------------  -----------------  -----------------  -----------------
      Gh(C)           1.597728283353     0.163927447806     0.070420705420    12.000000000000
      Gh(S)           0.274378283353     0.717827447806    -1.045549294580    31.972071174400
      Gh(H)          -0.020061716647     1.845377447806    -0.392199294580     1.007825032230
      Gh(H)           1.213588283353    -0.018242552194     1.068470705420     1.007825032230
      Gh(H)           1.964308283353    -0.772152552194    -0.340669294580     1.007825032230
      Gh(H)           2.410388283353     0.882257447806     0.090990705420     1.007825032230
         O           -1.818771716647    -1.495682552194     1.834420705420    15.994914619570
         H           -1.728781716647    -1.056962552194     0.980270705420     1.007825032230
         H           -2.702421716647    -1.866802552194     1.809890705420     1.007825032230

  Running in c1 symmetry.

  Rotational constants: A =      0.40985  B =      0.07449  C =      0.06464 [cm^-1]
  Rotational constants: A =  12287.10186  B =   2233.03578  C =   1937.86034 [MHz]
  Nuclear repulsion =    9.154674454693650

  Charge       = 0
  Multiplicity = 1
  Electrons    = 10
  Nalpha       = 5
  Nbeta        = 5

  ==> Algorithm <==

  SCF Algorithm Type is DF.
  DIIS enabled.
  MOM disabled.
  Fractional occupation disabled.
  Guess Type is SAD.
  Energy threshold   = 1.00e-07
  Density threshold  = 1.00e-08
  Integral threshold = 0.00e+00

  ==> Primary Basis <==

  Basis Set: AUG-CC-PVQZ
    Blend: AUG-CC-PVQZ
    Number of shells: 146
    Number of basis function: 520
    Number of Cartesian functions: 649
    Spherical Harmonics?: true
    Max angular momentum: 4

   => Loading Basis Set <=

    Name: (AUG-CC-PVQZ AUX)
    Role: JKFIT
    Keyword: DF_BASIS_SCF
    atoms 1        entry C          line   178 file /home/liuchw/anaconda3/envs/psi4env/share/psi4/basis/aug-cc-pvqz-jkfit.gbs 
    atoms 2        entry S          line   810 file /home/liuchw/anaconda3/envs/psi4env/share/psi4/basis/aug-cc-pvqz-jkfit.gbs 
    atoms 3-6, 8-9 entry H          line    70 file /home/liuchw/anaconda3/envs/psi4env/share/psi4/basis/aug-cc-pvqz-jkfit.gbs 
    atoms 7        entry O          line   318 file /home/liuchw/anaconda3/envs/psi4env/share/psi4/basis/aug-cc-pvqz-jkfit.gbs 

  ==> Pre-Iterations <==

   -------------------------------------------------------
    Irrep   Nso     Nmo     Nalpha   Nbeta   Ndocc  Nsocc
   -------------------------------------------------------
     A        520     520       0       0       0       0
   -------------------------------------------------------
    Total     520     520       5       5       5       0
   -------------------------------------------------------

  ==> Integral Setup <==

  DFHelper Memory: AOs need 1.791 GiB; user supplied 13.970 GiB. Using in-core AOs.

  ==> MemDFJK: Density-Fitted J/K Matrices <==

    J tasked:                   Yes
    K tasked:                   Yes
    wK tasked:                   No
    OpenMP threads:               8
    Memory [MiB]:             14305
    Algorithm:                 Core
    Schwarz Cutoff:           1E-12
    Mask sparsity (%):       8.5925
    Fitting Condition:        1E-10

   => Auxiliary Basis Set <=

  Basis Set: (AUG-CC-PVQZ AUX)
    Blend: AUG-CC-PVQZ-JKFIT
    Number of shells: 222
    Number of basis function: 924
    Number of Cartesian functions: 1249
    Spherical Harmonics?: true
    Max angular momentum: 5

  Minimum eigenvalue in the overlap matrix is 1.3189091181E-05.
  Using Symmetric Orthogonalization.

  SCF Guess: Superposition of Atomic Densities via on-the-fly atomic UHF.

  ==> Iterations <==

                           Total Energy        Delta E     RMS |[F,P]|

   @DF-RHF iter SAD:   -75.47885956600992   -7.54789e+01   0.00000e+00 
   @DF-RHF iter   1:   -75.98080445080313   -5.01945e-01   9.02524e-04 DIIS
   @DF-RHF iter   2:   -76.03334482019821   -5.25404e-02   6.18355e-04 DIIS
   @DF-RHF iter   3:   -76.06517992075877   -3.18351e-02   4.21492e-05 DIIS
   @DF-RHF iter   4:   -76.06557338611988   -3.93465e-04   1.03619e-05 DIIS
   @DF-RHF iter   5:   -76.06559901825158   -2.56321e-05   2.35043e-06 DIIS
   @DF-RHF iter   6:   -76.06560113093025   -2.11268e-06   5.28628e-07 DIIS
   @DF-RHF iter   7:   -76.06560124934862   -1.18418e-07   9.81105e-08 DIIS
   @DF-RHF iter   8:   -76.06560125292741   -3.57879e-09   1.58283e-08 DIIS
   @DF-RHF iter   9:   -76.06560125300246   -7.50475e-11   3.80060e-09 DIIS
  Energy and wave function converged.


  ==> Post-Iterations <==

    Orbital Energies [Eh]
    ---------------------

    Doubly Occupied:                                                      

       1A    -20.565794     2A     -1.351114     3A     -0.714150  
       4A     -0.585447     5A     -0.510325  

    Virtual:                                                              

       6A      0.017721     7A      0.031697     8A      0.037705  
       9A      0.041252    10A      0.054597    11A      0.065973  
      12A      0.071361    13A      0.083257    14A      0.088053  
      15A      0.100055    16A      0.107527    17A      0.109555  
      18A      0.114824    19A      0.133730    20A      0.140285  
      21A      0.148809    22A      0.160492    23A      0.174610  
      24A      0.188971    25A      0.210775    26A      0.214429  
      27A      0.216833    28A      0.224004    29A      0.230748  
      30A      0.238676    31A      0.241894    32A      0.244228  
      33A      0.248981    34A      0.256976    35A      0.259612  
      36A      0.264198    37A      0.276501    38A      0.288326  
      39A      0.291564    40A      0.304670    41A      0.314936  
      42A      0.316141    43A      0.318723    44A      0.326527  
      45A      0.330680    46A      0.345883    47A      0.348284  
      48A      0.358897    49A      0.368242    50A      0.382247  
      51A      0.396976    52A      0.404570    53A      0.415457  
      54A      0.431249    55A      0.435688    56A      0.439429  
      57A      0.452732    58A      0.469425    59A      0.478574  
      60A      0.496734    61A      0.508802    62A      0.513215  
      63A      0.522271    64A      0.550329    65A      0.553577  
      66A      0.567887    67A      0.575434    68A      0.586609  
      69A      0.591961    70A      0.599187    71A      0.623278  
      72A      0.639490    73A      0.644159    74A      0.656369  
      75A      0.668755    76A      0.681485    77A      0.692592  
      78A      0.696654    79A      0.701441    80A      0.707539  
      81A      0.716719    82A      0.724114    83A      0.725857  
      84A      0.731505    85A      0.738362    86A      0.751615  
      87A      0.757913    88A      0.766739    89A      0.771442  
      90A      0.778049    91A      0.788329    92A      0.789791  
      93A      0.806194    94A      0.809243    95A      0.813279  
      96A      0.833256    97A      0.841033    98A      0.851970  
      99A      0.854083   100A      0.863938   101A      0.868439  
     102A      0.879102   103A      0.886060   104A      0.894805  
     105A      0.906561   106A      0.917432   107A      0.928366  
     108A      0.944928   109A      0.948350   110A      0.958431  
     111A      0.968596   112A      0.986794   113A      0.989957  
     114A      0.999119   115A      1.015964   116A      1.033267  
     117A      1.041228   118A      1.048471   119A      1.051318  
     120A      1.055983   121A      1.072190   122A      1.081779  
     123A      1.095121   124A      1.116362   125A      1.138970  
     126A      1.175925   127A      1.196050   128A      1.213973  
     129A      1.219047   130A      1.241320   131A      1.255808  
     132A      1.270429   133A      1.288846   134A      1.316574  
     135A      1.334041   136A      1.356866   137A      1.376328  
     138A      1.389564   139A      1.414716   140A      1.428623  
     141A      1.457095   142A      1.476608   143A      1.477282  
     144A      1.507753   145A      1.521419   146A      1.521820  
     147A      1.546899   148A      1.552885   149A      1.564322  
     150A      1.574366   151A      1.596015   152A      1.598973  
     153A      1.618021   154A      1.629175   155A      1.638459  
     156A      1.639651   157A      1.655735   158A      1.665028  
     159A      1.683933   160A      1.690992   161A      1.700718  
     162A      1.712879   163A      1.730986   164A      1.736803  
     165A      1.750785   166A      1.751306   167A      1.760167  
     168A      1.766875   169A      1.776234   170A      1.789512  
     171A      1.797029   172A      1.806932   173A      1.808424  
     174A      1.820014   175A      1.829217   176A      1.833015  
     177A      1.848712   178A      1.853338   179A      1.863607  
     180A      1.876748   181A      1.887395   182A      1.899402  
     183A      1.914497   184A      1.923792   185A      1.926836  
     186A      1.941008   187A      1.954961   188A      1.962018  
     189A      1.976050   190A      1.991830   191A      2.001676  
     192A      2.010825   193A      2.023415   194A      2.037417  
     195A      2.047520   196A      2.057230   197A      2.062335  
     198A      2.072726   199A      2.092370   200A      2.097653  
     201A      2.102750   202A      2.114400   203A      2.128527  
     204A      2.142733   205A      2.159467   206A      2.172259  
     207A      2.183972   208A      2.196695   209A      2.209159  
     210A      2.222990   211A      2.230627   212A      2.241310  
     213A      2.259295   214A      2.262465   215A      2.273992  
     216A      2.284076   217A      2.301238   218A      2.340272  
     219A      2.363581   220A      2.375011   221A      2.387695  
     222A      2.400786   223A      2.416273   224A      2.445528  
     225A      2.457246   226A      2.464704   227A      2.502735  
     228A      2.507381   229A      2.522436   230A      2.555198  
     231A      2.572296   232A      2.582991   233A      2.623856  
     234A      2.642526   235A      2.663328   236A      2.676766  
     237A      2.689387   238A      2.702728   239A      2.717916  
     240A      2.735770   241A      2.769029   242A      2.776044  
     243A      2.807338   244A      2.856409   245A      2.863979  
     246A      2.885397   247A      2.936254   248A      2.991942  
     249A      3.014189   250A      3.026245   251A      3.043201  
     252A      3.046160   253A      3.065509   254A      3.077873  
     255A      3.090364   256A      3.104825   257A      3.139923  
     258A      3.152822   259A      3.155895   260A      3.190921  
     261A      3.204590   262A      3.240525   263A      3.277294  
     264A      3.289139   265A      3.291132   266A      3.315856  
     267A      3.320631   268A      3.323608   269A      3.354591  
     270A      3.388516   271A      3.403450   272A      3.417273  
     273A      3.424369   274A      3.458751   275A      3.475574  
     276A      3.500905   277A      3.538802   278A      3.543087  
     279A      3.560205   280A      3.635864   281A      3.653793  
     282A      3.672608   283A      3.678923   284A      3.699825  
     285A      3.774184   286A      3.810690   287A      3.830899  
     288A      3.852147   289A      3.855445   290A      3.890269  
     291A      3.912807   292A      3.918814   293A      3.966975  
     294A      3.992711   295A      4.043048   296A      4.065803  
     297A      4.077371   298A      4.100954   299A      4.108177  
     300A      4.143183   301A      4.154572   302A      4.176216  
     303A      4.185546   304A      4.192319   305A      4.200101  
     306A      4.230620   307A      4.270133   308A      4.287587  
     309A      4.315660   310A      4.362561   311A      4.394902  
     312A      4.411554   313A      4.425046   314A      4.509276  
     315A      4.528990   316A      4.592156   317A      4.654445  
     318A      4.697929   319A      4.707921   320A      4.727157  
     321A      4.736684   322A      4.764157   323A      4.774992  
     324A      4.783643   325A      4.822734   326A      4.823667  
     327A      4.835436   328A      4.851251   329A      4.864915  
     330A      4.910135   331A      4.913372   332A      4.937466  
     333A      4.943923   334A      5.014903   335A      5.022821  
     336A      5.065262   337A      5.104817   338A      5.111799  
     339A      5.177766   340A      5.229315   341A      5.284845  
     342A      5.326711   343A      5.336814   344A      5.343601  
     345A      5.377654   346A      5.402462   347A      5.450325  
     348A      5.494580   349A      5.534599   350A      5.549367  
     351A      5.579241   352A      5.626693   353A      5.680924  
     354A      5.783481   355A      5.894967   356A      5.902010  
     357A      6.017484   358A      6.115605   359A      6.317958  
     360A      6.568297   361A      6.602786   362A      6.641609  
     363A      6.712909   364A      6.810632   365A      6.821760  
     366A      6.842040   367A      6.855629   368A      6.878947  
     369A      6.890904   370A      6.915881   371A      6.926748  
     372A      6.946537   373A      6.954942   374A      6.965852  
     375A      7.038396   376A      7.040157   377A      7.061269  
     378A      7.124915   379A      7.144770   380A      7.248806  
     381A      7.263755   382A      7.313037   383A      7.355641  
     384A      7.396993   385A      7.429680   386A      7.434565  
     387A      7.467915   388A      7.480263   389A      7.512510  
     390A      7.654567   391A      7.679550   392A      7.710644  
     393A      7.758358   394A      7.771442   395A      7.779163  
     396A      7.804448   397A      7.838315   398A      7.850247  
     399A      7.902723   400A      7.917097   401A      7.963531  
     402A      7.968731   403A      8.003058   404A      8.027102  
     405A      8.042516   406A      8.058806   407A      8.091776  
     408A      8.202005   409A      8.232960   410A      8.244924  
     411A      8.259579   412A      8.273371   413A      8.412767  
     414A      8.512068   415A      8.536564   416A      8.587588  
     417A      8.604945   418A      8.680187   419A      8.712009  
     420A      8.718143   421A      8.800571   422A      8.832814  
     423A      8.848014   424A      8.854025   425A      8.887786  
     426A      8.903164   427A      8.908250   428A      9.002489  
     429A      9.052316   430A      9.078834   431A      9.266923  
     432A      9.268807   433A      9.291070   434A      9.317912  
     435A      9.345176   436A      9.393320   437A      9.496929  
     438A      9.525381   439A      9.553574   440A      9.637142  
     441A      9.681082   442A      9.698909   443A      9.725145  
     444A      9.733992   445A      9.785610   446A      9.794758  
     447A      9.809680   448A      9.850617   449A      9.869254  
     450A      9.893811   451A      9.929179   452A      9.949281  
     453A      9.951162   454A      9.972056   455A     10.004022  
     456A     10.031989   457A     10.073821   458A     10.180757  
     459A     10.296546   460A     10.330669   461A     10.357439  
     462A     10.486945   463A     10.498030   464A     10.625167  
     465A     10.643544   466A     10.659633   467A     10.734993  
     468A     10.774805   469A     10.803770   470A     10.815818  
     471A     10.841408   472A     10.927359   473A     11.036293  
     474A     11.105318   475A     11.157408   476A     11.240028  
     477A     11.258788   478A     11.286298   479A     11.317756  
     480A     11.337986   481A     11.395828   482A     11.445893  
     483A     11.733697   484A     11.839203   485A     11.859141  
     486A     12.016872   487A     12.084658   488A     12.149343  
     489A     12.213330   490A     12.222358   491A     12.230504  
     492A     12.374411   493A     12.660042   494A     12.754653  
     495A     12.827113   496A     12.909629   497A     13.172296  
     498A     13.200506   499A     13.213664   500A     13.408617  
     501A     13.638825   502A     13.988765   503A     14.067149  
     504A     14.494096   505A     14.791449   506A     14.797587  
     507A     14.903314   508A     15.263303   509A     16.512012  
     510A     16.910872   511A     17.323166   512A     17.358343  
     513A     17.398978   514A     25.724733   515A     25.822892  
     516A     25.847317   517A     35.533985   518A     45.601684  
     519A     71.603830   520A    141.452075  

    Final Occupation by Irrep:
              A 
    DOCC [     5 ]

  @DF-RHF Final Energy:   -76.06560125300246

   => Energetics <=

    Nuclear Repulsion Energy =              9.1546744546936498
    One-Electron Energy =                -122.9868881849620976
    Two-Electron Energy =                  37.7666124772659941
    Total Energy =                        -76.0656012530024555

Computation Completed


Properties will be evaluated at   0.000000,   0.000000,   0.000000 [a0]

Properties computed using the SCF density matrix

  Nuclear Dipole Moment: [e a0]
     X:   -35.8696      Y:   -28.1366      Z:    33.0051

  Electronic Dipole Moment: [e a0]
     X:    35.3437      Y:    28.1808      Z:   -33.5860

  Dipole Moment: [e a0]
     X:    -0.5259      Y:     0.0442      Z:    -0.5810     Total:     0.7849

  Dipole Moment: [D]
     X:    -1.3367      Y:     0.1124      Z:    -1.4767     Total:     1.9950


*** tstop() called on node47.bme.utexas.edu at Thu Apr 23 18:28:59 2020
Module time:
	user time   =      56.83 seconds =       0.95 minutes
	system time =       1.27 seconds =       0.02 minutes
	total time  =          9 seconds =       0.15 minutes
Total time:
	user time   =     111.81 seconds =       1.86 minutes
	system time =       3.02 seconds =       0.05 minutes
	total time  =         18 seconds =       0.30 minutes

*** tstart() called on node47.bme.utexas.edu
*** at Thu Apr 23 18:28:59 2020


  //>>>>>>>>>>>>>>>>>>>>>>>>>>>>>>>>>>>//
  //               DFMP2               //
  //<<<<<<<<<<<<<<<<<<<<<<<<<<<<<<<<<<<//

   => Loading Basis Set <=

    Name: (AUG-CC-PVQZ AUX)
    Role: RIFIT
    Keyword: DF_BASIS_MP2
    atoms 1        entry C          line   184 file /home/liuchw/anaconda3/envs/psi4env/share/psi4/basis/aug-cc-pvqz-ri.gbs 
    atoms 2        entry S          line   824 file /home/liuchw/anaconda3/envs/psi4env/share/psi4/basis/aug-cc-pvqz-ri.gbs 
    atoms 3-6, 8-9 entry H          line    30 file /home/liuchw/anaconda3/envs/psi4env/share/psi4/basis/aug-cc-pvqz-ri.gbs 
    atoms 7        entry O          line   332 file /home/liuchw/anaconda3/envs/psi4env/share/psi4/basis/aug-cc-pvqz-ri.gbs 

	 --------------------------------------------------------
	                          DF-MP2                         
	      2nd-Order Density-Fitted Moller-Plesset Theory     
	              RMP2 Wavefunction,   8 Threads             
	                                                         
	        Rob Parrish, Justin Turney, Andy Simmonett,      
	           Ed Hohenstein, and C. David Sherrill          
	 --------------------------------------------------------

   => Auxiliary Basis Set <=

  Basis Set: (AUG-CC-PVQZ AUX)
    Blend: AUG-CC-PVQZ-RI
    Number of shells: 236
    Number of basis function: 1010
    Number of Cartesian functions: 1372
    Spherical Harmonics?: true
    Max angular momentum: 5

	 --------------------------------------------------------
	                 NBF =   520, NAUX =  1010
	 --------------------------------------------------------
	   CLASS    FOCC     OCC    AOCC    AVIR     VIR    FVIR
	   PAIRS       0       5       5     515     515       0
	 --------------------------------------------------------

	-----------------------------------------------------------
	 ==================> DF-MP2 Energies <==================== 
	-----------------------------------------------------------
	 Reference Energy          =     -76.0656012530024555 [Eh]
	 Singles Energy            =      -0.0000000000000000 [Eh]
	 Same-Spin Energy          =      -0.0727549940166189 [Eh]
	 Opposite-Spin Energy      =      -0.2444128517589625 [Eh]
	 Correlation Energy        =      -0.3171678457755814 [Eh]
	 Total Energy              =     -76.3827690987780414 [Eh]
	-----------------------------------------------------------
	 ================> DF-SCS-MP2 Energies <================== 
	-----------------------------------------------------------
	 SCS Same-Spin Scale       =       0.3333333333333333 [-]
	 SCS Opposite-Spin Scale   =       1.2000000000000000 [-]
	 SCS Same-Spin Energy      =      -0.0242516646722063 [Eh]
	 SCS Opposite-Spin Energy  =      -0.2932954221107550 [Eh]
	 SCS Correlation Energy    =      -0.3175470867829613 [Eh]
	 SCS Total Energy          =     -76.3831483397854214 [Eh]
	-----------------------------------------------------------


*** tstop() called on node47.bme.utexas.edu at Thu Apr 23 18:29:04 2020
Module time:
	user time   =      25.52 seconds =       0.43 minutes
	system time =       0.63 seconds =       0.01 minutes
	total time  =          5 seconds =       0.08 minutes
Total time:
	user time   =     137.33 seconds =       2.29 minutes
	system time =       3.66 seconds =       0.06 minutes
	total time  =         23 seconds =       0.38 minutes

  //>>>>>>>>>>>>>>>>>>>>>>>>>>>>>>>>>>>//
  //  CBS Results: mp2/aug-cc-pv[tq]z  //
  //<<<<<<<<<<<<<<<<<<<<<<<<<<<<<<<<<<<//


   ==> HF <==

   HI-zeta (4) Energy:               -76.065601253002


   ==> Helgaker 2-point correlated extrapolation for method: MP2 <==

   LO-zeta (3) Energy:               -76.344257500758
   HI-zeta (4) Energy:               -76.382769098778
   Alpha (exponent) Value:             3.000000000000
   Extrapolated Energy:              -76.410872156793

   @Extrapolated MP2/(T,Q):          -76.410872156793



   ==> Helgaker 2-point correlated extrapolation for method: HF <==

   LO-zeta (3) Energy:               -76.060238678872
   HI-zeta (4) Energy:               -76.065601253002
   Alpha (exponent) Value:             3.000000000000
   Extrapolated Energy:              -76.069514482773

   @Extrapolated HF/(T,Q):           -76.069514482773


   ==> Components <==

  ---------------------------------------------------------------------------------------------------------
                          Method / Basis                      Rqd      Energy [Eh]   Variable
  ---------------------------------------------------------------------------------------------------------
                              hf / aug-cc-pvtz                  *     -76.06023868   HF TOTAL ENERGY
                             mp2 / aug-cc-pvtz                  *     -76.34425750   MP2 TOTAL ENERGY
                              hf / aug-cc-pvqz                  *     -76.06560125   HF TOTAL ENERGY
                             mp2 / aug-cc-pvqz                  *     -76.38276910   MP2 TOTAL ENERGY
  ---------------------------------------------------------------------------------------------------------

   ==> Stages <==

  ---------------------------------------------------------------------------------------------------------
      Stage               Method / Basis                       Wt      Energy [Eh]   Scheme
  ---------------------------------------------------------------------------------------------------------
        scf                   hf / aug-cc-pvqz                  1     -76.06560125   xtpl_highest_1
       corl                  mp2 / aug-cc-pv[tq]z               1     -76.41087216   corl_xtpl_helgaker_2
       corl                   hf / aug-cc-pv[tq]z              -1     -76.06951448   corl_xtpl_helgaker_2
  ---------------------------------------------------------------------------------------------------------

   ==> CBS <==

  ---------------------------------------------------------------------------------------------------------
      Stage               Method / Basis                               Energy [Eh]   Scheme
  ---------------------------------------------------------------------------------------------------------
        scf                   hf / aug-cc-pvqz                        -76.06560125   xtpl_highest_1
       corl                  mp2 / aug-cc-pv[tq]z                      -0.34135767   corl_xtpl_helgaker_2
      total                  CBS                                      -76.40695893   
  ---------------------------------------------------------------------------------------------------------
   => Loading Basis Set <=

    Name: DEF2-SVP
    Role: ORBITAL
    Keyword: BASIS
    atoms 1        entry C          line    90 file /home/liuchw/anaconda3/envs/psi4env/share/psi4/basis/def2-svp.gbs 
    atoms 2        entry S          line   328 file /home/liuchw/anaconda3/envs/psi4env/share/psi4/basis/def2-svp.gbs 
    atoms 3-6, 8-9 entry H          line    15 file /home/liuchw/anaconda3/envs/psi4env/share/psi4/basis/def2-svp.gbs 
    atoms 7        entry O          line   130 file /home/liuchw/anaconda3/envs/psi4env/share/psi4/basis/def2-svp.gbs 


       N-Body: Complex Energy (fragments = (2,), basis = (1, 2):   -76.40695892702203)

       N-Body: Computing complex (3/4) with fragments (1,) in the basis of fragments (1, 2).


Scratch directory: /scratch/liuchw/

  //>>>>>>>>>>>>>>>>>>>>>>>>>>>>>>>>>>>//
  //   CBS Setup: mp2/aug-cc-pv[tq]z   //
  //<<<<<<<<<<<<<<<<<<<<<<<<<<<<<<<<<<<//

    Naive listing of computations required.
             hf / aug-cc-pvqz              for  HF TOTAL ENERGY
            mp2 / aug-cc-pvtz              for  MP2 TOTAL ENERGY
            mp2 / aug-cc-pvqz              for  MP2 TOTAL ENERGY
             hf / aug-cc-pvtz              for  HF TOTAL ENERGY
             hf / aug-cc-pvqz              for  HF TOTAL ENERGY

    Enlightened listing of computations required.
            mp2 / aug-cc-pvtz              for  MP2 TOTAL ENERGY
            mp2 / aug-cc-pvqz              for  MP2 TOTAL ENERGY

    Full listing of computations to be obtained (required and bonus).
             hf / aug-cc-pvtz              for  HF TOTAL ENERGY
            mp2 / aug-cc-pvtz              for  MP2 TOTAL ENERGY
             hf / aug-cc-pvqz              for  HF TOTAL ENERGY
            mp2 / aug-cc-pvqz              for  MP2 TOTAL ENERGY

  //>>>>>>>>>>>>>>>>>>>>>>>>>>>>>>>>>>>>//
  // CBS Computation: MP2 / AUG-CC-PVTZ //
  //<<<<<<<<<<<<<<<<<<<<<<<<<<<<<<<<<<<<//


Scratch directory: /scratch/liuchw/

*** tstart() called on node47.bme.utexas.edu
*** at Thu Apr 23 18:29:04 2020

   => Loading Basis Set <=

    Name: AUG-CC-PVTZ
    Role: ORBITAL
    Keyword: BASIS
    atoms 1        entry C          line   239 file /home/liuchw/anaconda3/envs/psi4env/share/psi4/basis/aug-cc-pvtz.gbs 
    atoms 2        entry S          line   906 file /home/liuchw/anaconda3/envs/psi4env/share/psi4/basis/aug-cc-pvtz.gbs 
    atoms 3-6, 8-9 entry H          line    40 file /home/liuchw/anaconda3/envs/psi4env/share/psi4/basis/aug-cc-pvtz.gbs 
    atoms 7        entry O          line   331 file /home/liuchw/anaconda3/envs/psi4env/share/psi4/basis/aug-cc-pvtz.gbs 


         ---------------------------------------------------------
                                   SCF
               by Justin Turney, Rob Parrish, Andy Simmonett
[...]
      67A      0.401428    68A      0.409538    69A      0.413676  
      70A      0.432105    71A      0.464565    72A      0.480827  
      73A      0.495682    74A      0.511002    75A      0.525314  
      76A      0.534376    77A      0.543310    78A      0.549893  
      79A      0.566913    80A      0.578097    81A      0.585185  
      82A      0.591633    83A      0.602270    84A      0.605996  
      85A      0.617333    86A      0.627197    87A      0.633292  
      88A      0.648372    89A      0.656912    90A      0.663387  
      91A      0.669586    92A      0.671545    93A      0.685801  
      94A      0.691710    95A      0.697369    96A      0.703105  
      97A      0.707755    98A      0.707995    99A      0.716155  
     100A      0.725198   101A      0.732643   102A      0.744444  
     103A      0.750943   104A      0.756031   105A      0.760768  
     106A      0.769714   107A      0.784163   108A      0.792021  
     109A      0.803353   110A      0.812108   111A      0.820246  
     112A      0.827865   113A      0.833131   114A      0.844394  
     115A      0.853628   116A      0.862713   117A      0.867872  
     118A      0.883658   119A      0.889432   120A      0.903488  
     121A      0.914416   122A      0.938529   123A      0.941733  
     124A      0.956377   125A      0.960481   126A      0.975861  
     127A      0.996450   128A      1.002840   129A      1.008119  
     130A      1.021302   131A      1.035530   132A      1.042330  
     133A      1.056695   134A      1.070996   135A      1.104753  
     136A      1.108836   137A      1.119379   138A      1.132383  
     139A      1.155055   140A      1.178809   141A      1.188115  
     142A      1.193912   143A      1.217126   144A      1.220670  
     145A      1.225922   146A      1.242552   147A      1.249972  
     148A      1.262408   149A      1.269553   150A      1.312950  
     151A      1.334985   152A      1.356176   153A      1.392936  
     154A      1.406954   155A      1.418885   156A      1.447467  
     157A      1.464850   158A      1.478653   159A      1.493714  
     160A      1.502627   161A      1.517346   162A      1.525120  
     163A      1.542426   164A      1.545116   165A      1.549428  
     166A      1.564654   167A      1.572753   168A      1.586978  
     169A      1.602933   170A      1.623118   171A      1.634717  
     172A      1.641204   173A      1.649521   174A      1.663114  
     175A      1.670965   176A      1.677985   177A      1.680905  
     178A      1.692996   179A      1.712660   180A      1.718127  
     181A      1.725077   182A      1.734269   183A      1.740801  
     184A      1.748239   185A      1.760545   186A      1.769219  
     187A      1.771804   188A      1.786555   189A      1.803477  
     190A      1.808194   191A      1.821582   192A      1.826611  
     193A      1.834742   194A      1.844976   195A      1.858276  
     196A      1.868193   197A      1.874135   198A      1.889019  
     199A      1.894609   200A      1.898046   201A      1.919378  
     202A      1.925558   203A      1.935042   204A      1.946802  
     205A      1.952427   206A      1.965844   207A      1.986965  
     208A      1.994231   209A      2.010190   210A      2.016958  
     211A      2.033374   212A      2.037576   213A      2.042344  
     214A      2.052690   215A      2.057021   216A      2.074008  
     217A      2.076142   218A      2.085836   219A      2.104813  
     220A      2.117002   221A      2.125167   222A      2.147778  
     223A      2.157786   224A      2.166774   225A      2.178940  
     226A      2.185023   227A      2.212835   228A      2.222800  
     229A      2.238478   230A      2.254898   231A      2.258839  
     232A      2.279028   233A      2.282813   234A      2.293904  
     235A      2.309435   236A      2.327600   237A      2.348231  
     238A      2.353868   239A      2.363050   240A      2.374230  
     241A      2.400221   242A      2.410262   243A      2.418243  
     244A      2.449753   245A      2.450977   246A      2.492688  
     247A      2.520220   248A      2.549150   249A      2.574592  
     250A      2.596332   251A      2.632602   252A      2.650427  
     253A      2.680016   254A      2.694698   255A      2.713963  
     256A      2.751480   257A      2.774494   258A      2.800825  
     259A      2.817937   260A      2.850669   261A      2.860627  
     262A      2.877148   263A      2.884396   264A      2.936440  
     265A      2.942768   266A      3.001449   267A      3.005777  
     268A      3.022028   269A      3.039215   270A      3.050064  
     271A      3.068751   272A      3.084795   273A      3.092212  
     274A      3.098621   275A      3.116958   276A      3.134906  
     277A      3.154478   278A      3.159831   279A      3.194889  
     280A      3.217394   281A      3.233322   282A      3.263426  
     283A      3.269666   284A      3.310053   285A      3.317344  
     286A      3.329854   287A      3.349450   288A      3.413259  
     289A      3.436837   290A      3.511384   291A      3.537313  
     292A      3.548074   293A      3.594433   294A      3.611135  
     295A      3.649236   296A      3.664533   297A      3.673847  
     298A      3.699567   299A      3.734954   300A      3.748274  
     301A      3.759171   302A      3.770426   303A      3.784728  
     304A      3.791979   305A      3.821541   306A      3.827295  
     307A      3.841520   308A      3.853386   309A      3.872897  
     310A      3.908014   311A      3.938570   312A      3.954350  
     313A      3.974810   314A      4.009138   315A      4.029283  
     316A      4.037564   317A      4.061205   318A      4.082897  
     319A      4.092539   320A      4.138705   321A      4.148281  
     322A      4.154313   323A      4.172155   324A      4.179667  
     325A      4.184107   326A      4.190125   327A      4.201012  
     328A      4.211407   329A      4.227764   330A      4.259808  
     331A      4.277819   332A      4.284123   333A      4.298661  
     334A      4.340494   335A      4.379363   336A      4.403666  
     337A      4.419534   338A      4.507055   339A      4.522052  
     340A      4.535084   341A      4.546301   342A      4.564133  
     343A      4.585177   344A      4.620580   345A      4.692327  
     346A      4.714248   347A      4.758935   348A      4.779019  
     349A      4.789180   350A      4.820876   351A      4.827404  
     352A      4.831875   353A      4.850377   354A      4.882232  
     355A      4.910111   356A      4.932485   357A      4.987317  
     358A      5.002877   359A      5.066038   360A      5.077632  
     361A      5.150614   362A      5.246751   363A      5.373716  
     364A      5.390991   365A      5.549950   366A      5.588023  
     367A      5.898475   368A      5.907146   369A      6.121225  
     370A      6.140184   371A      6.163637   372A      6.235731  
     373A      6.271349   374A      6.322220   375A      6.343451  
     376A      6.390130   377A      6.407746   378A      6.443957  
     379A      6.598439   380A      6.624896   381A      6.729901  
     382A      6.745481   383A      6.751046   384A      6.760757  
     385A      6.781646   386A      6.803277   387A      6.864479  
     388A      6.866180   389A      6.908998   390A      6.927392  
     391A      6.939858   392A      6.962353   393A      6.994487  
     394A      6.997790   395A      7.009025   396A      7.078600  
     397A      7.095970   398A      7.136478   399A      7.147965  
     400A      7.186145   401A      7.229340   402A      7.241102  
     403A      7.323886   404A      7.341818   405A      7.484081  
     406A      7.568844   407A      7.575269   408A      7.634045  
     409A      7.681688   410A      7.695573   411A      7.743189  
     412A      7.757409   413A      7.773852   414A      7.779672  
     415A      7.789318   416A      7.807550   417A      7.816510  
     418A      7.845685   419A      7.856886   420A      7.918052  
     421A      7.923755   422A      7.959523   423A      7.976549  
     424A      8.017671   425A      8.061437   426A      8.210173  
     427A      8.256296   428A      8.305752   429A      8.315185  
     430A      8.343032   431A      8.409220   432A      8.420334  
     433A      8.456532   434A      8.525991   435A      8.603151  
     436A      8.649028   437A      8.660728   438A      8.688777  
     439A      8.701830   440A      8.720732   441A      8.726756  
     442A      8.755641   443A      8.842411   444A      8.847011  
     445A      8.862715   446A      8.887371   447A      8.939712  
     448A      8.989369   449A      9.008598   450A      9.043692  
     451A      9.072868   452A      9.081800   453A      9.214981  
     454A      9.227503   455A      9.252678   456A      9.258837  
     457A      9.274234   458A      9.380164   459A      9.438038  
     460A      9.475098   461A      9.542546   462A      9.574459  
     463A      9.587937   464A      9.646554   465A      9.705010  
     466A      9.755225   467A      9.778227   468A      9.875011  
     469A      9.946271   470A      9.958510   471A      9.979398  
     472A     10.006689   473A     10.035349   474A     10.066921  
     475A     10.164519   476A     10.204482   477A     10.358382  
     478A     10.389910   479A     10.417888   480A     10.460047  
     481A     10.507913   482A     10.810314   483A     10.821397  
     484A     10.845044   485A     10.931396   486A     11.030632  
     487A     11.045850   488A     11.061426   489A     11.109301  
     490A     11.132766   491A     11.161213   492A     11.291468  
     493A     11.323839   494A     11.450149   495A     11.495872  
     496A     11.738562   497A     11.843895   498A     11.864495  
     499A     12.021858   500A     12.220977   501A     12.226542  
     502A     12.665674   503A     12.760160   504A     12.832831  
     505A     12.915059   506A     13.202115   507A     13.235598  
     508A     13.246202   509A     13.354177   510A     13.994853  
     511A     14.072616   512A     14.499890   513A     14.803183  
     514A     14.908927   515A     15.268945   516A     16.916603  
     517A     17.332506   518A     22.126188   519A     28.620204  
     520A     45.607251  

    Final Occupation by Irrep:
              A 
    DOCC [    18 ]

  @DF-RHF Final Energy:  -513.83260228475808

   => Energetics <=

    Nuclear Repulsion Energy =             98.4925537054883193
    One-Electron Energy =                -904.1182724454183699
    Two-Electron Energy =                 291.7931164551720258
    Total Energy =                       -513.8326022847580816

Computation Completed


Properties will be evaluated at   0.000000,   0.000000,   0.000000 [a0]

Properties computed using the SCF density matrix

  Nuclear Dipole Moment: [e a0]
     X:     1.0644      Y:    -0.9131      Z:     2.9968

  Electronic Dipole Moment: [e a0]
     X:    -1.1278      Y:     1.0467      Z:    -3.0557

  Dipole Moment: [e a0]
     X:    -0.0634      Y:     0.1336      Z:    -0.0589     Total:     0.1592

  Dipole Moment: [D]
     X:    -0.1611      Y:     0.3396      Z:    -0.1497     Total:     0.4046


*** tstop() called on node47.bme.utexas.edu at Thu Apr 23 18:29:51 2020
Module time:
	user time   =      67.57 seconds =       1.13 minutes
	system time =       1.59 seconds =       0.03 minutes
	total time  =         10 seconds =       0.17 minutes
Total time:
	user time   =     428.50 seconds =       7.14 minutes
	system time =      11.40 seconds =       0.19 minutes
	total time  =         70 seconds =       1.17 minutes

*** tstart() called on node47.bme.utexas.edu
*** at Thu Apr 23 18:29:51 2020


  //>>>>>>>>>>>>>>>>>>>>>>>>>>>>>>>>>>>//
  //               DFMP2               //
  //<<<<<<<<<<<<<<<<<<<<<<<<<<<<<<<<<<<//

   => Loading Basis Set <=

    Name: (AUG-CC-PVQZ AUX)
    Role: RIFIT
    Keyword: DF_BASIS_MP2
    atoms 1        entry C          line   184 file /home/liuchw/anaconda3/envs/psi4env/share/psi4/basis/aug-cc-pvqz-ri.gbs 
    atoms 2        entry S          line   824 file /home/liuchw/anaconda3/envs/psi4env/share/psi4/basis/aug-cc-pvqz-ri.gbs 
    atoms 3-6, 8-9 entry H          line    30 file /home/liuchw/anaconda3/envs/psi4env/share/psi4/basis/aug-cc-pvqz-ri.gbs 
    atoms 7        entry O          line   332 file /home/liuchw/anaconda3/envs/psi4env/share/psi4/basis/aug-cc-pvqz-ri.gbs 

	 --------------------------------------------------------
	                          DF-MP2                         
	      2nd-Order Density-Fitted Moller-Plesset Theory     
	              RMP2 Wavefunction,   8 Threads             
	                                                         
	        Rob Parrish, Justin Turney, Andy Simmonett,      
	           Ed Hohenstein, and C. David Sherrill          
	 --------------------------------------------------------

   => Auxiliary Basis Set <=

  Basis Set: (AUG-CC-PVQZ AUX)
    Blend: AUG-CC-PVQZ-RI
    Number of shells: 236
    Number of basis function: 1010
    Number of Cartesian functions: 1372
    Spherical Harmonics?: true
    Max angular momentum: 5

	 --------------------------------------------------------
	                 NBF =   520, NAUX =  1010
	 --------------------------------------------------------
	   CLASS    FOCC     OCC    AOCC    AVIR     VIR    FVIR
	   PAIRS       0      18      18     502     502       0
	 --------------------------------------------------------

	-----------------------------------------------------------
	 ==================> DF-MP2 Energies <==================== 
	-----------------------------------------------------------
	 Reference Energy          =    -513.8326022847580816 [Eh]
	 Singles Energy            =      -0.0000000000000000 [Eh]
	 Same-Spin Energy          =      -0.1766408384896001 [Eh]
	 Opposite-Spin Energy      =      -0.6243657698259730 [Eh]
	 Correlation Energy        =      -0.8010066083155731 [Eh]
	 Total Energy              =    -514.6336088930736423 [Eh]
	-----------------------------------------------------------
	 ================> DF-SCS-MP2 Energies <================== 
	-----------------------------------------------------------
	 SCS Same-Spin Scale       =       0.3333333333333333 [-]
	 SCS Opposite-Spin Scale   =       1.2000000000000000 [-]
	 SCS Same-Spin Energy      =      -0.0588802794965334 [Eh]
	 SCS Opposite-Spin Energy  =      -0.7492389237911676 [Eh]
	 SCS Correlation Energy    =      -0.8081192032877010 [Eh]
	 SCS Total Energy          =    -514.6407214880457559 [Eh]
	-----------------------------------------------------------


*** tstop() called on node47.bme.utexas.edu at Thu Apr 23 18:29:57 2020
Module time:
	user time   =      32.47 seconds =       0.54 minutes
	system time =       0.87 seconds =       0.01 minutes
	total time  =          6 seconds =       0.10 minutes
Total time:
	user time   =     460.97 seconds =       7.68 minutes
	system time =      12.27 seconds =       0.20 minutes
	total time  =         76 seconds =       1.27 minutes

  //>>>>>>>>>>>>>>>>>>>>>>>>>>>>>>>>>>>//
  //  CBS Results: mp2/aug-cc-pv[tq]z  //
  //<<<<<<<<<<<<<<<<<<<<<<<<<<<<<<<<<<<//


   ==> HF <==

   HI-zeta (4) Energy:               -513.832602284758


   ==> Helgaker 2-point correlated extrapolation for method: MP2 <==

   LO-zeta (3) Energy:               -514.534556020824
   HI-zeta (4) Energy:               -514.633608893074
   Alpha (exponent) Value:             3.000000000000
   Extrapolated Energy:              -514.705890718769

   @Extrapolated MP2/(T,Q):          -514.705890718769



   ==> Helgaker 2-point correlated extrapolation for method: HF <==

   LO-zeta (3) Energy:               -513.820629542861
   HI-zeta (4) Energy:               -513.832602284758
   Alpha (exponent) Value:             3.000000000000
   Extrapolated Energy:              -513.841339150467

   @Extrapolated HF/(T,Q):           -513.841339150467


   ==> Components <==

  ---------------------------------------------------------------------------------------------------------
                          Method / Basis                      Rqd      Energy [Eh]   Variable
  ---------------------------------------------------------------------------------------------------------
                              hf / aug-cc-pvtz                  *    -513.82062954   HF TOTAL ENERGY
                             mp2 / aug-cc-pvtz                  *    -514.53455602   MP2 TOTAL ENERGY
                              hf / aug-cc-pvqz                  *    -513.83260228   HF TOTAL ENERGY
                             mp2 / aug-cc-pvqz                  *    -514.63360889   MP2 TOTAL ENERGY
  ---------------------------------------------------------------------------------------------------------

   ==> Stages <==

  ---------------------------------------------------------------------------------------------------------
      Stage               Method / Basis                       Wt      Energy [Eh]   Scheme
  ---------------------------------------------------------------------------------------------------------
        scf                   hf / aug-cc-pvqz                  1    -513.83260228   xtpl_highest_1
       corl                  mp2 / aug-cc-pv[tq]z               1    -514.70589072   corl_xtpl_helgaker_2
       corl                   hf / aug-cc-pv[tq]z              -1    -513.84133915   corl_xtpl_helgaker_2
  ---------------------------------------------------------------------------------------------------------

   ==> CBS <==

  ---------------------------------------------------------------------------------------------------------
      Stage               Method / Basis                               Energy [Eh]   Scheme
  ---------------------------------------------------------------------------------------------------------
        scf                   hf / aug-cc-pvqz                       -513.83260228   xtpl_highest_1
       corl                  mp2 / aug-cc-pv[tq]z                      -0.86455157   corl_xtpl_helgaker_2
      total                  CBS                                     -514.69715385   
  ---------------------------------------------------------------------------------------------------------
   => Loading Basis Set <=

    Name: DEF2-SVP
    Role: ORBITAL
    Keyword: BASIS
    atoms 1        entry C          line    90 file /home/liuchw/anaconda3/envs/psi4env/share/psi4/basis/def2-svp.gbs 
    atoms 2        entry S          line   328 file /home/liuchw/anaconda3/envs/psi4env/share/psi4/basis/def2-svp.gbs 
    atoms 3-6, 8-9 entry H          line    15 file /home/liuchw/anaconda3/envs/psi4env/share/psi4/basis/def2-svp.gbs 
    atoms 7        entry O          line   130 file /home/liuchw/anaconda3/envs/psi4env/share/psi4/basis/def2-svp.gbs 


       N-Body: Complex Energy (fragments = (1, 2), basis = (1, 2):  -514.69715385306074)

   ==> N-Body: Counterpoise Corrected (CP) energies <==

   n-Body     Total Energy [Eh]       I.E. [kcal/mol]      Delta [kcal/mol]
        1     -514.693668388114        0.000000000000        0.000000000000
        2     -514.697288705520       -2.271783470055       -2.271783470055

   => Loading Basis Set <=

    Name: DEF2-SVP
    Role: ORBITAL
    Keyword: BASIS
    atoms 1        entry C          line    90 file /home/liuchw/anaconda3/envs/psi4env/share/psi4/basis/def2-svp.gbs 
    atoms 2        entry S          line   328 file /home/liuchw/anaconda3/envs/psi4env/share/psi4/basis/def2-svp.gbs 
    atoms 3-6, 8-9 entry H          line    15 file /home/liuchw/anaconda3/envs/psi4env/share/psi4/basis/def2-svp.gbs 
    atoms 7        entry O          line   130 file /home/liuchw/anaconda3/envs/psi4env/share/psi4/basis/def2-svp.gbs 


    Psi4 stopped on: Thursday, 23 April 2020 06:29PM
    Psi4 wall time for execution: 0:01:16.31

*** Psi4 exiting successfully. Buy a developer a beer!
