
    -----------------------------------------------------------------------
          Psi4: An Open-Source Ab Initio Electronic Structure Package
                               Psi4 1.4a2.dev224 

                         Git: Rev {master} e453b16 


    R. M. Parrish, L. A. Burns, D. G. A. Smith, A. C. Simmonett,
    A. E. DePrince III, E. G. Hohenstein, U. Bozkaya, A. Yu. Sokolov,
    R. Di Remigio, R. M. Richard, J. F. Gonthier, A. M. James,
    H. R. McAlexander, A. Kumar, M. Saitow, X. Wang, B. P. Pritchard,
    P. Verma, H. F. Schaefer III, K. Patkowski, R. A. King, E. F. Valeev,
    F. A. Evangelista, J. M. Turney, T. D. Crawford, and C. D. Sherrill,
    J. Chem. Theory Comput. 13(7) pp 3185--3197 (2017).
    (doi: 10.1021/acs.jctc.7b00174)


                         Additional Contributions by
    P. Kraus, H. Kruse, M. H. Lechner, M. C. Schieber, R. A. Shaw,
    A. Alenaizan, R. Galvelis, Z. L. Glick, S. Lehtola, and J. P. Misiewicz

    -----------------------------------------------------------------------


    Psi4 started on: Saturday, 11 April 2020 04:17PM

    Process ID: 53841
    Host:       node59.bme.utexas.edu
    PSIDATADIR: /home/liuchw/anaconda3/envs/psi4env/share/psi4
    Memory:     500.0 MiB
    Threads:    6
    
  ==> Input File <==

--------------------------------------------------------------------------
#Generated by lconvert.py for cbs job

memory 40 GB

molecule  {
0 1
  C       -3.1102080     1.1449770    -0.6207280
  S       -2.7077030    -0.5833580    -0.2389590
  H       -1.3794220    -0.4245930    -0.2399370
  H       -2.7047400     1.4387070    -1.5836870
  H       -2.7481340     1.8125740     0.1546350
  H       -4.1938590     1.2103140    -0.6618300
--
0 1
  O        0.1633580     0.0412810    -0.3016040
  H        0.7574850    -0.2496130    -0.9966680
  H        0.7206490     0.0677320     0.4790660
units angstrom
no_reorient
symmetry c1
}

set {
scf_type DF
mp2_type DF
e_convergence 7
reference rhf
}

energy('mp2/aug-cc-pv[tq]z', bsse_type='cp')
--------------------------------------------------------------------------

  Memory set to  37.253 GiB by Python driver.

Scratch directory: /scratch//


   ===> N-Body Interaction Abacus <===
        BSSE Treatment:                     cp
        Number of 1-body computations:     4
        Number of 2-body computations:     1

   ==> N-Body: Now computing 1-body complexes <==


       N-Body: Computing complex (1/4) with fragments (2,) in the basis of fragments (2,).


Scratch directory: /scratch//

  //>>>>>>>>>>>>>>>>>>>>>>>>>>>>>>>>>>>//
  //   CBS Setup: mp2/aug-cc-pv[tq]z   //
  //<<<<<<<<<<<<<<<<<<<<<<<<<<<<<<<<<<<//

    Naive listing of computations required.
             hf / aug-cc-pvqz              for  HF TOTAL ENERGY
            mp2 / aug-cc-pvtz              for  MP2 TOTAL ENERGY
            mp2 / aug-cc-pvqz              for  MP2 TOTAL ENERGY
             hf / aug-cc-pvtz              for  HF TOTAL ENERGY
             hf / aug-cc-pvqz              for  HF TOTAL ENERGY

    Enlightened listing of computations required.
            mp2 / aug-cc-pvtz              for  MP2 TOTAL ENERGY
            mp2 / aug-cc-pvqz              for  MP2 TOTAL ENERGY

    Full listing of computations to be obtained (required and bonus).
             hf / aug-cc-pvtz              for  HF TOTAL ENERGY
            mp2 / aug-cc-pvtz              for  MP2 TOTAL ENERGY
             hf / aug-cc-pvqz              for  HF TOTAL ENERGY
            mp2 / aug-cc-pvqz              for  MP2 TOTAL ENERGY

  //>>>>>>>>>>>>>>>>>>>>>>>>>>>>>>>>>>>>//
  // CBS Computation: MP2 / AUG-CC-PVTZ //
  //<<<<<<<<<<<<<<<<<<<<<<<<<<<<<<<<<<<<//


Scratch directory: /scratch//

*** tstart() called on node59.bme.utexas.edu
*** at Sat Apr 11 16:17:40 2020

   => Loading Basis Set <=

    Name: AUG-CC-PVTZ
    Role: ORBITAL
    Keyword: BASIS
    atoms 1   entry O          line   331 file /home/liuchw/anaconda3/envs/psi4env/share/psi4/basis/aug-cc-pvtz.gbs 
    atoms 2-3 entry H          line    40 file /home/liuchw/anaconda3/envs/psi4env/share/psi4/basis/aug-cc-pvtz.gbs 


         ---------------------------------------------------------
                                   SCF
               by Justin Turney, Rob Parrish, Andy Simmonett
                          and Daniel G. A. Smith
                              RHF Reference
                        6 Threads,  38146 MiB Core
         ---------------------------------------------------------

  ==> Geometry <==

    Molecular point group: c1
    Full point group: C1

    Geometry (in Angstrom), charge = 0, multiplicity = 1:

       Center              X                  Y                   Z               Mass       
    ------------   -----------------  -----------------  -----------------  -----------------
         O            2.146321209009     0.046823253680     0.043529039411    15.994914619570
         H            2.740448209009    -0.244070746320    -0.651534960589     1.007825032230
         H            2.703612209009     0.073274253680     0.824199039411     1.007825032230

  Running in c1 symmetry.

  Rotational constants: A =     14.21865  B =      0.19002  C =      0.18767 [cm^-1]
  Rotational constants: A = 426264.40916  B =   5696.74517  C =   5626.21610 [MHz]
  Nuclear repulsion =    9.174304243509273

  Charge       = 0
  Multiplicity = 1
  Electrons    = 10
  Nalpha       = 5
  Nbeta        = 5

  ==> Algorithm <==

  SCF Algorithm Type is DF.
  DIIS enabled.
  MOM disabled.
  Fractional occupation disabled.
  Guess Type is SAD.
  Energy threshold   = 1.00e-07
  Density threshold  = 1.00e-08
  Integral threshold = 0.00e+00

  ==> Primary Basis <==

  Basis Set: AUG-CC-PVTZ
    Blend: AUG-CC-PVTZ
    Number of shells: 32
    Number of basis function: 92
    Number of Cartesian functions: 105
    Spherical Harmonics?: true
    Max angular momentum: 3

   => Loading Basis Set <=

    Name: (AUG-CC-PVTZ AUX)
    Role: JKFIT
    Keyword: DF_BASIS_SCF
    atoms 1   entry O          line   286 file /home/liuchw/anaconda3/envs/psi4env/share/psi4/basis/aug-cc-pvtz-jkfit.gbs 
    atoms 2-3 entry H          line    70 file /home/liuchw/anaconda3/envs/psi4env/share/psi4/basis/aug-cc-pvtz-jkfit.gbs 

  ==> Pre-Iterations <==

   -------------------------------------------------------
    Irrep   Nso     Nmo     Nalpha   Nbeta   Ndocc  Nsocc
   -------------------------------------------------------
     A         92      92       0       0       0       0
   -------------------------------------------------------
    Total      92      92       5       5       5       0
   -------------------------------------------------------

  ==> Integral Setup <==

  DFHelper Memory: AOs need 0.015 GiB; user supplied 27.940 GiB. Using in-core AOs.

  ==> MemDFJK: Density-Fitted J/K Matrices <==

    J tasked:                   Yes
    K tasked:                   Yes
    wK tasked:                   No
    OpenMP threads:               6
    Memory [MiB]:             28610
    Algorithm:                 Core
    Schwarz Cutoff:           1E-12
    Mask sparsity (%):       0.0000
    Fitting Condition:        1E-10

   => Auxiliary Basis Set <=

  Basis Set: (AUG-CC-PVTZ AUX)
    Blend: AUG-CC-PVTZ-JKFIT
    Number of shells: 58
    Number of basis function: 196
    Number of Cartesian functions: 241
    Spherical Harmonics?: true
    Max angular momentum: 4

  Minimum eigenvalue in the overlap matrix is 3.8778883918E-04.
  Using Symmetric Orthogonalization.

  SCF Guess: Superposition of Atomic Densities via on-the-fly atomic UHF.

  ==> Iterations <==

                           Total Energy        Delta E     RMS |[F,P]|

   @DF-RHF iter SAD:   -75.47617254715921   -7.54762e+01   0.00000e+00 
   @DF-RHF iter   1:   -75.97597095982881   -4.99798e-01   5.09229e-03 DIIS
   @DF-RHF iter   2:   -76.02848235252112   -5.25114e-02   3.47326e-03 DIIS
   @DF-RHF iter   3:   -76.05996997639932   -3.14876e-02   2.35889e-04 DIIS
   @DF-RHF iter   4:   -76.06035836956809   -3.88393e-04   5.64658e-05 DIIS
   @DF-RHF iter   5:   -76.06038264590092   -2.42763e-05   1.28254e-05 DIIS
   @DF-RHF iter   6:   -76.06038463096046   -1.98506e-06   2.80479e-06 DIIS
   @DF-RHF iter   7:   -76.06038473531753   -1.04357e-07   5.03719e-07 DIIS
   @DF-RHF iter   8:   -76.06038473827650   -2.95897e-09   8.43990e-08 DIIS
   @DF-RHF iter   9:   -76.06038473834120   -6.47020e-11   2.06325e-08 DIIS
   @DF-RHF iter  10:   -76.06038473834498   -3.78009e-12   3.04924e-09 DIIS
  Energy and wave function converged.


  ==> Post-Iterations <==

    Orbital Energies [Eh]
    ---------------------

    Doubly Occupied:                                                      

       1A    -20.567928     2A     -1.352952     3A     -0.715144  
       4A     -0.585957     5A     -0.510388  

    Virtual:                                                              

       6A      0.029361     7A      0.047721     8A      0.135835  
       9A      0.158748    10A      0.175289    11A      0.183154  
      12A      0.227176    13A      0.245057    14A      0.265548  
      15A      0.299759    16A      0.309990    17A      0.365918  
      18A      0.437723    19A      0.466380    20A      0.599086  
      21A      0.659016    22A      0.707811    23A      0.722935  
      24A      0.731642    25A      0.831474    26A      0.846893  
      27A      0.892065    28A      0.912917    29A      0.917693  
      30A      0.922807    31A      0.931300    32A      0.960980  
      33A      1.021554    34A      1.043651    35A      1.082678  
      36A      1.108588    37A      1.177035    38A      1.182958  
      39A      1.260466    40A      1.510666    41A      1.532509  
      42A      1.582899    43A      1.805013    44A      1.824787  
      45A      1.985125    46A      2.119616    47A      2.263414  
      48A      2.316294    49A      2.326954    50A      2.418956  
      51A      2.421749    52A      2.443562    53A      2.480563  
      54A      2.675457    55A      2.697614    56A      2.773780  
      57A      2.812922    58A      2.885216    59A      3.656196  
      60A      3.740945    61A      4.021382    62A      4.084701  
      63A      4.160898    64A      4.252206    65A      4.284301  
      66A      4.371909    67A      4.378145    68A      4.407236  
      69A      4.521172    70A      4.728840    71A      4.849942  
      72A      5.152728    73A      5.155576    74A      5.249898  
      75A      5.329720    76A      5.528642    77A      5.661863  
      78A      6.184278    79A      6.514656    80A      6.715074  
      81A      6.910031    82A      7.137322    83A      7.259983  
      84A      7.301123    85A      7.320646    86A      7.338666  
      87A      7.361138    88A      7.539054    89A      7.899517  
      90A      7.933346    91A      8.816811    92A     15.760881  

    Final Occupation by Irrep:
              A 
    DOCC [     5 ]

  @DF-RHF Final Energy:   -76.06038473834498

   => Energetics <=

    Nuclear Repulsion Energy =              9.1743042435092725
    One-Electron Energy =                -123.0046415034493208
    Two-Electron Energy =                  37.7699525215950658
    Total Energy =                        -76.0603847383449931

Computation Completed


Properties will be evaluated at   0.000000,   0.000000,   0.000000 [a0]

Properties computed using the SCF density matrix

  Nuclear Dipole Moment: [e a0]
     X:    42.7355      Y:     0.3851      Z:     0.9844

  Electronic Dipole Moment: [e a0]
     X:   -41.9718      Y:    -0.5605      Z:    -0.9276

  Dipole Moment: [e a0]
     X:     0.7636      Y:    -0.1754      Z:     0.0568     Total:     0.7855

  Dipole Moment: [D]
     X:     1.9409      Y:    -0.4458      Z:     0.1443     Total:     1.9967


*** tstop() called on node59.bme.utexas.edu at Sat Apr 11 16:17:42 2020
Module time:
	user time   =       5.15 seconds =       0.09 minutes
	system time =       0.31 seconds =       0.01 minutes
	total time  =          2 seconds =       0.03 minutes
Total time:
	user time   =       5.15 seconds =       0.09 minutes
	system time =       0.31 seconds =       0.01 minutes
	total time  =          2 seconds =       0.03 minutes

*** tstart() called on node59.bme.utexas.edu
*** at Sat Apr 11 16:17:42 2020


  //>>>>>>>>>>>>>>>>>>>>>>>>>>>>>>>>>>>//
  //               DFMP2               //
  //<<<<<<<<<<<<<<<<<<<<<<<<<<<<<<<<<<<//

   => Loading Basis Set <=

    Name: (AUG-CC-PVTZ AUX)
    Role: RIFIT
    Keyword: DF_BASIS_MP2
    atoms 1   entry O          line   264 file /home/liuchw/anaconda3/envs/psi4env/share/psi4/basis/aug-cc-pvtz-ri.gbs 
    atoms 2-3 entry H          line    30 file /home/liuchw/anaconda3/envs/psi4env/share/psi4/basis/aug-cc-pvtz-ri.gbs 

	 --------------------------------------------------------
	                          DF-MP2                         
	      2nd-Order Density-Fitted Moller-Plesset Theory     
	              RMP2 Wavefunction,   6 Threads             
	                                                         
	        Rob Parrish, Justin Turney, Andy Simmonett,      
	           Ed Hohenstein, and C. David Sherrill          
	 --------------------------------------------------------

   => Auxiliary Basis Set <=

  Basis Set: (AUG-CC-PVTZ AUX)
    Blend: AUG-CC-PVTZ-RI
    Number of shells: 56
    Number of basis function: 198
    Number of Cartesian functions: 246
    Spherical Harmonics?: true
    Max angular momentum: 4

	 --------------------------------------------------------
	                 NBF =    92, NAUX =   198
	 --------------------------------------------------------
	   CLASS    FOCC     OCC    AOCC    AVIR     VIR    FVIR
	   PAIRS       0       5       5      87      87       0
	 --------------------------------------------------------

	-----------------------------------------------------------
	 ==================> DF-MP2 Energies <==================== 
	-----------------------------------------------------------
	 Reference Energy          =     -76.0603847383449789 [Eh]
	 Singles Energy            =      -0.0000000000000000 [Eh]
	 Same-Spin Energy          =      -0.0683895942926301 [Eh]
	 Opposite-Spin Energy      =      -0.2153113291203777 [Eh]
	 Correlation Energy        =      -0.2837009234130078 [Eh]
	 Total Energy              =     -76.3440856617579868 [Eh]
	-----------------------------------------------------------
	 ================> DF-SCS-MP2 Energies <================== 
	-----------------------------------------------------------
	 SCS Same-Spin Scale       =       0.3333333333333333 [-]
	 SCS Opposite-Spin Scale   =       1.2000000000000000 [-]
	 SCS Same-Spin Energy      =      -0.0227965314308767 [Eh]
	 SCS Opposite-Spin Energy  =      -0.2583735949444532 [Eh]
	 SCS Correlation Energy    =      -0.2811701263753299 [Eh]
	 SCS Total Energy          =     -76.3415548647203082 [Eh]
	-----------------------------------------------------------


*** tstop() called on node59.bme.utexas.edu at Sat Apr 11 16:17:42 2020
Module time:
	user time   =       2.35 seconds =       0.04 minutes
	system time =       0.15 seconds =       0.00 minutes
	total time  =          0 seconds =       0.00 minutes
Total time:
	user time   =       7.50 seconds =       0.13 minutes
	system time =       0.46 seconds =       0.01 minutes
	total time  =          2 seconds =       0.03 minutes

  //>>>>>>>>>>>>>>>>>>>>>>>>>>>>>>>>>>>>//
  // CBS Computation: MP2 / AUG-CC-PVQZ //
  //<<<<<<<<<<<<<<<<<<<<<<<<<<<<<<<<<<<<//


Scratch directory: /scratch//

*** tstart() called on node59.bme.utexas.edu
*** at Sat Apr 11 16:17:42 2020

   => Loading Basis Set <=

    Name: AUG-CC-PVQZ
    Role: ORBITAL
    Keyword: BASIS
    atoms 1   entry O          line   423 file /home/liuchw/anaconda3/envs/psi4env/share/psi4/basis/aug-cc-pvqz.gbs 
    atoms 2-3 entry H          line    40 file /home/liuchw/anaconda3/envs/psi4env/share/psi4/basis/aug-cc-pvqz.gbs 


         ---------------------------------------------------------
                                   SCF
               by Justin Turney, Rob Parrish, Andy Simmonett
                          and Daniel G. A. Smith
                              RHF Reference
                        6 Threads,  38146 MiB Core
         ---------------------------------------------------------

  ==> Geometry <==

    Molecular point group: c1
    Full point group: C1

    Geometry (in Angstrom), charge = 0, multiplicity = 1:

       Center              X                  Y                   Z               Mass       
    ------------   -----------------  -----------------  -----------------  -----------------
         O            2.146321209009     0.046823253680     0.043529039411    15.994914619570
         H            2.740448209009    -0.244070746320    -0.651534960589     1.007825032230
         H            2.703612209009     0.073274253680     0.824199039411     1.007825032230

  Running in c1 symmetry.

  Rotational constants: A =     14.21865  B =      0.19002  C =      0.18767 [cm^-1]
  Rotational constants: A = 426264.40916  B =   5696.74517  C =   5626.21610 [MHz]
  Nuclear repulsion =    9.174304243509273

  Charge       = 0
  Multiplicity = 1
  Electrons    = 10
  Nalpha       = 5
  Nbeta        = 5

  ==> Algorithm <==

  SCF Algorithm Type is DF.
  DIIS enabled.
  MOM disabled.
  Fractional occupation disabled.
  Guess Type is SAD.
  Energy threshold   = 1.00e-07
  Density threshold  = 1.00e-08
  Integral threshold = 0.00e+00

  ==> Primary Basis <==

  Basis Set: AUG-CC-PVQZ
    Blend: AUG-CC-PVQZ
    Number of shells: 48
    Number of basis function: 172
    Number of Cartesian functions: 215
    Spherical Harmonics?: true
    Max angular momentum: 4

   => Loading Basis Set <=

    Name: (AUG-CC-PVQZ AUX)
    Role: JKFIT
    Keyword: DF_BASIS_SCF
    atoms 1   entry O          line   318 file /home/liuchw/anaconda3/envs/psi4env/share/psi4/basis/aug-cc-pvqz-jkfit.gbs 
    atoms 2-3 entry H          line    70 file /home/liuchw/anaconda3/envs/psi4env/share/psi4/basis/aug-cc-pvqz-jkfit.gbs 

  ==> Pre-Iterations <==

   -------------------------------------------------------
    Irrep   Nso     Nmo     Nalpha   Nbeta   Ndocc  Nsocc
   -------------------------------------------------------
     A        172     172       0       0       0       0
   -------------------------------------------------------
    Total     172     172       5       5       5       0
   -------------------------------------------------------

  ==> Integral Setup <==

  DFHelper Memory: AOs need 0.074 GiB; user supplied 27.940 GiB. Using in-core AOs.

  ==> MemDFJK: Density-Fitted J/K Matrices <==

    J tasked:                   Yes
    K tasked:                   Yes
    wK tasked:                   No
    OpenMP threads:               6
    Memory [MiB]:             28610
    Algorithm:                 Core
    Schwarz Cutoff:           1E-12
    Mask sparsity (%):       0.0000
    Fitting Condition:        1E-10

   => Auxiliary Basis Set <=

  Basis Set: (AUG-CC-PVQZ AUX)
    Blend: AUG-CC-PVQZ-JKFIT
    Number of shells: 70
    Number of basis function: 294
    Number of Cartesian functions: 400
    Spherical Harmonics?: true
    Max angular momentum: 5

  Minimum eigenvalue in the overlap matrix is 8.7165382486E-05.
  Using Symmetric Orthogonalization.

  SCF Guess: Superposition of Atomic Densities via on-the-fly atomic UHF.

  ==> Iterations <==

                           Total Energy        Delta E     RMS |[F,P]|

   @DF-RHF iter SAD:   -75.48131426294499   -7.54813e+01   0.00000e+00 
   @DF-RHF iter   1:   -75.98105073529022   -4.99736e-01   2.72962e-03 DIIS
   @DF-RHF iter   2:   -76.03366254805006   -5.26118e-02   1.86600e-03 DIIS
   @DF-RHF iter   3:   -76.06534929505970   -3.16867e-02   1.27129e-04 DIIS
   @DF-RHF iter   4:   -76.06573976802719   -3.90473e-04   3.11101e-05 DIIS
   @DF-RHF iter   5:   -76.06576493713305   -2.51691e-05   7.04216e-06 DIIS
   @DF-RHF iter   6:   -76.06576700380431   -2.06667e-06   1.58252e-06 DIIS
   @DF-RHF iter   7:   -76.06576711955402   -1.15750e-07   2.94023e-07 DIIS
   @DF-RHF iter   8:   -76.06576712306372   -3.50970e-09   4.73042e-08 DIIS
   @DF-RHF iter   9:   -76.06576712313692   -7.32001e-11   1.13012e-08 DIIS
   @DF-RHF iter  10:   -76.06576712314055   -3.62377e-12   1.70116e-09 DIIS
  Energy and wave function converged.


  ==> Post-Iterations <==

    Orbital Energies [Eh]
    ---------------------

    Doubly Occupied:                                                      

       1A    -20.565477     2A     -1.352223     3A     -0.715110  
       4A     -0.586005     5A     -0.510520  

    Virtual:                                                              

       6A      0.026881     7A      0.043114     8A      0.114080  
       9A      0.133480    10A      0.151171    11A      0.158724  
      12A      0.184961    13A      0.197109    14A      0.209398  
      15A      0.237300    16A      0.256984    17A      0.291707  
      18A      0.357810    19A      0.390149    20A      0.469740  
      21A      0.508905    22A      0.542043    23A      0.547760  
      24A      0.556310    25A      0.614446    26A      0.632343  
      27A      0.647221    28A      0.663374    29A      0.665656  
      30A      0.684624    31A      0.706485    32A      0.719335  
      33A      0.769833    34A      0.789490    35A      0.802366  
      36A      0.803017    37A      0.843108    38A      0.854016  
      39A      0.967967    40A      1.122903    41A      1.136826  
      42A      1.209276    43A      1.332421    44A      1.440805  
      45A      1.482698    46A      1.509519    47A      1.513569  
      48A      1.526324    49A      1.554052    50A      1.589833  
      51A      1.621157    52A      1.638254    53A      1.662413  
      54A      1.664231    55A      1.688487    56A      1.702824  
      57A      1.736531    58A      1.752011    59A      1.766584  
      60A      1.775971    61A      1.843793    62A      1.864584  
      63A      1.894637    64A      1.916176    65A      1.983412  
      66A      2.008025    67A      2.033811    68A      2.039550  
      69A      2.099517    70A      2.206258    71A      2.216598  
      72A      2.314202    73A      2.437276    74A      2.627592  
      75A      2.632947    76A      2.887973    77A      2.959758  
      78A      2.995388    79A      3.040977    80A      3.056415  
      81A      3.086423    82A      3.268593    83A      3.305025  
      84A      3.309862    85A      3.490191    86A      3.588476  
      87A      3.643535    88A      3.688039    89A      3.720779  
      90A      3.780348    91A      3.923233    92A      4.078568  
      93A      4.166390    94A      4.167310    95A      4.178201  
      96A      4.178806    97A      4.232443    98A      4.330067  
      99A      4.432645   100A      4.581360   101A      4.729190  
     102A      4.746081   103A      4.779876   104A      4.781396  
     105A      4.809843   106A      4.879072   107A      4.995842  
     108A      5.236768   109A      5.313889   110A      5.523987  
     111A      5.535948   112A      5.859680   113A      5.889794  
     114A      6.074559   115A      6.235917   116A      6.824954  
     117A      6.886454   118A      6.889490   119A      6.908606  
     120A      7.731600   121A      7.779941   122A      7.785392  
     123A      7.823202   124A      7.839922   125A      7.900506  
     126A      7.924948   127A      8.022453   128A      8.169784  
     129A      8.202160   130A      8.532931   131A      8.626695  
     132A      8.652626   133A      8.694628   134A      8.789668  
     135A      8.847762   136A      8.986174   137A      9.042307  
     138A      9.222341   139A      9.671103   140A      9.907740  
     141A      9.916323   142A      9.945127   143A      9.993048  
     144A     10.329211   145A     10.452450   146A     10.677247  
     147A     11.018311   148A     11.073893   149A     11.091527  
     150A     11.269428   151A     11.310881   152A     11.414285  
     153A     11.716461   154A     11.796249   155A     11.830889  
     156A     11.990344   157A     12.204136   158A     12.207476  
     159A     12.626234   160A     12.741597   161A     12.832714  
     162A     12.907937   163A     13.176242   164A     14.003277  
     165A     14.017224   166A     14.510578   167A     14.809796  
     168A     14.906775   169A     15.260217   170A     16.844095  
     171A     17.295527   172A     45.505250  

    Final Occupation by Irrep:
              A 
    DOCC [     5 ]

  @DF-RHF Final Energy:   -76.06576712314055

   => Energetics <=

    Nuclear Repulsion Energy =              9.1743042435092725
    One-Electron Energy =                -123.0214752591556362
    Two-Electron Energy =                  37.7814038925058213
    Total Energy =                        -76.0657671231405459

Computation Completed


Properties will be evaluated at   0.000000,   0.000000,   0.000000 [a0]

Properties computed using the SCF density matrix

  Nuclear Dipole Moment: [e a0]
     X:    42.7355      Y:     0.3851      Z:     0.9844

  Electronic Dipole Moment: [e a0]
     X:   -41.9727      Y:    -0.5603      Z:    -0.9276

  Dipole Moment: [e a0]
     X:     0.7628      Y:    -0.1752      Z:     0.0567     Total:     0.7847

  Dipole Moment: [D]
     X:     1.9388      Y:    -0.4453      Z:     0.1441     Total:     1.9945


*** tstop() called on node59.bme.utexas.edu at Sat Apr 11 16:17:44 2020
Module time:
	user time   =       8.34 seconds =       0.14 minutes
	system time =       0.42 seconds =       0.01 minutes
	total time  =          2 seconds =       0.03 minutes
Total time:
	user time   =      15.88 seconds =       0.26 minutes
	system time =       0.88 seconds =       0.01 minutes
	total time  =          4 seconds =       0.07 minutes

*** tstart() called on node59.bme.utexas.edu
*** at Sat Apr 11 16:17:44 2020


  //>>>>>>>>>>>>>>>>>>>>>>>>>>>>>>>>>>>//
  //               DFMP2               //
  //<<<<<<<<<<<<<<<<<<<<<<<<<<<<<<<<<<<//

   => Loading Basis Set <=

    Name: (AUG-CC-PVQZ AUX)
    Role: RIFIT
    Keyword: DF_BASIS_MP2
    atoms 1   entry O          line   332 file /home/liuchw/anaconda3/envs/psi4env/share/psi4/basis/aug-cc-pvqz-ri.gbs 
    atoms 2-3 entry H          line    30 file /home/liuchw/anaconda3/envs/psi4env/share/psi4/basis/aug-cc-pvqz-ri.gbs 

	 --------------------------------------------------------
	                          DF-MP2                         
	      2nd-Order Density-Fitted Moller-Plesset Theory     
	              RMP2 Wavefunction,   6 Threads             
	                                                         
	        Rob Parrish, Justin Turney, Andy Simmonett,      
	           Ed Hohenstein, and C. David Sherrill          
	 --------------------------------------------------------

   => Auxiliary Basis Set <=

  Basis Set: (AUG-CC-PVQZ AUX)
    Blend: AUG-CC-PVQZ-RI
    Number of shells: 76
    Number of basis function: 328
    Number of Cartesian functions: 447
    Spherical Harmonics?: true
    Max angular momentum: 5

	 --------------------------------------------------------
	                 NBF =   172, NAUX =   328
	 --------------------------------------------------------
	   CLASS    FOCC     OCC    AOCC    AVIR     VIR    FVIR
	   PAIRS       0       5       5     167     167       0
	 --------------------------------------------------------

	-----------------------------------------------------------
	 ==================> DF-MP2 Energies <==================== 
	-----------------------------------------------------------
	 Reference Energy          =     -76.0657671231405459 [Eh]
	 Singles Energy            =      -0.0000000000000000 [Eh]
	 Same-Spin Energy          =      -0.0727172105334216 [Eh]
	 Opposite-Spin Energy      =      -0.2442495921173206 [Eh]
	 Correlation Energy        =      -0.3169668026507422 [Eh]
	 Total Energy              =     -76.3827339257912854 [Eh]
	-----------------------------------------------------------
	 ================> DF-SCS-MP2 Energies <================== 
	-----------------------------------------------------------
	 SCS Same-Spin Scale       =       0.3333333333333333 [-]
	 SCS Opposite-Spin Scale   =       1.2000000000000000 [-]
	 SCS Same-Spin Energy      =      -0.0242390701778072 [Eh]
	 SCS Opposite-Spin Energy  =      -0.2930995105407847 [Eh]
	 SCS Correlation Energy    =      -0.3173385807185919 [Eh]
	 SCS Total Energy          =     -76.3831057038591439 [Eh]
	-----------------------------------------------------------


*** tstop() called on node59.bme.utexas.edu at Sat Apr 11 16:17:44 2020
Module time:
	user time   =       3.23 seconds =       0.05 minutes
	system time =       0.19 seconds =       0.00 minutes
	total time  =          0 seconds =       0.00 minutes
Total time:
	user time   =      19.11 seconds =       0.32 minutes
	system time =       1.07 seconds =       0.02 minutes
	total time  =          4 seconds =       0.07 minutes

  //>>>>>>>>>>>>>>>>>>>>>>>>>>>>>>>>>>>//
  //  CBS Results: mp2/aug-cc-pv[tq]z  //
  //<<<<<<<<<<<<<<<<<<<<<<<<<<<<<<<<<<<//


   ==> HF <==

   HI-zeta (4) Energy:               -76.065767123141


   ==> Helgaker 2-point correlated extrapolation for method: MP2 <==

   LO-zeta (3) Energy:               -76.344085661758
   HI-zeta (4) Energy:               -76.382733925791
   Alpha (exponent) Value:             3.000000000000
   Extrapolated Energy:              -76.410936713059

   @Extrapolated MP2/(T,Q):          -76.410936713059



   ==> Helgaker 2-point correlated extrapolation for method: HF <==

   LO-zeta (3) Energy:               -76.060384738345
   HI-zeta (4) Energy:               -76.065767123141
   Alpha (exponent) Value:             3.000000000000
   Extrapolated Energy:              -76.069694809343

   @Extrapolated HF/(T,Q):           -76.069694809343


   ==> Components <==

  ---------------------------------------------------------------------------------------------------------
                          Method / Basis                      Rqd      Energy [Eh]   Variable
  ---------------------------------------------------------------------------------------------------------
                              hf / aug-cc-pvtz                  *     -76.06038474   HF TOTAL ENERGY
                             mp2 / aug-cc-pvtz                  *     -76.34408566   MP2 TOTAL ENERGY
                              hf / aug-cc-pvqz                  *     -76.06576712   HF TOTAL ENERGY
                             mp2 / aug-cc-pvqz                  *     -76.38273393   MP2 TOTAL ENERGY
  ---------------------------------------------------------------------------------------------------------

   ==> Stages <==

  ---------------------------------------------------------------------------------------------------------
      Stage               Method / Basis                       Wt      Energy [Eh]   Scheme
  ---------------------------------------------------------------------------------------------------------
        scf                   hf / aug-cc-pvqz                  1     -76.06576712   xtpl_highest_1
       corl                  mp2 / aug-cc-pv[tq]z               1     -76.41093671   corl_xtpl_helgaker_2
       corl                   hf / aug-cc-pv[tq]z              -1     -76.06969481   corl_xtpl_helgaker_2
  ---------------------------------------------------------------------------------------------------------

   ==> CBS <==

  ---------------------------------------------------------------------------------------------------------
      Stage               Method / Basis                               Energy [Eh]   Scheme
  ---------------------------------------------------------------------------------------------------------
        scf                   hf / aug-cc-pvqz                        -76.06576712   xtpl_highest_1
       corl                  mp2 / aug-cc-pv[tq]z                      -0.34124190   corl_xtpl_helgaker_2
      total                  CBS                                      -76.40700903   
  ---------------------------------------------------------------------------------------------------------
   => Loading Basis Set <=

    Name: DEF2-SVP
    Role: ORBITAL
    Keyword: BASIS
    atoms 1   entry O          line   130 file /home/liuchw/anaconda3/envs/psi4env/share/psi4/basis/def2-svp.gbs 
    atoms 2-3 entry H          line    15 file /home/liuchw/anaconda3/envs/psi4env/share/psi4/basis/def2-svp.gbs 


       N-Body: Complex Energy (fragments = (2,), basis = (2,):   -76.40700902685666)

       N-Body: Computing complex (2/4) with fragments (2,) in the basis of fragments (1, 2).


Scratch directory: /scratch//

  //>>>>>>>>>>>>>>>>>>>>>>>>>>>>>>>>>>>//
  //   CBS Setup: mp2/aug-cc-pv[tq]z   //
  //<<<<<<<<<<<<<<<<<<<<<<<<<<<<<<<<<<<//

    Naive listing of computations required.
             hf / aug-cc-pvqz              for  HF TOTAL ENERGY
            mp2 / aug-cc-pvtz              for  MP2 TOTAL ENERGY
            mp2 / aug-cc-pvqz              for  MP2 TOTAL ENERGY
             hf / aug-cc-pvtz              for  HF TOTAL ENERGY
             hf / aug-cc-pvqz              for  HF TOTAL ENERGY

    Enlightened listing of computations required.
            mp2 / aug-cc-pvtz              for  MP2 TOTAL ENERGY
            mp2 / aug-cc-pvqz              for  MP2 TOTAL ENERGY

    Full listing of computations to be obtained (required and bonus).
             hf / aug-cc-pvtz              for  HF TOTAL ENERGY
            mp2 / aug-cc-pvtz              for  MP2 TOTAL ENERGY
             hf / aug-cc-pvqz              for  HF TOTAL ENERGY
            mp2 / aug-cc-pvqz              for  MP2 TOTAL ENERGY

  //>>>>>>>>>>>>>>>>>>>>>>>>>>>>>>>>>>>>//
  // CBS Computation: MP2 / AUG-CC-PVTZ //
  //<<<<<<<<<<<<<<<<<<<<<<<<<<<<<<<<<<<<//


Scratch directory: /scratch//

*** tstart() called on node59.bme.utexas.edu
*** at Sat Apr 11 16:17:45 2020

   => Loading Basis Set <=

    Name: AUG-CC-PVTZ
    Role: ORBITAL
    Keyword: BASIS
    atoms 1        entry C          line   239 file /home/liuchw/anaconda3/envs/psi4env/share/psi4/basis/aug-cc-pvtz.gbs 
    atoms 2        entry S          line   906 file /home/liuchw/anaconda3/envs/psi4env/share/psi4/basis/aug-cc-pvtz.gbs 
    atoms 3-6, 8-9 entry H          line    40 file /home/liuchw/anaconda3/envs/psi4env/share/psi4/basis/aug-cc-pvtz.gbs 
    atoms 7        entry O          line   331 file /home/liuchw/anaconda3/envs/psi4env/share/psi4/basis/aug-cc-pvtz.gbs 


         ---------------------------------------------------------
                                   SCF
               by Justin Turney, Rob Parrish, Andy Simmonett
                          and Daniel G. A. Smith
                              RHF Reference
                        6 Threads,  38146 MiB Core
         ---------------------------------------------------------

  ==> Geometry <==

    Molecular point group: c1
    Full point group: C1

    Geometry (in Angstrom), charge = 0, multiplicity = 1:

       Center              X                  Y                   Z               Mass       
    ------------   -----------------  -----------------  -----------------  -----------------
      Gh(C)          -1.127244790991     1.150519253680    -0.275594960589    12.000000000000
      Gh(S)          -0.724739790991    -0.577815746320     0.106174039411    31.972071174400
      Gh(H)           0.603541209009    -0.419050746320     0.105196039411     1.007825032230
      Gh(H)          -0.721776790991     1.444249253680    -1.238553960589     1.007825032230
      Gh(H)          -0.765170790991     1.818116253680     0.499768039411     1.007825032230
      Gh(H)          -2.210895790991     1.215856253680    -0.316696960589     1.007825032230
         O            2.146321209009     0.046823253680     0.043529039411    15.994914619570
         H            2.740448209009    -0.244070746320    -0.651534960589     1.007825032230
         H            2.703612209009     0.073274253680     0.824199039411     1.007825032230

  Running in c1 symmetry.

  Rotational constants: A =      0.45026  B =      0.12922  C =      0.10380 [cm^-1]
  Rotational constants: A =  13498.33975  B =   3873.92895  C =   3111.73542 [MHz]
  Nuclear repulsion =    9.174304243509273

  Charge       = 0
  Multiplicity = 1
  Electrons    = 10
  Nalpha       = 5
  Nbeta        = 5

  ==> Algorithm <==

  SCF Algorithm Type is DF.
  DIIS enabled.
  MOM disabled.
  Fractional occupation disabled.
  Guess Type is SAD.
  Energy threshold   = 1.00e-07
  Density threshold  = 1.00e-08
  Integral threshold = 0.00e+00

  ==> Primary Basis <==

  Basis Set: AUG-CC-PVTZ
    Blend: AUG-CC-PVTZ
    Number of shells: 98
    Number of basis function: 280
    Number of Cartesian functions: 319
    Spherical Harmonics?: true
    Max angular momentum: 3

   => Loading Basis Set <=

    Name: (AUG-CC-PVTZ AUX)
    Role: JKFIT
    Keyword: DF_BASIS_SCF
    atoms 1        entry C          line   162 file /home/liuchw/anaconda3/envs/psi4env/share/psi4/basis/aug-cc-pvtz-jkfit.gbs 
    atoms 2        entry S          line   730 file /home/liuchw/anaconda3/envs/psi4env/share/psi4/basis/aug-cc-pvtz-jkfit.gbs 
    atoms 3-6, 8-9 entry H          line    70 file /home/liuchw/anaconda3/envs/psi4env/share/psi4/basis/aug-cc-pvtz-jkfit.gbs 
    atoms 7        entry O          line   286 file /home/liuchw/anaconda3/envs/psi4env/share/psi4/basis/aug-cc-pvtz-jkfit.gbs 

  ==> Pre-Iterations <==

   -------------------------------------------------------
    Irrep   Nso     Nmo     Nalpha   Nbeta   Ndocc  Nsocc
   -------------------------------------------------------
     A        280     280       0       0       0       0
   -------------------------------------------------------
    Total     280     280       5       5       5       0
   -------------------------------------------------------

  ==> Integral Setup <==

  DFHelper Memory: AOs need 0.383 GiB; user supplied 27.940 GiB. Using in-core AOs.

  ==> MemDFJK: Density-Fitted J/K Matrices <==

    J tasked:                   Yes
    K tasked:                   Yes
    wK tasked:                   No
    OpenMP threads:               6
    Memory [MiB]:             28610
    Algorithm:                 Core
    Schwarz Cutoff:           1E-12
    Mask sparsity (%):       1.9592
    Fitting Condition:        1E-10

   => Auxiliary Basis Set <=

  Basis Set: (AUG-CC-PVTZ AUX)
    Blend: AUG-CC-PVTZ-JKFIT
    Number of shells: 186
    Number of basis function: 630
    Number of Cartesian functions: 772
    Spherical Harmonics?: true
    Max angular momentum: 4

  Minimum eigenvalue in the overlap matrix is 4.5381080356E-05.
  Using Symmetric Orthogonalization.

  SCF Guess: Superposition of Atomic Densities via on-the-fly atomic UHF.

  ==> Iterations <==

                           Total Energy        Delta E     RMS |[F,P]|

   @DF-RHF iter SAD:   -75.47617245627427   -7.54762e+01   0.00000e+00 
   @DF-RHF iter   1:   -75.97606970669074   -4.99897e-01   1.67340e-03 DIIS
   @DF-RHF iter   2:   -76.02859625917407   -5.25266e-02   1.14137e-03 DIIS
   @DF-RHF iter   3:   -76.06008420482956   -3.14879e-02   7.75222e-05 DIIS
   @DF-RHF iter   4:   -76.06047274564418   -3.88541e-04   1.85769e-05 DIIS
   @DF-RHF iter   5:   -76.06049709559350   -2.43499e-05   4.21832e-06 DIIS
   @DF-RHF iter   6:   -76.06049908531331   -1.98972e-06   9.22940e-07 DIIS
   @DF-RHF iter   7:   -76.06049919005876   -1.04745e-07   1.66264e-07 DIIS
   @DF-RHF iter   8:   -76.06049919305542   -2.99666e-09   2.79390e-08 DIIS
   @DF-RHF iter   9:   -76.06049919312154   -6.61231e-11   6.81273e-09 DIIS
  Energy and wave function converged.


  ==> Post-Iterations <==

    Orbital Energies [Eh]
    ---------------------

    Doubly Occupied:                                                      

       1A    -20.567738     2A     -1.352833     3A     -0.715027  
       4A     -0.585877     5A     -0.510342  

    Virtual:                                                              

       6A      0.024281     7A      0.036280     8A      0.044141  
       9A      0.048961    10A      0.060132    11A      0.062098  
      12A      0.096595    13A      0.105299    14A      0.107952  
      15A      0.112730    16A      0.133004    17A      0.135915  
      18A      0.138177    19A      0.161508    20A      0.171900  
      21A      0.178931    22A      0.182834    23A      0.220447  
      24A      0.227250    25A      0.246821    26A      0.265251  
      27A      0.267280    28A      0.289821    29A      0.291703  
      30A      0.302081    31A      0.308998    32A      0.321136  
      33A      0.321186    34A      0.324231    35A      0.329576  
      36A      0.346415    37A      0.350470    38A      0.365434  
      39A      0.389163    40A      0.397712    41A      0.398819  
      42A      0.402177    43A      0.420635    44A      0.446861  
      45A      0.447128    46A      0.450112    47A      0.455931  
      48A      0.468161    49A      0.481244    50A      0.496480  
      51A      0.509923    52A      0.514624    53A      0.525039  
      54A      0.550108    55A      0.559071    56A      0.573467  
      57A      0.587967    58A      0.620773    59A      0.625007  
      60A      0.628295    61A      0.645646    62A      0.670890  
      63A      0.681158    64A      0.684017    65A      0.720295  
      66A      0.739476    67A      0.747169    68A      0.764188  
      69A      0.800784    70A      0.820301    71A      0.848296  
      72A      0.880675    73A      0.902961    74A      0.949507  
      75A      0.954687    76A      0.964137    77A      0.979691  
      78A      0.982208    79A      1.022279    80A      1.022427  
      81A      1.026767    82A      1.031546    83A      1.046251  
      84A      1.046557    85A      1.072969    86A      1.074766  
      87A      1.076712    88A      1.080427    89A      1.099819  
      90A      1.110705    91A      1.114704    92A      1.129005  
      93A      1.131798    94A      1.135299    95A      1.159333  
      96A      1.167126    97A      1.176183    98A      1.181257  
      99A      1.186784   100A      1.193995   101A      1.217040  
     102A      1.218955   103A      1.234916   104A      1.256873  
     105A      1.258316   106A      1.259497   107A      1.272089  
     108A      1.287646   109A      1.307257   110A      1.318654  
     111A      1.333703   112A      1.351222   113A      1.369973  
     114A      1.387028   115A      1.399097   116A      1.410912  
     117A      1.421573   118A      1.440644   119A      1.449313  
     120A      1.482739   121A      1.495276   122A      1.502739  
     123A      1.559860   124A      1.602021   125A      1.620047  
     126A      1.663959   127A      1.729475   128A      1.733819  
     129A      1.763048   130A      1.787786   131A      1.789014  
     132A      1.822806   133A      1.864907   134A      1.890106  
     135A      1.898152   136A      1.914944   137A      1.934015  
     138A      1.947129   139A      1.978469   140A      1.998388  
     141A      2.008337   142A      2.062827   143A      2.077226  
     144A      2.087566   145A      2.124008   146A      2.127976  
     147A      2.168189   148A      2.194150   149A      2.239197  
     150A      2.273068   151A      2.279976   152A      2.331188  
     153A      2.342137   154A      2.446402   155A      2.460388  
     156A      2.478300   157A      2.501900   158A      2.525858  
     159A      2.555943   160A      2.571646   161A      2.580597  
     162A      2.704321   163A      2.718246   164A      2.741386  
     165A      2.746774   166A      2.808005   167A      2.838777  
     168A      2.902425   169A      2.911408   170A      2.999029  
     171A      3.014884   172A      3.133689   173A      3.157806  
     174A      3.190384   175A      3.196736   176A      3.225080  
     177A      3.451806   178A      3.503273   179A      3.564968  
     180A      3.695504   181A      3.728866   182A      3.782335  
     183A      3.820080   184A      3.888530   185A      3.918662  
     186A      3.940537   187A      3.961120   188A      4.052149  
     189A      4.109062   190A      4.112293   191A      4.131950  
     192A      4.144487   193A      4.157313   194A      4.168667  
     195A      4.190485   196A      4.223986   197A      4.302790  
     198A      4.306714   199A      4.341616   200A      4.364631  
     201A      4.417960   202A      4.438602   203A      4.463546  
     204A      4.481870   205A      4.501260   206A      4.533382  
     207A      4.554146   208A      4.573514   209A      4.593875  
     210A      4.635814   211A      4.662173   212A      4.698942  
     213A      4.700760   214A      4.750721   215A      4.826008  
     216A      4.868701   217A      4.913577   218A      4.921691  
     219A      4.928890   220A      4.957809   221A      4.971685  
     222A      4.979709   223A      5.015793   224A      5.087632  
     225A      5.168558   226A      5.213022   227A      5.233674  
     228A      5.234724   229A      5.281392   230A      5.298309  
     231A      5.307434   232A      5.365170   233A      5.366680  
     234A      5.434981   235A      5.447520   236A      5.493030  
     237A      5.503973   238A      5.520251   239A      5.608411  
     240A      5.649063   241A      5.689369   242A      5.695791  
     243A      5.895938   244A      5.931420   245A      6.027427  
     246A      6.165801   247A      6.191651   248A      6.211640  
     249A      6.226479   250A      6.406014   251A      6.603978  
     252A      6.704836   253A      6.713203   254A      6.748773  
     255A      7.069516   256A      7.116298   257A      7.165108  
     258A      7.237241   259A      7.322568   260A      7.382243  
     261A      7.429749   262A      7.434714   263A      7.647198  
     264A      7.780237   265A      7.782279   266A      7.878587  
     267A      7.891245   268A      7.962097   269A      8.171457  
     270A      8.204978   271A      8.237260   272A      8.891082  
     273A     10.364048   274A     16.087697   275A     16.603578  
     276A     24.585562   277A     25.181656   278A     25.443453  
     279A     51.634354   280A    141.782219  

    Final Occupation by Irrep:
              A 
    DOCC [     5 ]

  @DF-RHF Final Energy:   -76.06049919312154

   => Energetics <=

    Nuclear Repulsion Energy =              9.1743042435092725
    One-Electron Energy =                -123.0059694747114349
    Two-Electron Energy =                  37.7711660380806293
    Total Energy =                        -76.0604991931215295

Computation Completed


Properties will be evaluated at   0.000000,   0.000000,   0.000000 [a0]

Properties computed using the SCF density matrix

  Nuclear Dipole Moment: [e a0]
     X:    42.7355      Y:     0.3851      Z:     0.9844

  Electronic Dipole Moment: [e a0]
     X:   -41.9728      Y:    -0.5600      Z:    -0.9277

  Dipole Moment: [e a0]
     X:     0.7627      Y:    -0.1749      Z:     0.0567     Total:     0.7845

  Dipole Moment: [D]
     X:     1.9385      Y:    -0.4446      Z:     0.1440     Total:     1.9940


*** tstop() called on node59.bme.utexas.edu at Sat Apr 11 16:17:48 2020
Module time:
	user time   =      14.90 seconds =       0.25 minutes
	system time =       0.55 seconds =       0.01 minutes
	total time  =          3 seconds =       0.05 minutes
Total time:
	user time   =      35.61 seconds =       0.59 minutes
	system time =       1.68 seconds =       0.03 minutes
	total time  =          8 seconds =       0.13 minutes

*** tstart() called on node59.bme.utexas.edu
*** at Sat Apr 11 16:17:48 2020


  //>>>>>>>>>>>>>>>>>>>>>>>>>>>>>>>>>>>//
  //               DFMP2               //
  //<<<<<<<<<<<<<<<<<<<<<<<<<<<<<<<<<<<//

   => Loading Basis Set <=

    Name: (AUG-CC-PVTZ AUX)
    Role: RIFIT
    Keyword: DF_BASIS_MP2
    atoms 1        entry C          line   148 file /home/liuchw/anaconda3/envs/psi4env/share/psi4/basis/aug-cc-pvtz-ri.gbs 
    atoms 2        entry S          line   666 file /home/liuchw/anaconda3/envs/psi4env/share/psi4/basis/aug-cc-pvtz-ri.gbs 
    atoms 3-6, 8-9 entry H          line    30 file /home/liuchw/anaconda3/envs/psi4env/share/psi4/basis/aug-cc-pvtz-ri.gbs 
    atoms 7        entry O          line   264 file /home/liuchw/anaconda3/envs/psi4env/share/psi4/basis/aug-cc-pvtz-ri.gbs 

	 --------------------------------------------------------
	                          DF-MP2                         
	      2nd-Order Density-Fitted Moller-Plesset Theory     
	              RMP2 Wavefunction,   6 Threads             
	                                                         
	        Rob Parrish, Justin Turney, Andy Simmonett,      
	           Ed Hohenstein, and C. David Sherrill          
	 --------------------------------------------------------

   => Auxiliary Basis Set <=

  Basis Set: (AUG-CC-PVTZ AUX)
    Blend: AUG-CC-PVTZ-RI
    Number of shells: 177
    Number of basis function: 635
    Number of Cartesian functions: 793
    Spherical Harmonics?: true
    Max angular momentum: 4

	 --------------------------------------------------------
	                 NBF =   280, NAUX =   635
	 --------------------------------------------------------
	   CLASS    FOCC     OCC    AOCC    AVIR     VIR    FVIR
	   PAIRS       0       5       5     275     275       0
	 --------------------------------------------------------

	-----------------------------------------------------------
	 ==================> DF-MP2 Energies <==================== 
	-----------------------------------------------------------
	 Reference Energy          =     -76.0604991931215437 [Eh]
	 Singles Energy            =      -0.0000000000000000 [Eh]
	 Same-Spin Energy          =      -0.0684732046468014 [Eh]
	 Opposite-Spin Energy      =      -0.2161956952742254 [Eh]
	 Correlation Energy        =      -0.2846688999210267 [Eh]
	 Total Energy              =     -76.3451680930425738 [Eh]
	-----------------------------------------------------------
	 ================> DF-SCS-MP2 Energies <================== 
	-----------------------------------------------------------
	 SCS Same-Spin Scale       =       0.3333333333333333 [-]
	 SCS Opposite-Spin Scale   =       1.2000000000000000 [-]
	 SCS Same-Spin Energy      =      -0.0228244015489338 [Eh]
	 SCS Opposite-Spin Energy  =      -0.2594348343290704 [Eh]
	 SCS Correlation Energy    =      -0.2822592358780042 [Eh]
	 SCS Total Energy          =     -76.3427584289995451 [Eh]
	-----------------------------------------------------------


*** tstop() called on node59.bme.utexas.edu at Sat Apr 11 16:17:50 2020
Module time:
	user time   =       6.19 seconds =       0.10 minutes
	system time =       0.25 seconds =       0.00 minutes
	total time  =          2 seconds =       0.03 minutes
Total time:
	user time   =      41.81 seconds =       0.70 minutes
	system time =       1.93 seconds =       0.03 minutes
	total time  =         10 seconds =       0.17 minutes

  //>>>>>>>>>>>>>>>>>>>>>>>>>>>>>>>>>>>>//
  // CBS Computation: MP2 / AUG-CC-PVQZ //
  //<<<<<<<<<<<<<<<<<<<<<<<<<<<<<<<<<<<<//


Scratch directory: /scratch//

*** tstart() called on node59.bme.utexas.edu
*** at Sat Apr 11 16:17:50 2020

   => Loading Basis Set <=

    Name: AUG-CC-PVQZ
    Role: ORBITAL
    Keyword: BASIS
    atoms 1        entry C          line   303 file /home/liuchw/anaconda3/envs/psi4env/share/psi4/basis/aug-cc-pvqz.gbs 
    atoms 2        entry S          line  1126 file /home/liuchw/anaconda3/envs/psi4env/share/psi4/basis/aug-cc-pvqz.gbs 
    atoms 3-6, 8-9 entry H          line    40 file /home/liuchw/anaconda3/envs/psi4env/share/psi4/basis/aug-cc-pvqz.gbs 
    atoms 7        entry O          line   423 file /home/liuchw/anaconda3/envs/psi4env/share/psi4/basis/aug-cc-pvqz.gbs 


         ---------------------------------------------------------
                                   SCF
               by Justin Turney, Rob Parrish, Andy Simmonett
                          and Daniel G. A. Smith
                              RHF Reference
                        6 Threads,  38146 MiB Core
         ---------------------------------------------------------

  ==> Geometry <==

    Molecular point group: c1
    Full point group: C1

    Geometry (in Angstrom), charge = 0, multiplicity = 1:

       Center              X                  Y                   Z               Mass       
    ------------   -----------------  -----------------  -----------------  -----------------
      Gh(C)          -1.127244790991     1.150519253680    -0.275594960589    12.000000000000
      Gh(S)          -0.724739790991    -0.577815746320     0.106174039411    31.972071174400
      Gh(H)           0.603541209009    -0.419050746320     0.105196039411     1.007825032230
      Gh(H)          -0.721776790991     1.444249253680    -1.238553960589     1.007825032230
      Gh(H)          -0.765170790991     1.818116253680     0.499768039411     1.007825032230
      Gh(H)          -2.210895790991     1.215856253680    -0.316696960589     1.007825032230
         O            2.146321209009     0.046823253680     0.043529039411    15.994914619570
         H            2.740448209009    -0.244070746320    -0.651534960589     1.007825032230
         H            2.703612209009     0.073274253680     0.824199039411     1.007825032230

  Running in c1 symmetry.

  Rotational constants: A =      0.45026  B =      0.12922  C =      0.10380 [cm^-1]
  Rotational constants: A =  13498.33975  B =   3873.92895  C =   3111.73542 [MHz]
  Nuclear repulsion =    9.174304243509273

  Charge       = 0
  Multiplicity = 1
  Electrons    = 10
  Nalpha       = 5
  Nbeta        = 5

  ==> Algorithm <==

  SCF Algorithm Type is DF.
  DIIS enabled.
  MOM disabled.
  Fractional occupation disabled.
  Guess Type is SAD.
  Energy threshold   = 1.00e-07
  Density threshold  = 1.00e-08
  Integral threshold = 0.00e+00

  ==> Primary Basis <==

  Basis Set: AUG-CC-PVQZ
    Blend: AUG-CC-PVQZ
    Number of shells: 146
    Number of basis function: 520
    Number of Cartesian functions: 649
    Spherical Harmonics?: true
    Max angular momentum: 4

   => Loading Basis Set <=

    Name: (AUG-CC-PVQZ AUX)
    Role: JKFIT
    Keyword: DF_BASIS_SCF
    atoms 1        entry C          line   178 file /home/liuchw/anaconda3/envs/psi4env/share/psi4/basis/aug-cc-pvqz-jkfit.gbs 
    atoms 2        entry S          line   810 file /home/liuchw/anaconda3/envs/psi4env/share/psi4/basis/aug-cc-pvqz-jkfit.gbs 
    atoms 3-6, 8-9 entry H          line    70 file /home/liuchw/anaconda3/envs/psi4env/share/psi4/basis/aug-cc-pvqz-jkfit.gbs 
    atoms 7        entry O          line   318 file /home/liuchw/anaconda3/envs/psi4env/share/psi4/basis/aug-cc-pvqz-jkfit.gbs 

  ==> Pre-Iterations <==

   -------------------------------------------------------
    Irrep   Nso     Nmo     Nalpha   Nbeta   Ndocc  Nsocc
   -------------------------------------------------------
     A        520     520       0       0       0       0
   -------------------------------------------------------
    Total     520     520       5       5       5       0
   -------------------------------------------------------

  ==> Integral Setup <==

  DFHelper Memory: AOs need 1.856 GiB; user supplied 27.940 GiB. Using in-core AOs.

  ==> MemDFJK: Density-Fitted J/K Matrices <==

    J tasked:                   Yes
    K tasked:                   Yes
    wK tasked:                   No
    OpenMP threads:               6
    Memory [MiB]:             28610
    Algorithm:                 Core
    Schwarz Cutoff:           1E-12
    Mask sparsity (%):       4.8698
    Fitting Condition:        1E-10

   => Auxiliary Basis Set <=

  Basis Set: (AUG-CC-PVQZ AUX)
    Blend: AUG-CC-PVQZ-JKFIT
    Number of shells: 222
    Number of basis function: 924
    Number of Cartesian functions: 1249
    Spherical Harmonics?: true
    Max angular momentum: 5

  Minimum eigenvalue in the overlap matrix is 1.0701915876E-05.
  Using Symmetric Orthogonalization.

  SCF Guess: Superposition of Atomic Densities via on-the-fly atomic UHF.

  ==> Iterations <==

                           Total Energy        Delta E     RMS |[F,P]|

   @DF-RHF iter SAD:   -75.48131422089602   -7.54813e+01   0.00000e+00 
   @DF-RHF iter   1:   -75.98109460455763   -4.99780e-01   9.02910e-04 DIIS
   @DF-RHF iter   2:   -76.03371164638898   -5.26170e-02   6.17268e-04 DIIS
   @DF-RHF iter   3:   -76.06539570320997   -3.16841e-02   4.20589e-05 DIIS
   @DF-RHF iter   4:   -76.06578627896147   -3.90576e-04   1.02923e-05 DIIS
   @DF-RHF iter   5:   -76.06581145178788   -2.51728e-05   2.33123e-06 DIIS
   @DF-RHF iter   6:   -76.06581352147026   -2.06968e-06   5.23958e-07 DIIS
   @DF-RHF iter   7:   -76.06581363749491   -1.16025e-07   9.75080e-08 DIIS
   @DF-RHF iter   8:   -76.06581364102969   -3.53478e-09   1.57172e-08 DIIS
   @DF-RHF iter   9:   -76.06581364110411   -7.44222e-11   3.74972e-09 DIIS
  Energy and wave function converged.


  ==> Post-Iterations <==

    Orbital Energies [Eh]
    ---------------------

    Doubly Occupied:                                                      

       1A    -20.565435     2A     -1.352176     3A     -0.715067  
       4A     -0.585977     5A     -0.510500  

    Virtual:                                                              

       6A      0.021073     7A      0.032873     8A      0.039810  
       9A      0.043639    10A      0.054797    11A      0.056643  
      12A      0.083511    13A      0.089974    14A      0.091763  
      15A      0.098674    16A      0.112305    17A      0.117997  
      18A      0.119779    19A      0.139497    20A      0.148878  
      21A      0.154418    22A      0.155242    23A      0.185406  
      24A      0.192465    25A      0.200507    26A      0.210090  
      27A      0.228331    28A      0.237969    29A      0.242130  
      30A      0.245435    31A      0.251554    32A      0.260879  
      33A      0.270422    34A      0.271011    35A      0.277029  
      36A      0.280850    37A      0.285107    38A      0.289634  
      39A      0.301246    40A      0.313284    41A      0.319846  
      42A      0.331224    43A      0.337844    44A      0.349781  
      45A      0.356451    46A      0.365689    47A      0.366234  
      48A      0.372261    49A      0.380835    50A      0.392930  
      51A      0.398584    52A      0.409908    53A      0.431474  
      54A      0.435177    55A      0.440527    56A      0.457135  
      57A      0.465391    58A      0.480598    59A      0.484717  
      60A      0.510568    61A      0.519324    62A      0.526878  
      63A      0.557041    64A      0.558833    65A      0.562545  
      66A      0.584657    67A      0.597626    68A      0.604988  
      69A      0.618849    70A      0.630557    71A      0.644542  
      72A      0.661547    73A      0.668092    74A      0.673248  
      75A      0.682630    76A      0.690053    77A      0.718096  
      78A      0.722396    79A      0.730433    80A      0.747635  
      81A      0.749675    82A      0.755693    83A      0.758551  
      84A      0.762919    85A      0.775227    86A      0.777801  
      87A      0.781701    88A      0.800501    89A      0.807506  
      90A      0.809536    91A      0.815387    92A      0.829359  
      93A      0.833449    94A      0.836449    95A      0.851372  
      96A      0.864555    97A      0.872503    98A      0.877151  
      99A      0.882355   100A      0.898065   101A      0.914516  
     102A      0.914761   103A      0.928579   104A      0.932697  
     105A      0.943045   106A      0.950099   107A      0.951646  
     108A      0.955561   109A      0.968190   110A      0.989912  
     111A      1.014980   112A      1.023207   113A      1.030235  
     114A      1.047563   115A      1.060889   116A      1.075013  
     117A      1.102253   118A      1.106108   119A      1.115758  
     120A      1.120759   121A      1.125113   122A      1.134839  
     123A      1.168757   124A      1.183179   125A      1.195221  
     126A      1.229912   127A      1.246678   128A      1.252730  
     129A      1.269619   130A      1.292474   131A      1.316019  
     132A      1.317591   133A      1.355808   134A      1.356424  
     135A      1.368701   136A      1.374802   137A      1.399393  
     138A      1.439067   139A      1.441909   140A      1.453510  
     141A      1.467513   142A      1.498484   143A      1.540905  
     144A      1.552525   145A      1.573543   146A      1.574755  
     147A      1.586458   148A      1.596525   149A      1.614843  
     150A      1.616634   151A      1.637050   152A      1.641064  
     153A      1.651334   154A      1.687274   155A      1.698885  
     156A      1.699998   157A      1.704701   158A      1.727628  
     159A      1.728023   160A      1.757774   161A      1.759640  
     162A      1.781087   163A      1.787762   164A      1.804175  
     165A      1.812822   166A      1.817242   167A      1.817435  
     168A      1.844726   169A      1.846730   170A      1.849253  
     171A      1.863142   172A      1.865035   173A      1.881982  
     174A      1.887830   175A      1.902263   176A      1.904776  
     177A      1.918108   178A      1.928310   179A      1.939539  
     180A      1.948596   181A      1.953450   182A      1.965902  
     183A      1.980150   184A      1.992568   185A      1.999558  
     186A      2.011853   187A      2.013451   188A      2.021328  
     189A      2.044453   190A      2.047677   191A      2.053345  
     192A      2.061318   193A      2.082144   194A      2.086489  
     195A      2.102681   196A      2.124493   197A      2.129501  
     198A      2.135607   199A      2.179548   200A      2.188284  
     201A      2.198036   202A      2.209525   203A      2.213745  
     204A      2.227317   205A      2.243010   206A      2.269744  
     207A      2.280726   208A      2.299574   209A      2.317816  
     210A      2.322034   211A      2.350637   212A      2.357298  
     213A      2.367191   214A      2.387067   215A      2.399929  
     216A      2.404367   217A      2.431960   218A      2.449589  
     219A      2.471358   220A      2.477165   221A      2.484961  
     222A      2.499597   223A      2.523282   224A      2.534112  
     225A      2.545901   226A      2.562567   227A      2.583959  
     228A      2.605626   229A      2.651891   230A      2.680860  
     231A      2.703104   232A      2.704169   233A      2.742506  
     234A      2.748004   235A      2.793397   236A      2.800005  
     237A      2.844942   238A      2.850276   239A      2.871002  
     240A      2.880276   241A      2.893385   242A      2.945736  
     243A      2.990344   244A      3.002269   245A      3.007065  
     246A      3.050220   247A      3.071366   248A      3.092262  
     249A      3.112020   250A      3.119725   251A      3.143034  
     252A      3.162403   253A      3.172184   254A      3.188352  
     255A      3.218056   256A      3.221273   257A      3.274521  
     258A      3.281004   259A      3.282370   260A      3.295016  
     261A      3.311491   262A      3.326312   263A      3.338356  
     264A      3.338555   265A      3.373508   266A      3.394082  
     267A      3.397637   268A      3.406848   269A      3.440886  
     270A      3.464703   271A      3.487772   272A      3.509815  
     273A      3.574636   274A      3.576376   275A      3.591253  
     276A      3.636871   277A      3.659612   278A      3.672549  
     279A      3.688609   280A      3.699719   281A      3.750659  
     282A      3.778663   283A      3.801948   284A      3.854588  
     285A      3.870838   286A      3.876917   287A      3.925366  
     288A      3.949931   289A      3.963412   290A      4.033176  
     291A      4.060839   292A      4.075496   293A      4.079177  
     294A      4.091474   295A      4.095992   296A      4.117564  
     297A      4.133969   298A      4.160426   299A      4.166921  
     300A      4.177654   301A      4.249223   302A      4.275513  
     303A      4.322342   304A      4.372461   305A      4.401122  
     306A      4.404089   307A      4.425337   308A      4.445684  
     309A      4.448450   310A      4.530281   311A      4.619396  
     312A      4.673300   313A      4.688358   314A      4.700139  
     315A      4.701150   316A      4.751022   317A      4.780072  
     318A      4.803678   319A      4.803732   320A      4.831628  
     321A      4.843175   322A      4.876477   323A      4.888040  
     324A      4.907863   325A      4.932284   326A      4.972062  
     327A      4.980763   328A      5.004388   329A      5.008397  
     330A      5.020574   331A      5.061839   332A      5.085219  
     333A      5.087561   334A      5.149380   335A      5.221220  
     336A      5.242284   337A      5.277314   338A      5.298159  
     339A      5.324299   340A      5.341518   341A      5.372401  
     342A      5.458900   343A      5.475841   344A      5.523303  
     345A      5.525621   346A      5.572750   347A      5.618141  
     348A      5.659397   349A      5.713354   350A      5.735888  
     351A      5.808475   352A      5.841063   353A      5.918115  
     354A      5.963477   355A      6.003457   356A      6.156298  
     357A      6.181685   358A      6.331349   359A      6.537220  
     360A      6.641656   361A      6.659609   362A      6.762700  
     363A      6.819913   364A      6.828608   365A      6.891975  
     366A      6.940069   367A      6.940085   368A      6.979410  
     369A      6.987262   370A      6.991433   371A      7.011760  
     372A      7.034362   373A      7.053260   374A      7.119691  
     375A      7.132839   376A      7.134064   377A      7.181083  
     378A      7.208017   379A      7.273839   380A      7.302500  
     381A      7.367925   382A      7.403404   383A      7.420152  
     384A      7.426950   385A      7.528515   386A      7.572856  
     387A      7.590249   388A      7.625121   389A      7.654325  
     390A      7.696180   391A      7.700084   392A      7.779799  
     393A      7.800461   394A      7.825299   395A      7.912597  
     396A      7.920381   397A      7.929386   398A      7.965592  
     399A      7.995400   400A      8.002383   401A      8.013911  
     402A      8.017925   403A      8.035619   404A      8.061140  
     405A      8.134848   406A      8.140934   407A      8.164811  
     408A      8.283645   409A      8.412432   410A      8.465123  
     411A      8.519124   412A      8.540356   413A      8.597438  
     414A      8.598843   415A      8.638096   416A      8.666940  
     417A      8.725269   418A      8.821949   419A      8.862819  
     420A      8.865109   421A      8.891704   422A      8.902243  
     423A      8.959984   424A      8.992883   425A      9.041503  
     426A      9.063966   427A      9.136029   428A      9.278303  
     429A      9.311496   430A      9.318282   431A      9.355452  
     432A      9.367781   433A      9.425366   434A      9.433870  
     435A      9.497225   436A      9.526308   437A      9.562956  
     438A      9.603072   439A      9.705591   440A      9.722460  
     441A      9.751608   442A      9.761181   443A      9.811807  
     444A      9.815966   445A      9.846339   446A      9.883433  
     447A      9.892803   448A      9.938083   449A      9.983431  
     450A     10.022893   451A     10.043197   452A     10.066341  
     453A     10.103776   454A     10.114953   455A     10.242039  
     456A     10.248700   457A     10.309475   458A     10.360576  
     459A     10.389681   460A     10.494852   461A     10.556906  
     462A     10.636962   463A     10.664699   464A     10.667835  
     465A     10.730859   466A     10.773591   467A     10.809249  
     468A     10.834684   469A     10.834950   470A     10.888204  
     471A     11.187437   472A     11.272505   473A     11.273921  
     474A     11.286301   475A     11.328715   476A     11.364960  
     477A     11.379174   478A     11.404690   479A     11.449693  
     480A     11.548509   481A     11.575127   482A     11.869598  
     483A     11.944326   484A     11.964851   485A     12.102164  
     486A     12.174792   487A     12.181294   488A     12.242302  
     489A     12.293855   490A     12.298574   491A     12.361496  
     492A     12.584574   493A     12.859688   494A     12.894629  
     495A     12.963500   496A     13.170922   497A     13.239891  
     498A     13.267439   499A     13.303896   500A     13.590580  
     501A     13.718378   502A     14.035618   503A     14.478364  
     504A     14.634407   505A     14.829548   506A     14.833497  
     507A     15.081322   508A     15.340629   509A     16.559182  
     510A     17.193657   511A     17.371094   512A     17.400690  
     513A     17.419659   514A     25.771074   515A     25.860865  
     516A     25.881116   517A     36.176249   518A     46.260222  
     519A     71.656824   520A    141.547229  

    Final Occupation by Irrep:
              A 
    DOCC [     5 ]

  @DF-RHF Final Energy:   -76.06581364110411

   => Energetics <=

    Nuclear Repulsion Energy =              9.1743042435092725
    One-Electron Energy =                -123.0219217455311167
    Two-Electron Energy =                  37.7818038609177336
    Total Energy =                        -76.0658136411041141

Computation Completed


Properties will be evaluated at   0.000000,   0.000000,   0.000000 [a0]

Properties computed using the SCF density matrix

  Nuclear Dipole Moment: [e a0]
     X:    42.7355      Y:     0.3851      Z:     0.9844

  Electronic Dipole Moment: [e a0]
     X:   -41.9728      Y:    -0.5602      Z:    -0.9277

  Dipole Moment: [e a0]
     X:     0.7626      Y:    -0.1751      Z:     0.0567     Total:     0.7845

  Dipole Moment: [D]
     X:     1.9384      Y:    -0.4451      Z:     0.1441     Total:     1.9940


*** tstop() called on node59.bme.utexas.edu at Sat Apr 11 16:17:59 2020
Module time:
	user time   =      49.10 seconds =       0.82 minutes
	system time =       1.38 seconds =       0.02 minutes
	total time  =          9 seconds =       0.15 minutes
Total time:
	user time   =      90.94 seconds =       1.52 minutes
	system time =       3.32 seconds =       0.06 minutes
	total time  =         19 seconds =       0.32 minutes

*** tstart() called on node59.bme.utexas.edu
*** at Sat Apr 11 16:17:59 2020


  //>>>>>>>>>>>>>>>>>>>>>>>>>>>>>>>>>>>//
  //               DFMP2               //
  //<<<<<<<<<<<<<<<<<<<<<<<<<<<<<<<<<<<//

   => Loading Basis Set <=

    Name: (AUG-CC-PVQZ AUX)
    Role: RIFIT
    Keyword: DF_BASIS_MP2
    atoms 1        entry C          line   184 file /home/liuchw/anaconda3/envs/psi4env/share/psi4/basis/aug-cc-pvqz-ri.gbs 
    atoms 2        entry S          line   824 file /home/liuchw/anaconda3/envs/psi4env/share/psi4/basis/aug-cc-pvqz-ri.gbs 
    atoms 3-6, 8-9 entry H          line    30 file /home/liuchw/anaconda3/envs/psi4env/share/psi4/basis/aug-cc-pvqz-ri.gbs 
    atoms 7        entry O          line   332 file /home/liuchw/anaconda3/envs/psi4env/share/psi4/basis/aug-cc-pvqz-ri.gbs 

	 --------------------------------------------------------
	                          DF-MP2                         
	      2nd-Order Density-Fitted Moller-Plesset Theory     
	              RMP2 Wavefunction,   6 Threads             
	                                                         
	        Rob Parrish, Justin Turney, Andy Simmonett,      
	           Ed Hohenstein, and C. David Sherrill          
	 --------------------------------------------------------

   => Auxiliary Basis Set <=

  Basis Set: (AUG-CC-PVQZ AUX)
    Blend: AUG-CC-PVQZ-RI
    Number of shells: 236
    Number of basis function: 1010
    Number of Cartesian functions: 1372
    Spherical Harmonics?: true
    Max angular momentum: 5

	 --------------------------------------------------------
	                 NBF =   520, NAUX =  1010
	 --------------------------------------------------------
	   CLASS    FOCC     OCC    AOCC    AVIR     VIR    FVIR
	   PAIRS       0       5       5     515     515       0
	 --------------------------------------------------------

	-----------------------------------------------------------
	 ==================> DF-MP2 Energies <==================== 
	-----------------------------------------------------------
	 Reference Energy          =     -76.0658136411041141 [Eh]
	 Singles Energy            =      -0.0000000000000000 [Eh]
	 Same-Spin Energy          =      -0.0727727857368918 [Eh]
	 Opposite-Spin Energy      =      -0.2447284846174453 [Eh]
	 Correlation Energy        =      -0.3175012703543371 [Eh]
	 Total Energy              =     -76.3833149114584558 [Eh]
	-----------------------------------------------------------
	 ================> DF-SCS-MP2 Energies <================== 
	-----------------------------------------------------------
	 SCS Same-Spin Scale       =       0.3333333333333333 [-]
	 SCS Opposite-Spin Scale   =       1.2000000000000000 [-]
	 SCS Same-Spin Energy      =      -0.0242575952456306 [Eh]
	 SCS Opposite-Spin Energy  =      -0.2936741815409344 [Eh]
	 SCS Correlation Energy    =      -0.3179317767865650 [Eh]
	 SCS Total Energy          =     -76.3837454178906796 [Eh]
	-----------------------------------------------------------


*** tstop() called on node59.bme.utexas.edu at Sat Apr 11 16:18:04 2020
Module time:
	user time   =      20.17 seconds =       0.34 minutes
	system time =       0.61 seconds =       0.01 minutes
	total time  =          5 seconds =       0.08 minutes
Total time:
	user time   =     111.12 seconds =       1.85 minutes
	system time =       3.93 seconds =       0.07 minutes
	total time  =         24 seconds =       0.40 minutes

  //>>>>>>>>>>>>>>>>>>>>>>>>>>>>>>>>>>>//
  //  CBS Results: mp2/aug-cc-pv[tq]z  //
  //<<<<<<<<<<<<<<<<<<<<<<<<<<<<<<<<<<<//


   ==> HF <==

   HI-zeta (4) Energy:               -76.065813641104


   ==> Helgaker 2-point correlated extrapolation for method: MP2 <==

   LO-zeta (3) Energy:               -76.345168093043
   HI-zeta (4) Energy:               -76.383314911458
   Alpha (exponent) Value:             3.000000000000
   Extrapolated Energy:              -76.411151778951

   @Extrapolated MP2/(T,Q):          -76.411151778951



   ==> Helgaker 2-point correlated extrapolation for method: HF <==

   LO-zeta (3) Energy:               -76.060499193122
   HI-zeta (4) Energy:               -76.065813641104
   Alpha (exponent) Value:             3.000000000000
   Extrapolated Energy:              -76.069691751794

   @Extrapolated HF/(T,Q):           -76.069691751794


   ==> Components <==

  ---------------------------------------------------------------------------------------------------------
                          Method / Basis                      Rqd      Energy [Eh]   Variable
  ---------------------------------------------------------------------------------------------------------
                              hf / aug-cc-pvtz                  *     -76.06049919   HF TOTAL ENERGY
                             mp2 / aug-cc-pvtz                  *     -76.34516809   MP2 TOTAL ENERGY
                              hf / aug-cc-pvqz                  *     -76.06581364   HF TOTAL ENERGY
                             mp2 / aug-cc-pvqz                  *     -76.38331491   MP2 TOTAL ENERGY
  ---------------------------------------------------------------------------------------------------------

   ==> Stages <==

  ---------------------------------------------------------------------------------------------------------
      Stage               Method / Basis                       Wt      Energy [Eh]   Scheme
  ---------------------------------------------------------------------------------------------------------
        scf                   hf / aug-cc-pvqz                  1     -76.06581364   xtpl_highest_1
       corl                  mp2 / aug-cc-pv[tq]z               1     -76.41115178   corl_xtpl_helgaker_2
       corl                   hf / aug-cc-pv[tq]z              -1     -76.06969175   corl_xtpl_helgaker_2
  ---------------------------------------------------------------------------------------------------------

   ==> CBS <==

  ---------------------------------------------------------------------------------------------------------
      Stage               Method / Basis                               Energy [Eh]   Scheme
  ---------------------------------------------------------------------------------------------------------
        scf                   hf / aug-cc-pvqz                        -76.06581364   xtpl_highest_1
       corl                  mp2 / aug-cc-pv[tq]z                      -0.34146003   corl_xtpl_helgaker_2
      total                  CBS                                      -76.40727367   
  ---------------------------------------------------------------------------------------------------------
   => Loading Basis Set <=

    Name: DEF2-SVP
    Role: ORBITAL
    Keyword: BASIS
    atoms 1        entry C          line    90 file /home/liuchw/anaconda3/envs/psi4env/share/psi4/basis/def2-svp.gbs 
    atoms 2        entry S          line   328 file /home/liuchw/anaconda3/envs/psi4env/share/psi4/basis/def2-svp.gbs 
    atoms 3-6, 8-9 entry H          line    15 file /home/liuchw/anaconda3/envs/psi4env/share/psi4/basis/def2-svp.gbs 
    atoms 7        entry O          line   130 file /home/liuchw/anaconda3/envs/psi4env/share/psi4/basis/def2-svp.gbs 


       N-Body: Complex Energy (fragments = (2,), basis = (1, 2):   -76.40727366826114)

       N-Body: Computing complex (3/4) with fragments (1,) in the basis of fragments (1, 2).


Scratch directory: /scratch//

  //>>>>>>>>>>>>>>>>>>>>>>>>>>>>>>>>>>>//
  //   CBS Setup: mp2/aug-cc-pv[tq]z   //
  //<<<<<<<<<<<<<<<<<<<<<<<<<<<<<<<<<<<//

    Naive listing of computations required.
             hf / aug-cc-pvqz              for  HF TOTAL ENERGY
            mp2 / aug-cc-pvtz              for  MP2 TOTAL ENERGY
            mp2 / aug-cc-pvqz              for  MP2 TOTAL ENERGY
             hf / aug-cc-pvtz              for  HF TOTAL ENERGY
             hf / aug-cc-pvqz              for  HF TOTAL ENERGY

    Enlightened listing of computations required.
            mp2 / aug-cc-pvtz              for  MP2 TOTAL ENERGY
            mp2 / aug-cc-pvqz              for  MP2 TOTAL ENERGY

    Full listing of computations to be obtained (required and bonus).
             hf / aug-cc-pvtz              for  HF TOTAL ENERGY
            mp2 / aug-cc-pvtz              for  MP2 TOTAL ENERGY
             hf / aug-cc-pvqz              for  HF TOTAL ENERGY
            mp2 / aug-cc-pvqz              for  MP2 TOTAL ENERGY

  //>>>>>>>>>>>>>>>>>>>>>>>>>>>>>>>>>>>>//
  // CBS Computation: MP2 / AUG-CC-PVTZ //
  //<<<<<<<<<<<<<<<<<<<<<<<<<<<<<<<<<<<<//


Scratch directory: /scratch//

*** tstart() called on node59.bme.utexas.edu
*** at Sat Apr 11 16:18:05 2020

   => Loading Basis Set <=

    Name: AUG-CC-PVTZ
    Role: ORBITAL
    Keyword: BASIS
    atoms 1        entry C          line   239 file /home/liuchw/anaconda3/envs/psi4env/share/psi4/basis/aug-cc-pvtz.gbs 
    atoms 2        entry S          line   906 file /home/liuchw/anaconda3/envs/psi4env/share/psi4/basis/aug-cc-pvtz.gbs 
    atoms 3-6, 8-9 entry H          line    40 file /home/liuchw/anaconda3/envs/psi4env/share/psi4/basis/aug-cc-pvtz.gbs 
    atoms 7        entry O          line   331 file /home/liuchw/anaconda3/envs/psi4env/share/psi4/basis/aug-cc-pvtz.gbs 


         ---------------------------------------------------------
                                   SCF
               by Justin Turney, Rob Parrish, Andy Simmonett
[...]
      67A      0.390416    68A      0.392258    69A      0.411068  
      70A      0.412182    71A      0.428481    72A      0.473328  
      73A      0.490196    74A      0.502907    75A      0.508411  
      76A      0.514969    77A      0.516485    78A      0.519427  
      79A      0.541769    80A      0.545286    81A      0.551534  
      82A      0.559031    83A      0.586427    84A      0.593007  
      85A      0.605420    86A      0.613410    87A      0.634725  
      88A      0.636281    89A      0.636959    90A      0.657300  
      91A      0.660097    92A      0.665874    93A      0.672060  
      94A      0.678343    95A      0.688241    96A      0.693234  
      97A      0.701491    98A      0.704340    99A      0.706539  
     100A      0.713170   101A      0.720887   102A      0.724473  
     103A      0.736224   104A      0.745522   105A      0.748046  
     106A      0.757980   107A      0.760144   108A      0.773033  
     109A      0.782266   110A      0.788627   111A      0.798295  
     112A      0.803943   113A      0.804200   114A      0.806648  
     115A      0.813271   116A      0.815385   117A      0.829355  
     118A      0.835418   119A      0.839578   120A      0.853335  
     121A      0.868321   122A      0.874145   123A      0.888491  
     124A      0.905897   125A      0.915049   126A      0.926522  
     127A      0.928437   128A      0.954697   129A      0.955506  
     130A      0.965718   131A      0.998386   132A      1.007409  
     133A      1.035218   134A      1.038151   135A      1.072215  
     136A      1.076790   137A      1.106457   138A      1.135502  
     139A      1.137314   140A      1.140793   141A      1.146459  
     142A      1.174187   143A      1.177649   144A      1.182252  
     145A      1.196915   146A      1.208237   147A      1.223215  
     148A      1.236598   149A      1.255395   150A      1.269941  
     151A      1.318907   152A      1.338636   153A      1.352201  
     154A      1.407676   155A      1.411407   156A      1.421732  
     157A      1.448128   158A      1.464870   159A      1.490198  
     160A      1.491031   161A      1.497301   162A      1.511113  
     163A      1.516748   164A      1.518259   165A      1.518510  
     166A      1.537195   167A      1.550524   168A      1.560948  
     169A      1.568283   170A      1.592634   171A      1.595858  
     172A      1.618527   173A      1.625766   174A      1.630118  
     175A      1.635230   176A      1.645548   177A      1.663965  
     178A      1.670205   179A      1.672564   180A      1.685438  
     181A      1.688995   182A      1.696051   183A      1.700337  
     184A      1.707626   185A      1.727078   186A      1.729952  
     187A      1.741610   188A      1.752349   189A      1.752536  
     190A      1.772052   191A      1.782286   192A      1.815788  
     193A      1.815861   194A      1.825710   195A      1.830426  
     196A      1.832405   197A      1.844007   198A      1.854695  
     199A      1.869289   200A      1.876855   201A      1.889912  
     202A      1.892759   203A      1.895506   204A      1.907418  
     205A      1.921695   206A      1.932698   207A      1.945360  
     208A      1.950266   209A      1.971741   210A      1.980176  
     211A      1.981655   212A      1.982243   213A      2.001519  
     214A      2.004617   215A      2.008110   216A      2.015606  
     217A      2.025191   218A      2.037551   219A      2.044037  
     220A      2.056637   221A      2.063102   222A      2.077864  
     223A      2.094769   224A      2.124740   225A      2.150298  
     226A      2.152558   227A      2.159326   228A      2.166561  
     229A      2.186970   230A      2.203806   231A      2.216743  
     232A      2.227327   233A      2.240406   234A      2.252967  
     235A      2.260100   236A      2.282725   237A      2.312417  
     238A      2.317778   239A      2.326170   240A      2.342255  
     241A      2.346974   242A      2.362686   243A      2.400254  
     244A      2.415283   245A      2.430725   246A      2.438241  
     247A      2.449044   248A      2.499081   249A      2.571690  
     250A      2.579555   251A      2.610664   252A      2.625282  
     253A      2.637193   254A      2.643241   255A      2.665943  
     256A      2.743981   257A      2.753355   258A      2.792014  
     259A      2.804139   260A      2.820900   261A      2.837053  
     262A      2.858784   263A      2.863852   264A      2.885221  
     265A      2.921541   266A      2.963302   267A      3.003239  
     268A      3.005565   269A      3.016713   270A      3.035862  
     271A      3.047826   272A      3.048491   273A      3.069254  
     274A      3.083993   275A      3.089115   276A      3.091484  
     277A      3.098027   278A      3.119329   279A      3.137341  
     280A      3.192603   281A      3.222679   282A      3.261408  
     283A      3.266133   284A      3.274976   285A      3.303634  
     286A      3.308768   287A      3.318989   288A      3.321774  
     289A      3.414246   290A      3.484614   291A      3.492785  
     292A      3.529557   293A      3.536953   294A      3.582293  
     295A      3.605652   296A      3.638985   297A      3.640953  
     298A      3.658179   299A      3.696481   300A      3.718616  
     301A      3.736454   302A      3.742549   303A      3.756056  
     304A      3.776270   305A      3.782243   306A      3.791173  
     307A      3.815476   308A      3.839856   309A      3.849716  
     310A      3.870820   311A      3.901988   312A      3.931098  
     313A      3.943290   314A      3.986258   315A      4.006086  
     316A      4.010217   317A      4.022921   318A      4.063600  
     319A      4.077051   320A      4.079823   321A      4.118124  
     322A      4.124909   323A      4.140014   324A      4.157154  
     325A      4.164855   326A      4.172401   327A      4.176340  
     328A      4.178368   329A      4.185930   330A      4.208037  
     331A      4.234072   332A      4.270334   333A      4.285530  
     334A      4.337594   335A      4.346629   336A      4.359542  
     337A      4.370069   338A      4.440971   339A      4.482767  
     340A      4.529680   341A      4.537611   342A      4.565070  
     343A      4.583356   344A      4.583659   345A      4.677818  
     346A      4.712595   347A      4.727405   348A      4.752211  
     349A      4.773054   350A      4.775905   351A      4.777864  
     352A      4.798013   353A      4.810886   354A      4.820230  
     355A      4.876808   356A      4.914106   357A      4.963430  
     358A      4.989747   359A      5.003168   360A      5.063583  
     361A      5.126199   362A      5.239591   363A      5.249521  
     364A      5.317421   365A      5.531223   366A      5.547696  
     367A      5.858519   368A      5.888412   369A      6.076804  
     370A      6.124667   371A      6.161039   372A      6.230318  
     373A      6.253703   374A      6.283940   375A      6.322067  
     376A      6.380170   377A      6.388653   378A      6.436524  
     379A      6.601442   380A      6.619758   381A      6.730335  
     382A      6.738007   383A      6.750844   384A      6.753315  
     385A      6.783417   386A      6.803384   387A      6.829398  
     388A      6.875845   389A      6.883815   390A      6.888266  
     391A      6.911352   392A      6.930106   393A      6.961857  
     394A      6.994854   395A      6.996400   396A      7.067628  
     397A      7.084728   398A      7.126461   399A      7.141715  
     400A      7.184839   401A      7.218210   402A      7.222774  
     403A      7.321680   404A      7.333555   405A      7.478138  
     406A      7.556660   407A      7.577812   408A      7.607330  
     409A      7.660374   410A      7.685319   411A      7.730167  
     412A      7.741274   413A      7.755280   414A      7.776507  
     415A      7.787089   416A      7.793692   417A      7.820540  
     418A      7.824518   419A      7.837256   420A      7.905795  
     421A      7.927611   422A      7.945928   423A      7.952895  
     424A      7.984946   425A      8.027757   426A      8.171765  
     427A      8.198934   428A      8.316508   429A      8.323161  
     430A      8.348345   431A      8.395616   432A      8.407794  
     433A      8.443637   434A      8.520951   435A      8.530647  
     436A      8.625734   437A      8.645506   438A      8.649335  
     439A      8.663025   440A      8.698689   441A      8.711431  
     442A      8.757148   443A      8.790579   444A      8.848991  
     445A      8.853926   446A      8.888385   447A      8.945528  
     448A      8.983163   449A      8.984256   450A      9.040483  
     451A      9.044181   452A      9.068608   453A      9.205793  
     454A      9.220789   455A      9.235163   456A      9.255540  
     457A      9.256339   458A      9.375175   459A      9.430465  
     460A      9.465256   461A      9.548946   462A      9.565653  
     463A      9.573651   464A      9.640606   465A      9.668486  
     466A      9.753949   467A      9.789562   468A      9.868014  
     469A      9.913726   470A      9.917002   471A      9.951108  
     472A      9.989706   473A     10.034152   474A     10.038811  
     475A     10.153286   476A     10.188712   477A     10.327073  
     478A     10.404266   479A     10.416838   480A     10.455926  
     481A     10.463820   482A     10.700892   483A     10.812440  
     484A     10.818454   485A     10.930653   486A     11.028574  
     487A     11.050705   488A     11.055512   489A     11.079955  
     490A     11.089217   491A     11.125185   492A     11.280143  
     493A     11.307894   494A     11.418973   495A     11.474217  
     496A     11.712877   497A     11.795312   498A     11.829852  
     499A     11.989781   500A     12.200898   501A     12.206021  
     502A     12.628313   503A     12.746615   504A     12.833681  
     505A     12.905927   506A     13.176026   507A     13.219137  
     508A     13.224795   509A     13.340882   510A     14.001475  
     511A     14.025284   512A     14.509364   513A     14.806625  
     514A     14.904200   515A     15.258577   516A     16.865475  
     517A     17.295670   518A     21.878293   519A     28.611804  
     520A     45.550188  

    Final Occupation by Irrep:
              A 
    DOCC [    18 ]

  @DF-RHF Final Energy:  -513.83069713212478

   => Energetics <=

    Nuclear Repulsion Energy =             89.2000455189371309
    One-Electron Energy =                -885.6981106311363874
    Two-Electron Energy =                 282.6673679800744594
    Total Energy =                       -513.8306971321247829

Computation Completed


Properties will be evaluated at   0.000000,   0.000000,   0.000000 [a0]

Properties computed using the SCF density matrix

  Nuclear Dipole Moment: [e a0]
     X:     3.0843      Y:     3.8990      Z:    -0.7616

  Electronic Dipole Moment: [e a0]
     X:    -2.1187      Y:    -3.4454      Z:     0.6881

  Dipole Moment: [e a0]
     X:     0.9656      Y:     0.4537      Z:    -0.0735     Total:     1.0694

  Dipole Moment: [D]
     X:     2.4542      Y:     1.1531      Z:    -0.1868     Total:     2.7181


*** tstop() called on node95.bme.utexas.edu at Thu Apr 23 18:30:59 2020
Module time:
	user time   =      59.57 seconds =       0.99 minutes
	system time =       1.50 seconds =       0.03 minutes
	total time  =          9 seconds =       0.15 minutes
Total time:
	user time   =     397.54 seconds =       6.63 minutes
	system time =      10.67 seconds =       0.18 minutes
	total time  =         65 seconds =       1.08 minutes

*** tstart() called on node95.bme.utexas.edu
*** at Thu Apr 23 18:30:59 2020


  //>>>>>>>>>>>>>>>>>>>>>>>>>>>>>>>>>>>//
  //               DFMP2               //
  //<<<<<<<<<<<<<<<<<<<<<<<<<<<<<<<<<<<//

   => Loading Basis Set <=

    Name: (AUG-CC-PVQZ AUX)
    Role: RIFIT
    Keyword: DF_BASIS_MP2
    atoms 1        entry C          line   184 file /home/liuchw/anaconda3/envs/psi4env/share/psi4/basis/aug-cc-pvqz-ri.gbs 
    atoms 2        entry S          line   824 file /home/liuchw/anaconda3/envs/psi4env/share/psi4/basis/aug-cc-pvqz-ri.gbs 
    atoms 3-6, 8-9 entry H          line    30 file /home/liuchw/anaconda3/envs/psi4env/share/psi4/basis/aug-cc-pvqz-ri.gbs 
    atoms 7        entry O          line   332 file /home/liuchw/anaconda3/envs/psi4env/share/psi4/basis/aug-cc-pvqz-ri.gbs 

	 --------------------------------------------------------
	                          DF-MP2                         
	      2nd-Order Density-Fitted Moller-Plesset Theory     
	              RMP2 Wavefunction,   8 Threads             
	                                                         
	        Rob Parrish, Justin Turney, Andy Simmonett,      
	           Ed Hohenstein, and C. David Sherrill          
	 --------------------------------------------------------

   => Auxiliary Basis Set <=

  Basis Set: (AUG-CC-PVQZ AUX)
    Blend: AUG-CC-PVQZ-RI
    Number of shells: 236
    Number of basis function: 1010
    Number of Cartesian functions: 1372
    Spherical Harmonics?: true
    Max angular momentum: 5

	 --------------------------------------------------------
	                 NBF =   520, NAUX =  1010
	 --------------------------------------------------------
	   CLASS    FOCC     OCC    AOCC    AVIR     VIR    FVIR
	   PAIRS       0      18      18     502     502       0
	 --------------------------------------------------------

	-----------------------------------------------------------
	 ==================> DF-MP2 Energies <==================== 
	-----------------------------------------------------------
	 Reference Energy          =    -513.8306971321247829 [Eh]
	 Singles Energy            =      -0.0000000000000000 [Eh]
	 Same-Spin Energy          =      -0.1761250935630569 [Eh]
	 Opposite-Spin Energy      =      -0.6237711313848431 [Eh]
	 Correlation Energy        =      -0.7998962249479000 [Eh]
	 Total Energy              =    -514.6305933570727120 [Eh]
	-----------------------------------------------------------
	 ================> DF-SCS-MP2 Energies <================== 
	-----------------------------------------------------------
	 SCS Same-Spin Scale       =       0.3333333333333333 [-]
	 SCS Opposite-Spin Scale   =       1.2000000000000000 [-]
	 SCS Same-Spin Energy      =      -0.0587083645210190 [Eh]
	 SCS Opposite-Spin Energy  =      -0.7485253576618117 [Eh]
	 SCS Correlation Energy    =      -0.8072337221828307 [Eh]
	 SCS Total Energy          =    -514.6379308543075695 [Eh]
	-----------------------------------------------------------


*** tstop() called on node95.bme.utexas.edu at Thu Apr 23 18:31:04 2020
Module time:
	user time   =      30.14 seconds =       0.50 minutes
	system time =       0.77 seconds =       0.01 minutes
	total time  =          5 seconds =       0.08 minutes
Total time:
	user time   =     427.69 seconds =       7.13 minutes
	system time =      11.44 seconds =       0.19 minutes
	total time  =         70 seconds =       1.17 minutes

  //>>>>>>>>>>>>>>>>>>>>>>>>>>>>>>>>>>>//
  //  CBS Results: mp2/aug-cc-pv[tq]z  //
  //<<<<<<<<<<<<<<<<<<<<<<<<<<<<<<<<<<<//


   ==> HF <==

   HI-zeta (4) Energy:               -513.830697132125


   ==> Helgaker 2-point correlated extrapolation for method: MP2 <==

   LO-zeta (3) Energy:               -514.531064468206
   HI-zeta (4) Energy:               -514.630593357073
   Alpha (exponent) Value:             3.000000000000
   Extrapolated Energy:              -514.703222546246

   @Extrapolated MP2/(T,Q):          -514.703222546246



   ==> Helgaker 2-point correlated extrapolation for method: HF <==

   LO-zeta (3) Energy:               -513.818678122344
   HI-zeta (4) Energy:               -513.830697132125
   Alpha (exponent) Value:             3.000000000000
   Extrapolated Energy:              -513.839467760883

   @Extrapolated HF/(T,Q):           -513.839467760883


   ==> Components <==

  ---------------------------------------------------------------------------------------------------------
                          Method / Basis                      Rqd      Energy [Eh]   Variable
  ---------------------------------------------------------------------------------------------------------
                              hf / aug-cc-pvtz                  *    -513.81867812   HF TOTAL ENERGY
                             mp2 / aug-cc-pvtz                  *    -514.53106447   MP2 TOTAL ENERGY
                              hf / aug-cc-pvqz                  *    -513.83069713   HF TOTAL ENERGY
                             mp2 / aug-cc-pvqz                  *    -514.63059336   MP2 TOTAL ENERGY
  ---------------------------------------------------------------------------------------------------------

   ==> Stages <==

  ---------------------------------------------------------------------------------------------------------
      Stage               Method / Basis                       Wt      Energy [Eh]   Scheme
  ---------------------------------------------------------------------------------------------------------
        scf                   hf / aug-cc-pvqz                  1    -513.83069713   xtpl_highest_1
       corl                  mp2 / aug-cc-pv[tq]z               1    -514.70322255   corl_xtpl_helgaker_2
       corl                   hf / aug-cc-pv[tq]z              -1    -513.83946776   corl_xtpl_helgaker_2
  ---------------------------------------------------------------------------------------------------------

   ==> CBS <==

  ---------------------------------------------------------------------------------------------------------
      Stage               Method / Basis                               Energy [Eh]   Scheme
  ---------------------------------------------------------------------------------------------------------
        scf                   hf / aug-cc-pvqz                       -513.83069713   xtpl_highest_1
       corl                  mp2 / aug-cc-pv[tq]z                      -0.86375479   corl_xtpl_helgaker_2
      total                  CBS                                     -514.69445192   
  ---------------------------------------------------------------------------------------------------------
   => Loading Basis Set <=

    Name: DEF2-SVP
    Role: ORBITAL
    Keyword: BASIS
    atoms 1        entry C          line    90 file /home/liuchw/anaconda3/envs/psi4env/share/psi4/basis/def2-svp.gbs 
    atoms 2        entry S          line   328 file /home/liuchw/anaconda3/envs/psi4env/share/psi4/basis/def2-svp.gbs 
    atoms 3-6, 8-9 entry H          line    15 file /home/liuchw/anaconda3/envs/psi4env/share/psi4/basis/def2-svp.gbs 
    atoms 7        entry O          line   130 file /home/liuchw/anaconda3/envs/psi4env/share/psi4/basis/def2-svp.gbs 


       N-Body: Complex Energy (fragments = (1, 2), basis = (1, 2):  -514.69445191748730)

   ==> N-Body: Counterpoise Corrected (CP) energies <==

   n-Body     Total Energy [Eh]       I.E. [kcal/mol]      Delta [kcal/mol]
        1     -514.693697608831        0.000000000000        0.000000000000
        2     -514.694448946835       -0.471471715640       -0.471471715640

   => Loading Basis Set <=

    Name: DEF2-SVP
    Role: ORBITAL
    Keyword: BASIS
    atoms 1        entry C          line    90 file /home/liuchw/anaconda3/envs/psi4env/share/psi4/basis/def2-svp.gbs 
    atoms 2        entry S          line   328 file /home/liuchw/anaconda3/envs/psi4env/share/psi4/basis/def2-svp.gbs 
    atoms 3-6, 8-9 entry H          line    15 file /home/liuchw/anaconda3/envs/psi4env/share/psi4/basis/def2-svp.gbs 
    atoms 7        entry O          line   130 file /home/liuchw/anaconda3/envs/psi4env/share/psi4/basis/def2-svp.gbs 


    Psi4 stopped on: Thursday, 23 April 2020 06:31PM
    Psi4 wall time for execution: 0:01:10.51

*** Psi4 exiting successfully. Buy a developer a beer!
