
    -----------------------------------------------------------------------
          Psi4: An Open-Source Ab Initio Electronic Structure Package
                               Psi4 1.4a2.dev224 

                         Git: Rev {master} e453b16 


    R. M. Parrish, L. A. Burns, D. G. A. Smith, A. C. Simmonett,
    A. E. DePrince III, E. G. Hohenstein, U. Bozkaya, A. Yu. Sokolov,
    R. Di Remigio, R. M. Richard, J. F. Gonthier, A. M. James,
    H. R. McAlexander, A. Kumar, M. Saitow, X. Wang, B. P. Pritchard,
    P. Verma, H. F. Schaefer III, K. Patkowski, R. A. King, E. F. Valeev,
    F. A. Evangelista, J. M. Turney, T. D. Crawford, and C. D. Sherrill,
    J. Chem. Theory Comput. 13(7) pp 3185--3197 (2017).
    (doi: 10.1021/acs.jctc.7b00174)


                         Additional Contributions by
    P. Kraus, H. Kruse, M. H. Lechner, M. C. Schieber, R. A. Shaw,
    A. Alenaizan, R. Galvelis, Z. L. Glick, S. Lehtola, and J. P. Misiewicz

    -----------------------------------------------------------------------


    Psi4 started on: Saturday, 11 April 2020 04:33PM

    Process ID: 20798
    Host:       node37.bme.utexas.edu
    PSIDATADIR: /home/liuchw/anaconda3/envs/psi4env/share/psi4
    Memory:     500.0 MiB
    Threads:    6
    
  ==> Input File <==

--------------------------------------------------------------------------
#Generated by lconvert.py for cbs job

memory 40 GB

molecule  {
0 1
  C        0.7948210    -0.0027360    -0.4136000
  S        0.7802790     1.8084980    -0.2820150
  H        1.1986090     1.8743000     0.9851210
  H        0.0538160    -0.4488100     0.2435360
  H        0.5412540    -0.2325420    -1.4449730
  H        1.7824700    -0.4000990    -0.2035800
--
0 1
  C       -2.6753890     0.4849610    -0.7258150
  S       -2.3391790     0.5827880     1.0547860
  H       -1.3277110     1.4529160     0.9493210
  H       -1.8123720     0.1112940    -1.2686880
  H       -2.9736540     1.4505510    -1.1211390
  H       -3.4970840    -0.2151620    -0.8481680
units angstrom
no_reorient
symmetry c1
}

set {
scf_type DF
mp2_type DF
e_convergence 7
reference rhf
}

energy('mp2/aug-cc-pv[tq]z', bsse_type='cp')
--------------------------------------------------------------------------

  Memory set to  37.253 GiB by Python driver.

Scratch directory: /scratch//


   ===> N-Body Interaction Abacus <===
        BSSE Treatment:                     cp
        Number of 1-body computations:     4
        Number of 2-body computations:     1

   ==> N-Body: Now computing 1-body complexes <==


       N-Body: Computing complex (1/4) with fragments (2,) in the basis of fragments (2,).


Scratch directory: /scratch//

  //>>>>>>>>>>>>>>>>>>>>>>>>>>>>>>>>>>>//
  //   CBS Setup: mp2/aug-cc-pv[tq]z   //
  //<<<<<<<<<<<<<<<<<<<<<<<<<<<<<<<<<<<//

    Naive listing of computations required.
             hf / aug-cc-pvqz              for  HF TOTAL ENERGY
            mp2 / aug-cc-pvtz              for  MP2 TOTAL ENERGY
            mp2 / aug-cc-pvqz              for  MP2 TOTAL ENERGY
             hf / aug-cc-pvtz              for  HF TOTAL ENERGY
             hf / aug-cc-pvqz              for  HF TOTAL ENERGY

    Enlightened listing of computations required.
            mp2 / aug-cc-pvtz              for  MP2 TOTAL ENERGY
            mp2 / aug-cc-pvqz              for  MP2 TOTAL ENERGY

    Full listing of computations to be obtained (required and bonus).
             hf / aug-cc-pvtz              for  HF TOTAL ENERGY
            mp2 / aug-cc-pvtz              for  MP2 TOTAL ENERGY
             hf / aug-cc-pvqz              for  HF TOTAL ENERGY
            mp2 / aug-cc-pvqz              for  MP2 TOTAL ENERGY

  //>>>>>>>>>>>>>>>>>>>>>>>>>>>>>>>>>>>>//
  // CBS Computation: MP2 / AUG-CC-PVTZ //
  //<<<<<<<<<<<<<<<<<<<<<<<<<<<<<<<<<<<<//


Scratch directory: /scratch//

*** tstart() called on node37.bme.utexas.edu
*** at Sat Apr 11 16:33:05 2020

   => Loading Basis Set <=

    Name: AUG-CC-PVTZ
    Role: ORBITAL
    Keyword: BASIS
    atoms 1   entry C          line   239 file /home/liuchw/anaconda3/envs/psi4env/share/psi4/basis/aug-cc-pvtz.gbs 
    atoms 2   entry S          line   906 file /home/liuchw/anaconda3/envs/psi4env/share/psi4/basis/aug-cc-pvtz.gbs 
    atoms 3-6 entry H          line    40 file /home/liuchw/anaconda3/envs/psi4env/share/psi4/basis/aug-cc-pvtz.gbs 


         ---------------------------------------------------------
                                   SCF
               by Justin Turney, Rob Parrish, Andy Simmonett
                          and Daniel G. A. Smith
                              RHF Reference
                        6 Threads,  38146 MiB Core
         ---------------------------------------------------------

  ==> Geometry <==

    Molecular point group: c1
    Full point group: C1

    Geometry (in Angstrom), charge = 0, multiplicity = 1:

       Center              X                  Y                   Z               Mass       
    ------------   -----------------  -----------------  -----------------  -----------------
         C           -1.857842553515    -0.409368115649    -0.812312516117    12.000000000000
         S           -1.521632553515    -0.311541115649     0.968288483883    31.972071174400
         H           -0.510164553515     0.558586884351     0.862823483883     1.007825032230
         H           -0.994825553515    -0.783035115649    -1.355185516117     1.007825032230
         H           -2.156107553515     0.556221884351    -1.207636516117     1.007825032230
         H           -2.679537553515    -1.109491115649    -0.934665516117     1.007825032230

  Running in c1 symmetry.

  Rotational constants: A =      0.42884  B =      0.11892  C =      0.09520 [cm^-1]
  Rotational constants: A =  12856.23489  B =   3565.15873  C =   2853.97420 [MHz]
  Nuclear repulsion =   56.451077585270944

  Charge       = 0
  Multiplicity = 1
  Electrons    = 26
  Nalpha       = 13
  Nbeta        = 13

  ==> Algorithm <==

  SCF Algorithm Type is DF.
  DIIS enabled.
  MOM disabled.
  Fractional occupation disabled.
  Guess Type is SAD.
  Energy threshold   = 1.00e-07
  Density threshold  = 1.00e-08
  Integral threshold = 0.00e+00

  ==> Primary Basis <==

  Basis Set: AUG-CC-PVTZ
    Blend: AUG-CC-PVTZ
    Number of shells: 66
    Number of basis function: 188
    Number of Cartesian functions: 214
    Spherical Harmonics?: true
    Max angular momentum: 3

   => Loading Basis Set <=

    Name: (AUG-CC-PVTZ AUX)
    Role: JKFIT
    Keyword: DF_BASIS_SCF
    atoms 1   entry C          line   162 file /home/liuchw/anaconda3/envs/psi4env/share/psi4/basis/aug-cc-pvtz-jkfit.gbs 
    atoms 2   entry S          line   730 file /home/liuchw/anaconda3/envs/psi4env/share/psi4/basis/aug-cc-pvtz-jkfit.gbs 
    atoms 3-6 entry H          line    70 file /home/liuchw/anaconda3/envs/psi4env/share/psi4/basis/aug-cc-pvtz-jkfit.gbs 

  ==> Pre-Iterations <==

   -------------------------------------------------------
    Irrep   Nso     Nmo     Nalpha   Nbeta   Ndocc  Nsocc
   -------------------------------------------------------
     A        188     188       0       0       0       0
   -------------------------------------------------------
    Total     188     188      13      13      13       0
   -------------------------------------------------------

  ==> Integral Setup <==

  DFHelper Memory: AOs need 0.124 GiB; user supplied 27.940 GiB. Using in-core AOs.

  ==> MemDFJK: Density-Fitted J/K Matrices <==

    J tasked:                   Yes
    K tasked:                   Yes
    wK tasked:                   No
    OpenMP threads:               6
    Memory [MiB]:             28610
    Algorithm:                 Core
    Schwarz Cutoff:           1E-12
    Mask sparsity (%):       0.0000
    Fitting Condition:        1E-10

   => Auxiliary Basis Set <=

  Basis Set: (AUG-CC-PVTZ AUX)
    Blend: AUG-CC-PVTZ-JKFIT
    Number of shells: 128
    Number of basis function: 434
    Number of Cartesian functions: 531
    Spherical Harmonics?: true
    Max angular momentum: 4

  Minimum eigenvalue in the overlap matrix is 6.8966459799E-05.
  Using Symmetric Orthogonalization.

  SCF Guess: Superposition of Atomic Densities via on-the-fly atomic UHF.

  ==> Iterations <==

                           Total Energy        Delta E     RMS |[F,P]|

   @DF-RHF iter SAD:  -437.28555097456228   -4.37286e+02   0.00000e+00 
   @DF-RHF iter   1:  -437.69176024210361   -4.06209e-01   1.69285e-03 DIIS
   @DF-RHF iter   2:  -437.74692433223908   -5.51641e-02   6.97748e-04 DIIS
   @DF-RHF iter   3:  -437.75629593612700   -9.37160e-03   1.68728e-04 DIIS
   @DF-RHF iter   4:  -437.75740462235393   -1.10869e-03   4.56212e-05 DIIS
   @DF-RHF iter   5:  -437.75749021238835   -8.55900e-05   1.07787e-05 DIIS
   @DF-RHF iter   6:  -437.75749626379405   -6.05141e-06   2.93714e-06 DIIS
   @DF-RHF iter   7:  -437.75749678608156   -5.22288e-07   8.42017e-07 DIIS
   @DF-RHF iter   8:  -437.75749683138258   -4.53010e-08   1.61836e-07 DIIS
   @DF-RHF iter   9:  -437.75749683314058   -1.75800e-09   2.88363e-08 DIIS
   @DF-RHF iter  10:  -437.75749683319373   -5.31486e-11   6.48609e-09 DIIS
  Energy and wave function converged.


  ==> Post-Iterations <==

    Orbital Energies [Eh]
    ---------------------

    Doubly Occupied:                                                      

       1A    -91.953524     2A    -11.257077     3A     -8.954691  
       4A     -6.636071     5A     -6.635074     6A     -6.633988  
       7A     -1.038828     8A     -0.867047     9A     -0.609326  
      10A     -0.592818    11A     -0.527082    12A     -0.461410  
      13A     -0.357324  

    Virtual:                                                              

      14A      0.029396    15A      0.040898    16A      0.046991  
      17A      0.051139    18A      0.084951    19A      0.097826  
      20A      0.115305    21A      0.116427    22A      0.133174  
      23A      0.135788    24A      0.139318    25A      0.175560  
      26A      0.197179    27A      0.211370    28A      0.218580  
      29A      0.245730    30A      0.262952    31A      0.269545  
      32A      0.287324    33A      0.288157    34A      0.321100  
      35A      0.332508    36A      0.333474    37A      0.343830  
      38A      0.369758    39A      0.379737    40A      0.390378  
      41A      0.391203    42A      0.406822    43A      0.408394  
      44A      0.418381    45A      0.431805    46A      0.439765  
      47A      0.439956    48A      0.451992    49A      0.462044  
      50A      0.482487    51A      0.497389    52A      0.499181  
      53A      0.635473    54A      0.637381    55A      0.660306  
      56A      0.677092    57A      0.692716    58A      0.709074  
      59A      0.729771    60A      0.769903    61A      0.800201  
      62A      0.817143    63A      0.838112    64A      0.846074  
      65A      0.858799    66A      0.868167    67A      0.869644  
      68A      0.893775    69A      0.915416    70A      0.938247  
      71A      0.943795    72A      0.959948    73A      0.976351  
      74A      0.983316    75A      0.994262    76A      1.017667  
      77A      1.023814    78A      1.032371    79A      1.075438  
      80A      1.080022    81A      1.087759    82A      1.097110  
      83A      1.111270    84A      1.124839    85A      1.167106  
      86A      1.174699    87A      1.202334    88A      1.216926  
      89A      1.252264    90A      1.272916    91A      1.303494  
      92A      1.312094    93A      1.340642    94A      1.353198  
      95A      1.390268    96A      1.397951    97A      1.477646  
      98A      1.572405    99A      1.587048   100A      1.615690  
     101A      1.636480   102A      1.639991   103A      1.657774  
     104A      1.672349   105A      1.687258   106A      1.693426  
     107A      1.711125   108A      1.743846   109A      1.757252  
     110A      1.803162   111A      1.889126   112A      1.931529  
     113A      1.943112   114A      1.994169   115A      2.016842  
     116A      2.069821   117A      2.136372   118A      2.150270  
     119A      2.181426   120A      2.189078   121A      2.211612  
     122A      2.288030   123A      2.344283   124A      2.387389  
     125A      2.453530   126A      2.499714   127A      2.546722  
     128A      2.581181   129A      2.640101   130A      2.661005  
     131A      2.706236   132A      2.755495   133A      2.812532  
     134A      3.022124   135A      3.062036   136A      3.081081  
     137A      3.349782   138A      3.354186   139A      3.514725  
     140A      3.527327   141A      3.579097   142A      3.592162  
     143A      3.594529   144A      3.612437   145A      3.649348  
     146A      3.771356   147A      3.793431   148A      3.924025  
     149A      3.934992   150A      4.000342   151A      4.004709  
     152A      4.078576   153A      4.101414   154A      4.116857  
     155A      4.128230   156A      4.174963   157A      4.197754  
     158A      4.239294   159A      4.366878   160A      4.438385  
     161A      4.473278   162A      4.483212   163A      4.503589  
     164A      4.550899   165A      4.558282   166A      4.661013  
     167A      4.747674   168A      4.758416   169A      4.802752  
     170A      4.904786   171A      4.915441   172A      4.963780  
     173A      4.998596   174A      5.152207   175A      5.177573  
     176A      5.247316   177A      5.314149   178A      5.551800  
     179A      5.573037   180A      5.583484   181A      5.610211  
     182A      5.966141   183A      6.076909   184A      6.086063  
     185A      6.617248   186A      6.656502   187A      7.680074  
     188A     16.978512  

    Final Occupation by Irrep:
              A 
    DOCC [    13 ]

  @DF-RHF Final Energy:  -437.75749683319373

   => Energetics <=

    Nuclear Repulsion Energy =             56.4510775852709443
    One-Electron Energy =                -715.3686262529557780
    Two-Electron Energy =                 221.1600518344911563
    Total Energy =                       -437.7574968331937271

Computation Completed


Properties will be evaluated at   0.000000,   0.000000,   0.000000 [a0]

Properties computed using the SCF density matrix

  Nuclear Dipole Moment: [e a0]
     X:   -79.0544      Y:   -15.5309      Z:    15.0877

  Electronic Dipole Moment: [e a0]
     X:    79.1647      Y:    15.6908      Z:   -15.7161

  Dipole Moment: [e a0]
     X:     0.1103      Y:     0.1599      Z:    -0.6284     Total:     0.6577

  Dipole Moment: [D]
     X:     0.2803      Y:     0.4064      Z:    -1.5972     Total:     1.6717


*** tstop() called on node37.bme.utexas.edu at Sat Apr 11 16:33:08 2020
Module time:
	user time   =      10.37 seconds =       0.17 minutes
	system time =       0.72 seconds =       0.01 minutes
	total time  =          3 seconds =       0.05 minutes
Total time:
	user time   =      10.37 seconds =       0.17 minutes
	system time =       0.72 seconds =       0.01 minutes
	total time  =          3 seconds =       0.05 minutes

*** tstart() called on node37.bme.utexas.edu
*** at Sat Apr 11 16:33:08 2020


  //>>>>>>>>>>>>>>>>>>>>>>>>>>>>>>>>>>>//
  //               DFMP2               //
  //<<<<<<<<<<<<<<<<<<<<<<<<<<<<<<<<<<<//

   => Loading Basis Set <=

    Name: (AUG-CC-PVTZ AUX)
    Role: RIFIT
    Keyword: DF_BASIS_MP2
    atoms 1   entry C          line   148 file /home/liuchw/anaconda3/envs/psi4env/share/psi4/basis/aug-cc-pvtz-ri.gbs 
    atoms 2   entry S          line   666 file /home/liuchw/anaconda3/envs/psi4env/share/psi4/basis/aug-cc-pvtz-ri.gbs 
    atoms 3-6 entry H          line    30 file /home/liuchw/anaconda3/envs/psi4env/share/psi4/basis/aug-cc-pvtz-ri.gbs 

	 --------------------------------------------------------
	                          DF-MP2                         
	      2nd-Order Density-Fitted Moller-Plesset Theory     
	              RMP2 Wavefunction,   6 Threads             
	                                                         
	        Rob Parrish, Justin Turney, Andy Simmonett,      
	           Ed Hohenstein, and C. David Sherrill          
	 --------------------------------------------------------

   => Auxiliary Basis Set <=

  Basis Set: (AUG-CC-PVTZ AUX)
    Blend: AUG-CC-PVTZ-RI
    Number of shells: 121
    Number of basis function: 437
    Number of Cartesian functions: 547
    Spherical Harmonics?: true
    Max angular momentum: 4

	 --------------------------------------------------------
	                 NBF =   188, NAUX =   437
	 --------------------------------------------------------
	   CLASS    FOCC     OCC    AOCC    AVIR     VIR    FVIR
	   PAIRS       0      13      13     175     175       0
	 --------------------------------------------------------

	-----------------------------------------------------------
	 ==================> DF-MP2 Energies <==================== 
	-----------------------------------------------------------
	 Reference Energy          =    -437.7574968331937271 [Eh]
	 Singles Energy            =      -0.0000000000000000 [Eh]
	 Same-Spin Energy          =      -0.0937214438990324 [Eh]
	 Opposite-Spin Energy      =      -0.3348936048890248 [Eh]
	 Correlation Energy        =      -0.4286150487880571 [Eh]
	 Total Energy              =    -438.1861118819817875 [Eh]
	-----------------------------------------------------------
	 ================> DF-SCS-MP2 Energies <================== 
	-----------------------------------------------------------
	 SCS Same-Spin Scale       =       0.3333333333333333 [-]
	 SCS Opposite-Spin Scale   =       1.2000000000000000 [-]
	 SCS Same-Spin Energy      =      -0.0312404812996775 [Eh]
	 SCS Opposite-Spin Energy  =      -0.4018723258668297 [Eh]
	 SCS Correlation Energy    =      -0.4331128071665071 [Eh]
	 SCS Total Energy          =    -438.1906096403602078 [Eh]
	-----------------------------------------------------------


*** tstop() called on node37.bme.utexas.edu at Sat Apr 11 16:33:09 2020
Module time:
	user time   =       4.31 seconds =       0.07 minutes
	system time =       0.29 seconds =       0.00 minutes
	total time  =          1 seconds =       0.02 minutes
Total time:
	user time   =      14.68 seconds =       0.24 minutes
	system time =       1.01 seconds =       0.02 minutes
	total time  =          4 seconds =       0.07 minutes

  //>>>>>>>>>>>>>>>>>>>>>>>>>>>>>>>>>>>>//
  // CBS Computation: MP2 / AUG-CC-PVQZ //
  //<<<<<<<<<<<<<<<<<<<<<<<<<<<<<<<<<<<<//


Scratch directory: /scratch//

*** tstart() called on node37.bme.utexas.edu
*** at Sat Apr 11 16:33:09 2020

   => Loading Basis Set <=

    Name: AUG-CC-PVQZ
    Role: ORBITAL
    Keyword: BASIS
    atoms 1   entry C          line   303 file /home/liuchw/anaconda3/envs/psi4env/share/psi4/basis/aug-cc-pvqz.gbs 
    atoms 2   entry S          line  1126 file /home/liuchw/anaconda3/envs/psi4env/share/psi4/basis/aug-cc-pvqz.gbs 
    atoms 3-6 entry H          line    40 file /home/liuchw/anaconda3/envs/psi4env/share/psi4/basis/aug-cc-pvqz.gbs 


         ---------------------------------------------------------
                                   SCF
               by Justin Turney, Rob Parrish, Andy Simmonett
                          and Daniel G. A. Smith
                              RHF Reference
                        6 Threads,  38146 MiB Core
         ---------------------------------------------------------

  ==> Geometry <==

    Molecular point group: c1
    Full point group: C1

    Geometry (in Angstrom), charge = 0, multiplicity = 1:

       Center              X                  Y                   Z               Mass       
    ------------   -----------------  -----------------  -----------------  -----------------
         C           -1.857842553515    -0.409368115649    -0.812312516117    12.000000000000
         S           -1.521632553515    -0.311541115649     0.968288483883    31.972071174400
         H           -0.510164553515     0.558586884351     0.862823483883     1.007825032230
         H           -0.994825553515    -0.783035115649    -1.355185516117     1.007825032230
         H           -2.156107553515     0.556221884351    -1.207636516117     1.007825032230
         H           -2.679537553515    -1.109491115649    -0.934665516117     1.007825032230

  Running in c1 symmetry.

  Rotational constants: A =      0.42884  B =      0.11892  C =      0.09520 [cm^-1]
  Rotational constants: A =  12856.23489  B =   3565.15873  C =   2853.97420 [MHz]
  Nuclear repulsion =   56.451077585270944

  Charge       = 0
  Multiplicity = 1
  Electrons    = 26
  Nalpha       = 13
  Nbeta        = 13

  ==> Algorithm <==

  SCF Algorithm Type is DF.
  DIIS enabled.
  MOM disabled.
  Fractional occupation disabled.
  Guess Type is SAD.
  Energy threshold   = 1.00e-07
  Density threshold  = 1.00e-08
  Integral threshold = 0.00e+00

  ==> Primary Basis <==

  Basis Set: AUG-CC-PVQZ
    Blend: AUG-CC-PVQZ
    Number of shells: 98
    Number of basis function: 348
    Number of Cartesian functions: 434
    Spherical Harmonics?: true
    Max angular momentum: 4

   => Loading Basis Set <=

    Name: (AUG-CC-PVQZ AUX)
    Role: JKFIT
    Keyword: DF_BASIS_SCF
    atoms 1   entry C          line   178 file /home/liuchw/anaconda3/envs/psi4env/share/psi4/basis/aug-cc-pvqz-jkfit.gbs 
    atoms 2   entry S          line   810 file /home/liuchw/anaconda3/envs/psi4env/share/psi4/basis/aug-cc-pvqz-jkfit.gbs 
    atoms 3-6 entry H          line    70 file /home/liuchw/anaconda3/envs/psi4env/share/psi4/basis/aug-cc-pvqz-jkfit.gbs 

  ==> Pre-Iterations <==

   -------------------------------------------------------
    Irrep   Nso     Nmo     Nalpha   Nbeta   Ndocc  Nsocc
   -------------------------------------------------------
     A        348     348       0       0       0       0
   -------------------------------------------------------
    Total     348     348      13      13      13       0
   -------------------------------------------------------

  ==> Integral Setup <==

  DFHelper Memory: AOs need 0.606 GiB; user supplied 27.940 GiB. Using in-core AOs.

  ==> MemDFJK: Density-Fitted J/K Matrices <==

    J tasked:                   Yes
    K tasked:                   Yes
    wK tasked:                   No
    OpenMP threads:               6
    Memory [MiB]:             28610
    Algorithm:                 Core
    Schwarz Cutoff:           1E-12
    Mask sparsity (%):       0.1883
    Fitting Condition:        1E-10

   => Auxiliary Basis Set <=

  Basis Set: (AUG-CC-PVQZ AUX)
    Blend: AUG-CC-PVQZ-JKFIT
    Number of shells: 152
    Number of basis function: 630
    Number of Cartesian functions: 849
    Spherical Harmonics?: true
    Max angular momentum: 5

  Minimum eigenvalue in the overlap matrix is 1.5472607167E-05.
  Using Symmetric Orthogonalization.

  SCF Guess: Superposition of Atomic Densities via on-the-fly atomic UHF.

  ==> Iterations <==

                           Total Energy        Delta E     RMS |[F,P]|

   @DF-RHF iter SAD:  -437.28930800627182   -4.37289e+02   0.00000e+00 
   @DF-RHF iter   1:  -437.69787583942679   -4.08568e-01   9.29187e-04 DIIS
   @DF-RHF iter   2:  -437.75342584915165   -5.55500e-02   3.82272e-04 DIIS
   @DF-RHF iter   3:  -437.76290291146427   -9.47706e-03   9.40638e-05 DIIS
   @DF-RHF iter   4:  -437.76403701478893   -1.13410e-03   2.62064e-05 DIIS
   @DF-RHF iter   5:  -437.76413522453311   -9.82097e-05   6.08622e-06 DIIS
   @DF-RHF iter   6:  -437.76414196186420   -6.73733e-06   1.69520e-06 DIIS
   @DF-RHF iter   7:  -437.76414254531932   -5.83455e-07   5.04574e-07 DIIS
   @DF-RHF iter   8:  -437.76414259881375   -5.34944e-08   9.80739e-08 DIIS
   @DF-RHF iter   9:  -437.76414260098920   -2.17545e-09   1.76384e-08 DIIS
   @DF-RHF iter  10:  -437.76414260105514   -6.59384e-11   3.78869e-09 DIIS
  Energy and wave function converged.


  ==> Post-Iterations <==

    Orbital Energies [Eh]
    ---------------------

    Doubly Occupied:                                                      

       1A    -91.951201     2A    -11.255709     3A     -8.953471  
       4A     -6.635104     5A     -6.634174     6A     -6.633206  
       7A     -1.038350     8A     -0.866780     9A     -0.609334  
      10A     -0.592806    11A     -0.527278    12A     -0.461618  
      13A     -0.357323  

    Virtual:                                                              

      14A      0.026099    15A      0.036815    16A      0.042271  
      17A      0.045593    18A      0.072359    19A      0.084034  
      20A      0.095240    21A      0.096673    22A      0.114418  
      23A      0.118799    24A      0.122951    25A      0.149669  
      26A      0.169287    27A      0.184267    28A      0.185478  
      29A      0.217991    30A      0.224354    31A      0.232497  
      32A      0.235979    33A      0.245099    34A      0.257331  
      35A      0.263345    36A      0.266898    37A      0.276355  
      38A      0.292188    39A      0.296120    40A      0.306306  
      41A      0.313201    42A      0.316862    43A      0.325909  
      44A      0.333286    45A      0.341929    46A      0.345191  
      47A      0.345887    48A      0.368550    49A      0.370964  
      50A      0.392710    51A      0.393618    52A      0.406599  
      53A      0.478379    54A      0.495973    55A      0.501205  
      56A      0.504824    57A      0.513378    58A      0.533619  
      59A      0.546867    60A      0.588476    61A      0.597792  
      62A      0.600282    63A      0.633538    64A      0.643865  
      65A      0.646196    66A      0.663180    67A      0.674198  
      68A      0.681631    69A      0.689225    70A      0.697373  
      71A      0.704718    72A      0.705460    73A      0.721374  
      74A      0.734134    75A      0.745483    76A      0.761671  
      77A      0.762332    78A      0.786792    79A      0.793297  
      80A      0.795007    81A      0.798539    82A      0.813581  
      83A      0.824036    84A      0.832255    85A      0.837069  
      86A      0.861154    87A      0.900246    88A      0.904220  
      89A      0.916822    90A      0.943706    91A      0.947542  
      92A      0.977823    93A      0.989338    94A      1.018490  
      95A      1.028333    96A      1.054717    97A      1.069922  
      98A      1.085762    99A      1.121648   100A      1.138590  
     101A      1.159122   102A      1.164314   103A      1.170375  
     104A      1.183575   105A      1.197591   106A      1.222428  
     107A      1.243833   108A      1.248738   109A      1.297473  
     110A      1.314622   111A      1.398863   112A      1.400069  
     113A      1.414777   114A      1.455915   115A      1.483155  
     116A      1.489178   117A      1.502944   118A      1.508947  
     119A      1.531965   120A      1.555194   121A      1.587371  
     122A      1.612275   123A      1.617362   124A      1.625066  
     125A      1.662511   126A      1.671456   127A      1.682348  
     128A      1.683643   129A      1.707648   130A      1.711681  
     131A      1.743017   132A      1.744222   133A      1.762080  
     134A      1.800729   135A      1.803152   136A      1.819638  
     137A      1.823002   138A      1.859274   139A      1.861648  
     140A      1.887851   141A      1.892673   142A      1.897013  
     143A      1.934165   144A      1.940859   145A      1.963025  
     146A      1.966134   147A      1.973514   148A      1.992137  
     149A      1.993721   150A      2.009077   151A      2.015286  
     152A      2.035871   153A      2.051279   154A      2.066337  
     155A      2.087141   156A      2.123305   157A      2.142116  
     158A      2.151985   159A      2.157968   160A      2.172576  
     161A      2.200769   162A      2.221680   163A      2.243251  
     164A      2.255516   165A      2.269316   166A      2.306649  
     167A      2.310532   168A      2.330764   169A      2.337637  
     170A      2.348331   171A      2.388337   172A      2.405279  
     173A      2.420437   174A      2.429198   175A      2.489909  
     176A      2.560729   177A      2.568334   178A      2.604282  
     179A      2.629123   180A      2.659980   181A      2.737331  
     182A      2.739885   183A      2.783579   184A      2.795709  
     185A      2.813557   186A      2.824754   187A      2.837139  
     188A      2.856440   189A      2.911682   190A      2.998449  
     191A      3.002826   192A      3.029753   193A      3.041307  
     194A      3.076455   195A      3.081832   196A      3.087604  
     197A      3.109447   198A      3.121090   199A      3.182878  
     200A      3.207387   201A      3.244238   202A      3.248870  
     203A      3.302766   204A      3.306283   205A      3.403962  
     206A      3.473782   207A      3.510838   208A      3.527534  
     209A      3.574332   210A      3.629566   211A      3.634187  
     212A      3.707663   213A      3.735104   214A      3.745450  
     215A      3.768804   216A      3.769949   217A      3.804029  
     218A      3.824523   219A      3.842102   220A      3.863650  
     221A      3.895122   222A      3.923808   223A      3.974599  
     224A      3.995087   225A      4.002970   226A      4.016607  
     227A      4.055941   228A      4.070744   229A      4.107418  
     230A      4.118685   231A      4.129842   232A      4.147611  
     233A      4.171925   234A      4.197815   235A      4.264314  
     236A      4.272024   237A      4.320240   238A      4.349727  
     239A      4.362810   240A      4.477996   241A      4.513533  
     242A      4.531622   243A      4.549202   244A      4.573488  
     245A      4.672377   246A      4.705120   247A      4.764374  
     248A      4.788349   249A      4.809316   250A      4.901597  
     251A      4.957969   252A      4.974448   253A      5.056549  
     254A      5.117599   255A      5.238805   256A      6.118815  
     257A      6.153545   258A      6.224049   259A      6.273810  
     260A      6.314926   261A      6.373109   262A      6.380917  
     263A      6.423167   264A      6.599873   265A      6.614416  
     266A      6.723889   267A      6.731591   268A      6.743512  
     269A      6.745400   270A      6.777887   271A      6.795380  
     272A      6.866389   273A      6.923787   274A      6.952702  
     275A      6.987508   276A      6.990559   277A      7.056931  
     278A      7.073120   279A      7.119261   280A      7.133734  
     281A      7.177490   282A      7.205026   283A      7.218175  
     284A      7.313458   285A      7.325389   286A      7.469263  
     287A      7.548051   288A      7.564921   289A      7.602570  
     290A      7.652480   291A      7.676158   292A      7.731090  
     293A      7.750440   294A      7.766484   295A      7.815388  
     296A      7.935530   297A      7.943761   298A      7.970869  
     299A      8.290278   300A      8.315758   301A      8.341235  
     302A      8.390293   303A      8.400561   304A      8.432591  
     305A      8.514804   306A      8.637011   307A      8.654099  
     308A      8.692527   309A      8.749178   310A      8.848042  
     311A      8.880723   312A      8.938957   313A      8.977726  
     314A      9.033379   315A      9.064737   316A      9.198898  
     317A      9.219398   318A      9.249020   319A      9.249949  
     320A      9.362815   321A      9.425207   322A      9.455889  
     323A      9.542592   324A      9.559492   325A      9.568518  
     326A      9.630813   327A      9.747449   328A      9.776862  
     329A      9.852078   330A     10.025333   331A     10.031030  
     332A     10.147961   333A     10.177989   334A     10.396661  
     335A     10.409389   336A     10.450887   337A     10.806156  
     338A     10.812759   339A     10.921059   340A     11.042670  
     341A     11.044718   342A     11.112922   343A     11.468223  
     344A     13.208580   345A     13.213906   346A     13.331900  
     347A     21.852765   348A     28.601173  

    Final Occupation by Irrep:
              A 
    DOCC [    13 ]

  @DF-RHF Final Energy:  -437.76414260105514

   => Energetics <=

    Nuclear Repulsion Energy =             56.4510775852709443
    One-Electron Energy =                -715.3977314695855512
    Two-Electron Energy =                 221.1825112832595153
    Total Energy =                       -437.7641426010551413

Computation Completed


Properties will be evaluated at   0.000000,   0.000000,   0.000000 [a0]

Properties computed using the SCF density matrix

  Nuclear Dipole Moment: [e a0]
     X:   -79.0544      Y:   -15.5309      Z:    15.0877

  Electronic Dipole Moment: [e a0]
     X:    79.1632      Y:    15.6891      Z:   -15.7126

  Dipole Moment: [e a0]
     X:     0.1088      Y:     0.1582      Z:    -0.6249     Total:     0.6537

  Dipole Moment: [D]
     X:     0.2765      Y:     0.4022      Z:    -1.5882     Total:     1.6615


*** tstop() called on node37.bme.utexas.edu at Sat Apr 11 16:33:14 2020
Module time:
	user time   =      28.34 seconds =       0.47 minutes
	system time =       1.46 seconds =       0.02 minutes
	total time  =          5 seconds =       0.08 minutes
Total time:
	user time   =      43.08 seconds =       0.72 minutes
	system time =       2.48 seconds =       0.04 minutes
	total time  =          9 seconds =       0.15 minutes

*** tstart() called on node37.bme.utexas.edu
*** at Sat Apr 11 16:33:14 2020


  //>>>>>>>>>>>>>>>>>>>>>>>>>>>>>>>>>>>//
  //               DFMP2               //
  //<<<<<<<<<<<<<<<<<<<<<<<<<<<<<<<<<<<//

   => Loading Basis Set <=

    Name: (AUG-CC-PVQZ AUX)
    Role: RIFIT
    Keyword: DF_BASIS_MP2
    atoms 1   entry C          line   184 file /home/liuchw/anaconda3/envs/psi4env/share/psi4/basis/aug-cc-pvqz-ri.gbs 
    atoms 2   entry S          line   824 file /home/liuchw/anaconda3/envs/psi4env/share/psi4/basis/aug-cc-pvqz-ri.gbs 
    atoms 3-6 entry H          line    30 file /home/liuchw/anaconda3/envs/psi4env/share/psi4/basis/aug-cc-pvqz-ri.gbs 

	 --------------------------------------------------------
	                          DF-MP2                         
	      2nd-Order Density-Fitted Moller-Plesset Theory     
	              RMP2 Wavefunction,   6 Threads             
	                                                         
	        Rob Parrish, Justin Turney, Andy Simmonett,      
	           Ed Hohenstein, and C. David Sherrill          
	 --------------------------------------------------------

   => Auxiliary Basis Set <=

  Basis Set: (AUG-CC-PVQZ AUX)
    Blend: AUG-CC-PVQZ-RI
    Number of shells: 160
    Number of basis function: 682
    Number of Cartesian functions: 925
    Spherical Harmonics?: true
    Max angular momentum: 5

	 --------------------------------------------------------
	                 NBF =   348, NAUX =   682
	 --------------------------------------------------------
	   CLASS    FOCC     OCC    AOCC    AVIR     VIR    FVIR
	   PAIRS       0      13      13     335     335       0
	 --------------------------------------------------------

	-----------------------------------------------------------
	 ==================> DF-MP2 Energies <==================== 
	-----------------------------------------------------------
	 Reference Energy          =    -437.7641426010551413 [Eh]
	 Singles Energy            =      -0.0000000000000000 [Eh]
	 Same-Spin Energy          =      -0.1033712650851464 [Eh]
	 Opposite-Spin Energy      =      -0.3795315283636232 [Eh]
	 Correlation Energy        =      -0.4829027934487695 [Eh]
	 Total Energy              =    -438.2470453945039139 [Eh]
	-----------------------------------------------------------
	 ================> DF-SCS-MP2 Energies <================== 
	-----------------------------------------------------------
	 SCS Same-Spin Scale       =       0.3333333333333333 [-]
	 SCS Opposite-Spin Scale   =       1.2000000000000000 [-]
	 SCS Same-Spin Energy      =      -0.0344570883617154 [Eh]
	 SCS Opposite-Spin Energy  =      -0.4554378340363478 [Eh]
	 SCS Correlation Energy    =      -0.4898949223980633 [Eh]
	 SCS Total Energy          =    -438.2540375234531780 [Eh]
	-----------------------------------------------------------


*** tstop() called on node37.bme.utexas.edu at Sat Apr 11 16:33:17 2020
Module time:
	user time   =      11.44 seconds =       0.19 minutes
	system time =       0.78 seconds =       0.01 minutes
	total time  =          3 seconds =       0.05 minutes
Total time:
	user time   =      54.53 seconds =       0.91 minutes
	system time =       3.26 seconds =       0.05 minutes
	total time  =         12 seconds =       0.20 minutes

  //>>>>>>>>>>>>>>>>>>>>>>>>>>>>>>>>>>>//
  //  CBS Results: mp2/aug-cc-pv[tq]z  //
  //<<<<<<<<<<<<<<<<<<<<<<<<<<<<<<<<<<<//


   ==> HF <==

   HI-zeta (4) Energy:               -437.764142601055


   ==> Helgaker 2-point correlated extrapolation for method: MP2 <==

   LO-zeta (3) Energy:               -438.186111881982
   HI-zeta (4) Energy:               -438.247045394504
   Alpha (exponent) Value:             3.000000000000
   Extrapolated Energy:              -438.291510390128

   @Extrapolated MP2/(T,Q):          -438.291510390128



   ==> Helgaker 2-point correlated extrapolation for method: HF <==

   LO-zeta (3) Energy:               -437.757496833194
   HI-zeta (4) Energy:               -437.764142601055
   Alpha (exponent) Value:             3.000000000000
   Extrapolated Energy:              -437.768992215441

   @Extrapolated HF/(T,Q):           -437.768992215441


   ==> Components <==

  ---------------------------------------------------------------------------------------------------------
                          Method / Basis                      Rqd      Energy [Eh]   Variable
  ---------------------------------------------------------------------------------------------------------
                              hf / aug-cc-pvtz                  *    -437.75749683   HF TOTAL ENERGY
                             mp2 / aug-cc-pvtz                  *    -438.18611188   MP2 TOTAL ENERGY
                              hf / aug-cc-pvqz                  *    -437.76414260   HF TOTAL ENERGY
                             mp2 / aug-cc-pvqz                  *    -438.24704539   MP2 TOTAL ENERGY
  ---------------------------------------------------------------------------------------------------------

   ==> Stages <==

  ---------------------------------------------------------------------------------------------------------
      Stage               Method / Basis                       Wt      Energy [Eh]   Scheme
  ---------------------------------------------------------------------------------------------------------
        scf                   hf / aug-cc-pvqz                  1    -437.76414260   xtpl_highest_1
       corl                  mp2 / aug-cc-pv[tq]z               1    -438.29151039   corl_xtpl_helgaker_2
       corl                   hf / aug-cc-pv[tq]z              -1    -437.76899222   corl_xtpl_helgaker_2
  ---------------------------------------------------------------------------------------------------------

   ==> CBS <==

  ---------------------------------------------------------------------------------------------------------
      Stage               Method / Basis                               Energy [Eh]   Scheme
  ---------------------------------------------------------------------------------------------------------
        scf                   hf / aug-cc-pvqz                       -437.76414260   xtpl_highest_1
       corl                  mp2 / aug-cc-pv[tq]z                      -0.52251817   corl_xtpl_helgaker_2
      total                  CBS                                     -438.28666078   
  ---------------------------------------------------------------------------------------------------------
   => Loading Basis Set <=

    Name: DEF2-SVP
    Role: ORBITAL
    Keyword: BASIS
    atoms 1   entry C          line    90 file /home/liuchw/anaconda3/envs/psi4env/share/psi4/basis/def2-svp.gbs 
    atoms 2   entry S          line   328 file /home/liuchw/anaconda3/envs/psi4env/share/psi4/basis/def2-svp.gbs 
    atoms 3-6 entry H          line    15 file /home/liuchw/anaconda3/envs/psi4env/share/psi4/basis/def2-svp.gbs 


       N-Body: Complex Energy (fragments = (2,), basis = (2,):  -438.28666077574275)

       N-Body: Computing complex (2/4) with fragments (2,) in the basis of fragments (1, 2).


Scratch directory: /scratch//

  //>>>>>>>>>>>>>>>>>>>>>>>>>>>>>>>>>>>//
  //   CBS Setup: mp2/aug-cc-pv[tq]z   //
  //<<<<<<<<<<<<<<<<<<<<<<<<<<<<<<<<<<<//

    Naive listing of computations required.
             hf / aug-cc-pvqz              for  HF TOTAL ENERGY
            mp2 / aug-cc-pvtz              for  MP2 TOTAL ENERGY
            mp2 / aug-cc-pvqz              for  MP2 TOTAL ENERGY
             hf / aug-cc-pvtz              for  HF TOTAL ENERGY
             hf / aug-cc-pvqz              for  HF TOTAL ENERGY

    Enlightened listing of computations required.
            mp2 / aug-cc-pvtz              for  MP2 TOTAL ENERGY
            mp2 / aug-cc-pvqz              for  MP2 TOTAL ENERGY

    Full listing of computations to be obtained (required and bonus).
             hf / aug-cc-pvtz              for  HF TOTAL ENERGY
            mp2 / aug-cc-pvtz              for  MP2 TOTAL ENERGY
             hf / aug-cc-pvqz              for  HF TOTAL ENERGY
            mp2 / aug-cc-pvqz              for  MP2 TOTAL ENERGY

  //>>>>>>>>>>>>>>>>>>>>>>>>>>>>>>>>>>>>//
  // CBS Computation: MP2 / AUG-CC-PVTZ //
  //<<<<<<<<<<<<<<<<<<<<<<<<<<<<<<<<<<<<//


Scratch directory: /scratch//

*** tstart() called on node37.bme.utexas.edu
*** at Sat Apr 11 16:33:18 2020

   => Loading Basis Set <=

    Name: AUG-CC-PVTZ
    Role: ORBITAL
    Keyword: BASIS
    atoms 1, 7      entry C          line   239 file /home/liuchw/anaconda3/envs/psi4env/share/psi4/basis/aug-cc-pvtz.gbs 
    atoms 2, 8      entry S          line   906 file /home/liuchw/anaconda3/envs/psi4env/share/psi4/basis/aug-cc-pvtz.gbs 
    atoms 3-6, 9-12 entry H          line    40 file /home/liuchw/anaconda3/envs/psi4env/share/psi4/basis/aug-cc-pvtz.gbs 


         ---------------------------------------------------------
                                   SCF
               by Justin Turney, Rob Parrish, Andy Simmonett
                          and Daniel G. A. Smith
                              RHF Reference
                        6 Threads,  38146 MiB Core
         ---------------------------------------------------------

  ==> Geometry <==

    Molecular point group: c1
    Full point group: C1

    Geometry (in Angstrom), charge = 0, multiplicity = 1:

       Center              X                  Y                   Z               Mass       
    ------------   -----------------  -----------------  -----------------  -----------------
      Gh(C)           1.612367446485    -0.897065115649    -0.500097516117    12.000000000000
      Gh(S)           1.597825446485     0.914168884351    -0.368512516117    31.972071174400
      Gh(H)           2.016155446485     0.979970884351     0.898623483883     1.007825032230
      Gh(H)           0.871362446485    -1.343139115649     0.157038483883     1.007825032230
      Gh(H)           1.358800446485    -1.126871115649    -1.531470516117     1.007825032230
      Gh(H)           2.600016446485    -1.294428115649    -0.290077516117     1.007825032230
         C           -1.857842553515    -0.409368115649    -0.812312516117    12.000000000000
         S           -1.521632553515    -0.311541115649     0.968288483883    31.972071174400
         H           -0.510164553515     0.558586884351     0.862823483883     1.007825032230
         H           -0.994825553515    -0.783035115649    -1.355185516117     1.007825032230
         H           -2.156107553515     0.556221884351    -1.207636516117     1.007825032230
         H           -2.679537553515    -1.109491115649    -0.934665516117     1.007825032230

  Running in c1 symmetry.

  Rotational constants: A =      0.21411  B =      0.05391  C =      0.05188 [cm^-1]
  Rotational constants: A =   6418.84988  B =   1616.23077  C =   1555.20835 [MHz]
  Nuclear repulsion =   56.451077585270944

  Charge       = 0
  Multiplicity = 1
  Electrons    = 26
  Nalpha       = 13
  Nbeta        = 13

  ==> Algorithm <==

  SCF Algorithm Type is DF.
  DIIS enabled.
  MOM disabled.
  Fractional occupation disabled.
  Guess Type is SAD.
  Energy threshold   = 1.00e-07
  Density threshold  = 1.00e-08
  Integral threshold = 0.00e+00

  ==> Primary Basis <==

  Basis Set: AUG-CC-PVTZ
    Blend: AUG-CC-PVTZ
    Number of shells: 132
    Number of basis function: 376
    Number of Cartesian functions: 428
    Spherical Harmonics?: true
    Max angular momentum: 3

   => Loading Basis Set <=

    Name: (AUG-CC-PVTZ AUX)
    Role: JKFIT
    Keyword: DF_BASIS_SCF
    atoms 1, 7      entry C          line   162 file /home/liuchw/anaconda3/envs/psi4env/share/psi4/basis/aug-cc-pvtz-jkfit.gbs 
    atoms 2, 8      entry S          line   730 file /home/liuchw/anaconda3/envs/psi4env/share/psi4/basis/aug-cc-pvtz-jkfit.gbs 
    atoms 3-6, 9-12 entry H          line    70 file /home/liuchw/anaconda3/envs/psi4env/share/psi4/basis/aug-cc-pvtz-jkfit.gbs 

  ==> Pre-Iterations <==

   -------------------------------------------------------
    Irrep   Nso     Nmo     Nalpha   Nbeta   Ndocc  Nsocc
   -------------------------------------------------------
     A        376     376       0       0       0       0
   -------------------------------------------------------
    Total     376     376      13      13      13       0
   -------------------------------------------------------

  ==> Integral Setup <==

  DFHelper Memory: AOs need 0.940 GiB; user supplied 27.940 GiB. Using in-core AOs.

  ==> MemDFJK: Density-Fitted J/K Matrices <==

    J tasked:                   Yes
    K tasked:                   Yes
    wK tasked:                   No
    OpenMP threads:               6
    Memory [MiB]:             28610
    Algorithm:                 Core
    Schwarz Cutoff:           1E-12
    Mask sparsity (%):       1.5618
    Fitting Condition:        1E-10

   => Auxiliary Basis Set <=

  Basis Set: (AUG-CC-PVTZ AUX)
    Blend: AUG-CC-PVTZ-JKFIT
    Number of shells: 256
    Number of basis function: 868
    Number of Cartesian functions: 1062
    Spherical Harmonics?: true
    Max angular momentum: 4

  Minimum eigenvalue in the overlap matrix is 1.8382100207E-05.
  Using Symmetric Orthogonalization.

  SCF Guess: Superposition of Atomic Densities via on-the-fly atomic UHF.

  ==> Iterations <==

                           Total Energy        Delta E     RMS |[F,P]|

   @DF-RHF iter SAD:  -437.28555141100981   -4.37286e+02   0.00000e+00 
   @DF-RHF iter   1:  -437.69181076749646   -4.06259e-01   8.47132e-04 DIIS
   @DF-RHF iter   2:  -437.74698560107316   -5.51748e-02   3.49129e-04 DIIS
   @DF-RHF iter   3:  -437.75636102855839   -9.37543e-03   8.44159e-05 DIIS
   @DF-RHF iter   4:  -437.75747019611163   -1.10917e-03   2.28673e-05 DIIS
   @DF-RHF iter   5:  -437.75755616401801   -8.59679e-05   5.39950e-06 DIIS
   @DF-RHF iter   6:  -437.75756224123336   -6.07722e-06   1.47128e-06 DIIS
   @DF-RHF iter   7:  -437.75756276619478   -5.24961e-07   4.22507e-07 DIIS
   @DF-RHF iter   8:  -437.75756281200148   -4.58067e-08   8.13192e-08 DIIS
   @DF-RHF iter   9:  -437.75756281378619   -1.78471e-09   1.45008e-08 DIIS
   @DF-RHF iter  10:  -437.75756281384037   -5.41718e-11   3.25254e-09 DIIS
  Energy and wave function converged.


  ==> Post-Iterations <==

    Orbital Energies [Eh]
    ---------------------

    Doubly Occupied:                                                      

       1A    -91.953682     2A    -11.257050     3A     -8.954690  
       4A     -6.636074     5A     -6.635078     6A     -6.633985  
       7A     -1.038786     8A     -0.867010     9A     -0.609290  
      10A     -0.592790    11A     -0.527045    12A     -0.461371  
      13A     -0.357313  

    Virtual:                                                              

      14A      0.022301    15A      0.034471    16A      0.039029  
      17A      0.044431    18A      0.055287    19A      0.059493  
      20A      0.065188    21A      0.074782    22A      0.086865  
      23A      0.092373    24A      0.094566    25A      0.110008  
      26A      0.111939    27A      0.116611    28A      0.123730  
      29A      0.126303    30A      0.128839    31A      0.142504  
      32A      0.146094    33A      0.157320    34A      0.160611  
      35A      0.165724    36A      0.175729    37A      0.196807  
      38A      0.214913    39A      0.227964    40A      0.236132  
      41A      0.241155    42A      0.259433    43A      0.264375  
      44A      0.270562    45A      0.276341    46A      0.282153  
      47A      0.287182    48A      0.288473    49A      0.297247  
      50A      0.306989    51A      0.311421    52A      0.322599  
      53A      0.328237    54A      0.335598    55A      0.350322  
      56A      0.355249    57A      0.366828    58A      0.373121  
      59A      0.378589    60A      0.380639    61A      0.385517  
      62A      0.393161    63A      0.402588    64A      0.406624  
      65A      0.408640    66A      0.411944    67A      0.423532  
      68A      0.430780    69A      0.436101    70A      0.441112  
      71A      0.449022    72A      0.461915    73A      0.469348  
      74A      0.474478    75A      0.482309    76A      0.496681  
      77A      0.507539    78A      0.513474    79A      0.525410  
      80A      0.529497    81A      0.541327    82A      0.545936  
      83A      0.547317    84A      0.549864    85A      0.567587  
      86A      0.573195    87A      0.583099    88A      0.593117  
      89A      0.607130    90A      0.614809    91A      0.618907  
      92A      0.631064    93A      0.649277    94A      0.668301  
      95A      0.682362    96A      0.692193    97A      0.709960  
      98A      0.714219    99A      0.730097   100A      0.736603  
     101A      0.751223   102A      0.763836   103A      0.770385  
     104A      0.800962   105A      0.812482   106A      0.828173  
     107A      0.843550   108A      0.863844   109A      0.865626  
     110A      0.874631   111A      0.890428   112A      0.895034  
     113A      0.905012   114A      0.920930   115A      0.931599  
     116A      0.944407   117A      0.955340   118A      0.962159  
     119A      0.970556   120A      0.988946   121A      0.993975  
     122A      1.004159   123A      1.010641   124A      1.026872  
     125A      1.030396   126A      1.036270   127A      1.039287  
     128A      1.059829   129A      1.063577   130A      1.066867  
     131A      1.076745   132A      1.086734   133A      1.091027  
     134A      1.098025   135A      1.103236   136A      1.116403  
     137A      1.126965   138A      1.135418   139A      1.140015  
     140A      1.149741   141A      1.166559   142A      1.170968  
     143A      1.172965   144A      1.179732   145A      1.188361  
     146A      1.203176   147A      1.208160   148A      1.225033  
     149A      1.228598   150A      1.240158   151A      1.245652  
     152A      1.254186   153A      1.265033   154A      1.274264  
     155A      1.281464   156A      1.287102   157A      1.316831  
     158A      1.322607   159A      1.326733   160A      1.334616  
     161A      1.352728   162A      1.365031   163A      1.371473  
     164A      1.380650   165A      1.395379   166A      1.406351  
     167A      1.410104   168A      1.422141   169A      1.425637  
     170A      1.434932   171A      1.461133   172A      1.465723  
     173A      1.478534   174A      1.489315   175A      1.498589  
     176A      1.509536   177A      1.527082   178A      1.542667  
     179A      1.553697   180A      1.560608   181A      1.591747  
     182A      1.616323   183A      1.620687   184A      1.644795  
     185A      1.655442   186A      1.672869   187A      1.692406  
     188A      1.708086   189A      1.716201   190A      1.738906  
     191A      1.747561   192A      1.762127   193A      1.770374  
     194A      1.799479   195A      1.809844   196A      1.828381  
     197A      1.839862   198A      1.843983   199A      1.857099  
     200A      1.879163   201A      1.898899   202A      1.911688  
     203A      1.935087   204A      1.950494   205A      1.968037  
     206A      1.975828   207A      2.015243   208A      2.028818  
     209A      2.038455   210A      2.063441   211A      2.068673  
     212A      2.089058   213A      2.091194   214A      2.112326  
     215A      2.129957   216A      2.135459   217A      2.164992  
     218A      2.180206   219A      2.204653   220A      2.234926  
     221A      2.244426   222A      2.276449   223A      2.300413  
     224A      2.334398   225A      2.348983   226A      2.371504  
     227A      2.388504   228A      2.405107   229A      2.431105  
     230A      2.466488   231A      2.471347   232A      2.483172  
     233A      2.517021   234A      2.525144   235A      2.551858  
     236A      2.615035   237A      2.631725   238A      2.676461  
     239A      2.698793   240A      2.748451   241A      2.771844  
     242A      2.780293   243A      2.783250   244A      2.812634  
     245A      2.845781   246A      2.957384   247A      3.008528  
     248A      3.100471   249A      3.152647   250A      3.198173  
     251A      3.207377   252A      3.227854   253A      3.300382  
     254A      3.328072   255A      3.391202   256A      3.409264  
     257A      3.430208   258A      3.471717   259A      3.482415  
     260A      3.592492   261A      3.606153   262A      3.629897  
     263A      3.632453   264A      3.654847   265A      3.674420  
     266A      3.736318   267A      3.765219   268A      3.790292  
     269A      3.831807   270A      3.849405   271A      3.874857  
     272A      3.897528   273A      3.928315   274A      3.954425  
     275A      3.981166   276A      4.003835   277A      4.063980  
     278A      4.084161   279A      4.108764   280A      4.120940  
     281A      4.129599   282A      4.136582   283A      4.152433  
     284A      4.174907   285A      4.184125   286A      4.202347  
     287A      4.206832   288A      4.218932   289A      4.242879  
     290A      4.259480   291A      4.268052   292A      4.294617  
     293A      4.322915   294A      4.348550   295A      4.380626  
     296A      4.465283   297A      4.469254   298A      4.486126  
     299A      4.495164   300A      4.501835   301A      4.515165  
     302A      4.533598   303A      4.547439   304A      4.600897  
     305A      4.606515   306A      4.620882   307A      4.647804  
     308A      4.667265   309A      4.706711   310A      4.725083  
     311A      4.731095   312A      4.758923   313A      4.800649  
     314A      4.813536   315A      4.829509   316A      4.860220  
     317A      4.883953   318A      4.926872   319A      4.940625  
     320A      4.952359   321A      4.962888   322A      4.971224  
     323A      4.988943   324A      5.002415   325A      5.027932  
     326A      5.057405   327A      5.112621   328A      5.171911  
     329A      5.197670   330A      5.213393   331A      5.247157  
     332A      5.259731   333A      5.296033   334A      5.325906  
     335A      5.370391   336A      5.374272   337A      5.402354  
     338A      5.434563   339A      5.499179   340A      5.525948  
     341A      5.565649   342A      5.582975   343A      5.619067  
     344A      5.634920   345A      5.645538   346A      5.689473  
     347A      5.792040   348A      5.840648   349A      5.886741  
     350A      6.024911   351A      6.100360   352A      6.153487  
     353A      6.174141   354A      6.206099   355A      6.248783  
     356A      6.253190   357A      6.680876   358A      6.735727  
     359A      6.760287   360A      6.773197   361A      6.839608  
     362A      7.210385   363A      7.771331   364A      7.821835  
     365A      7.859332   366A      8.129643   367A      8.242219  
     368A      8.249302   369A     10.431790   370A     15.595570  
     371A     17.448559   372A     24.519768   373A     25.035289  
     374A     25.413047   375A     52.156011   376A    141.762116  

    Final Occupation by Irrep:
              A 
    DOCC [    13 ]

  @DF-RHF Final Energy:  -437.75756281384037

   => Energetics <=

    Nuclear Repulsion Energy =             56.4510775852709443
    One-Electron Energy =                -715.3689503882545750
    Two-Electron Energy =                 221.1603099891432862
    Total Energy =                       -437.7575628138403658

Computation Completed


Properties will be evaluated at   0.000000,   0.000000,   0.000000 [a0]

Properties computed using the SCF density matrix

  Nuclear Dipole Moment: [e a0]
     X:   -79.0544      Y:   -15.5309      Z:    15.0877

  Electronic Dipole Moment: [e a0]
     X:    79.1647      Y:    15.6907      Z:   -15.7159

  Dipole Moment: [e a0]
     X:     0.1103      Y:     0.1598      Z:    -0.6281     Total:     0.6575

  Dipole Moment: [D]
     X:     0.2803      Y:     0.4062      Z:    -1.5966     Total:     1.6711


*** tstop() called on node37.bme.utexas.edu at Sat Apr 11 16:33:25 2020
Module time:
	user time   =      32.63 seconds =       0.54 minutes
	system time =       1.66 seconds =       0.03 minutes
	total time  =          7 seconds =       0.12 minutes
Total time:
	user time   =      88.94 seconds =       1.48 minutes
	system time =       5.00 seconds =       0.08 minutes
	total time  =         20 seconds =       0.33 minutes

*** tstart() called on node37.bme.utexas.edu
*** at Sat Apr 11 16:33:25 2020


  //>>>>>>>>>>>>>>>>>>>>>>>>>>>>>>>>>>>//
  //               DFMP2               //
  //<<<<<<<<<<<<<<<<<<<<<<<<<<<<<<<<<<<//

   => Loading Basis Set <=

    Name: (AUG-CC-PVTZ AUX)
    Role: RIFIT
    Keyword: DF_BASIS_MP2
    atoms 1, 7      entry C          line   148 file /home/liuchw/anaconda3/envs/psi4env/share/psi4/basis/aug-cc-pvtz-ri.gbs 
    atoms 2, 8      entry S          line   666 file /home/liuchw/anaconda3/envs/psi4env/share/psi4/basis/aug-cc-pvtz-ri.gbs 
    atoms 3-6, 9-12 entry H          line    30 file /home/liuchw/anaconda3/envs/psi4env/share/psi4/basis/aug-cc-pvtz-ri.gbs 

	 --------------------------------------------------------
	                          DF-MP2                         
	      2nd-Order Density-Fitted Moller-Plesset Theory     
	              RMP2 Wavefunction,   6 Threads             
	                                                         
	        Rob Parrish, Justin Turney, Andy Simmonett,      
	           Ed Hohenstein, and C. David Sherrill          
	 --------------------------------------------------------

   => Auxiliary Basis Set <=

  Basis Set: (AUG-CC-PVTZ AUX)
    Blend: AUG-CC-PVTZ-RI
    Number of shells: 242
    Number of basis function: 874
    Number of Cartesian functions: 1094
    Spherical Harmonics?: true
    Max angular momentum: 4

	 --------------------------------------------------------
	                 NBF =   376, NAUX =   874
	 --------------------------------------------------------
	   CLASS    FOCC     OCC    AOCC    AVIR     VIR    FVIR
	   PAIRS       0      13      13     363     363       0
	 --------------------------------------------------------

	-----------------------------------------------------------
	 ==================> DF-MP2 Energies <==================== 
	-----------------------------------------------------------
	 Reference Energy          =    -437.7575628138403658 [Eh]
	 Singles Energy            =      -0.0000000000000000 [Eh]
	 Same-Spin Energy          =      -0.0941203439981588 [Eh]
	 Opposite-Spin Energy      =      -0.3364622256475284 [Eh]
	 Correlation Energy        =      -0.4305825696456872 [Eh]
	 Total Energy              =    -438.1881453834860736 [Eh]
	-----------------------------------------------------------
	 ================> DF-SCS-MP2 Energies <================== 
	-----------------------------------------------------------
	 SCS Same-Spin Scale       =       0.3333333333333333 [-]
	 SCS Opposite-Spin Scale   =       1.2000000000000000 [-]
	 SCS Same-Spin Energy      =      -0.0313734479993863 [Eh]
	 SCS Opposite-Spin Energy  =      -0.4037546707770340 [Eh]
	 SCS Correlation Energy    =      -0.4351281187764203 [Eh]
	 SCS Total Energy          =    -438.1926909326168129 [Eh]
	-----------------------------------------------------------


*** tstop() called on node37.bme.utexas.edu at Sat Apr 11 16:33:29 2020
Module time:
	user time   =      15.71 seconds =       0.26 minutes
	system time =       2.21 seconds =       0.04 minutes
	total time  =          4 seconds =       0.07 minutes
Total time:
	user time   =     104.65 seconds =       1.74 minutes
	system time =       7.21 seconds =       0.12 minutes
	total time  =         24 seconds =       0.40 minutes

  //>>>>>>>>>>>>>>>>>>>>>>>>>>>>>>>>>>>>//
  // CBS Computation: MP2 / AUG-CC-PVQZ //
  //<<<<<<<<<<<<<<<<<<<<<<<<<<<<<<<<<<<<//


Scratch directory: /scratch//

*** tstart() called on node37.bme.utexas.edu
*** at Sat Apr 11 16:33:29 2020

   => Loading Basis Set <=

    Name: AUG-CC-PVQZ
    Role: ORBITAL
    Keyword: BASIS
    atoms 1, 7      entry C          line   303 file /home/liuchw/anaconda3/envs/psi4env/share/psi4/basis/aug-cc-pvqz.gbs 
    atoms 2, 8      entry S          line  1126 file /home/liuchw/anaconda3/envs/psi4env/share/psi4/basis/aug-cc-pvqz.gbs 
    atoms 3-6, 9-12 entry H          line    40 file /home/liuchw/anaconda3/envs/psi4env/share/psi4/basis/aug-cc-pvqz.gbs 


         ---------------------------------------------------------
                                   SCF
               by Justin Turney, Rob Parrish, Andy Simmonett
                          and Daniel G. A. Smith
                              RHF Reference
                        6 Threads,  38146 MiB Core
         ---------------------------------------------------------

  ==> Geometry <==

    Molecular point group: c1
    Full point group: C1

    Geometry (in Angstrom), charge = 0, multiplicity = 1:

       Center              X                  Y                   Z               Mass       
    ------------   -----------------  -----------------  -----------------  -----------------
      Gh(C)           1.612367446485    -0.897065115649    -0.500097516117    12.000000000000
      Gh(S)           1.597825446485     0.914168884351    -0.368512516117    31.972071174400
      Gh(H)           2.016155446485     0.979970884351     0.898623483883     1.007825032230
      Gh(H)           0.871362446485    -1.343139115649     0.157038483883     1.007825032230
      Gh(H)           1.358800446485    -1.126871115649    -1.531470516117     1.007825032230
      Gh(H)           2.600016446485    -1.294428115649    -0.290077516117     1.007825032230
         C           -1.857842553515    -0.409368115649    -0.812312516117    12.000000000000
         S           -1.521632553515    -0.311541115649     0.968288483883    31.972071174400
         H           -0.510164553515     0.558586884351     0.862823483883     1.007825032230
         H           -0.994825553515    -0.783035115649    -1.355185516117     1.007825032230
         H           -2.156107553515     0.556221884351    -1.207636516117     1.007825032230
         H           -2.679537553515    -1.109491115649    -0.934665516117     1.007825032230

  Running in c1 symmetry.

  Rotational constants: A =      0.21411  B =      0.05391  C =      0.05188 [cm^-1]
  Rotational constants: A =   6418.84988  B =   1616.23077  C =   1555.20835 [MHz]
  Nuclear repulsion =   56.451077585270944

  Charge       = 0
  Multiplicity = 1
  Electrons    = 26
  Nalpha       = 13
  Nbeta        = 13

  ==> Algorithm <==

  SCF Algorithm Type is DF.
  DIIS enabled.
  MOM disabled.
  Fractional occupation disabled.
  Guess Type is SAD.
  Energy threshold   = 1.00e-07
  Density threshold  = 1.00e-08
  Integral threshold = 0.00e+00

  ==> Primary Basis <==

  Basis Set: AUG-CC-PVQZ
    Blend: AUG-CC-PVQZ
    Number of shells: 196
    Number of basis function: 696
    Number of Cartesian functions: 868
    Spherical Harmonics?: true
    Max angular momentum: 4

   => Loading Basis Set <=

    Name: (AUG-CC-PVQZ AUX)
    Role: JKFIT
    Keyword: DF_BASIS_SCF
    atoms 1, 7      entry C          line   178 file /home/liuchw/anaconda3/envs/psi4env/share/psi4/basis/aug-cc-pvqz-jkfit.gbs 
    atoms 2, 8      entry S          line   810 file /home/liuchw/anaconda3/envs/psi4env/share/psi4/basis/aug-cc-pvqz-jkfit.gbs 
    atoms 3-6, 9-12 entry H          line    70 file /home/liuchw/anaconda3/envs/psi4env/share/psi4/basis/aug-cc-pvqz-jkfit.gbs 

  ==> Pre-Iterations <==

   -------------------------------------------------------
    Irrep   Nso     Nmo     Nalpha   Nbeta   Ndocc  Nsocc
   -------------------------------------------------------
     A        696     696       0       0       0       0
   -------------------------------------------------------
    Total     696     696      13      13      13       0
   -------------------------------------------------------

  ==> Integral Setup <==

  DFHelper Memory: AOs need 4.503 GiB; user supplied 27.940 GiB. Using in-core AOs.

  ==> MemDFJK: Density-Fitted J/K Matrices <==

    J tasked:                   Yes
    K tasked:                   Yes
    wK tasked:                   No
    OpenMP threads:               6
    Memory [MiB]:             28610
    Algorithm:                 Core
    Schwarz Cutoff:           1E-12
    Mask sparsity (%):       4.3392
    Fitting Condition:        1E-10

   => Auxiliary Basis Set <=

  Basis Set: (AUG-CC-PVQZ AUX)
    Blend: AUG-CC-PVQZ-JKFIT
    Number of shells: 304
    Number of basis function: 1260
    Number of Cartesian functions: 1698
    Spherical Harmonics?: true
    Max angular momentum: 5

  Minimum eigenvalue in the overlap matrix is 5.4668411178E-06.
  Using Symmetric Orthogonalization.

  SCF Guess: Superposition of Atomic Densities via on-the-fly atomic UHF.

  ==> Iterations <==

                           Total Energy        Delta E     RMS |[F,P]|

   @DF-RHF iter SAD:  -437.28930820065239   -4.37289e+02   0.00000e+00 
   @DF-RHF iter   1:  -437.69789832994508   -4.08590e-01   4.64652e-04 DIIS
   @DF-RHF iter   2:  -437.75345063405052   -5.55523e-02   1.91156e-04 DIIS
   @DF-RHF iter   3:  -437.76292845464161   -9.47782e-03   4.70464e-05 DIIS
   @DF-RHF iter   4:  -437.76406275817783   -1.13430e-03   1.31110e-05 DIIS
   @DF-RHF iter   5:  -437.76416108968255   -9.83315e-05   3.04478e-06 DIIS
   @DF-RHF iter   6:  -437.76416783404341   -6.74436e-06   8.48137e-07 DIIS
   @DF-RHF iter   7:  -437.76416841817968   -5.84136e-07   2.52519e-07 DIIS
   @DF-RHF iter   8:  -437.76416847175830   -5.35786e-08   4.91268e-08 DIIS
   @DF-RHF iter   9:  -437.76416847394268   -2.18438e-09   8.83186e-09 DIIS
  Energy and wave function converged.


  ==> Post-Iterations <==

    Orbital Energies [Eh]
    ---------------------

    Doubly Occupied:                                                      

       1A    -91.951207     2A    -11.255699     3A     -8.953462  
       4A     -6.635097     5A     -6.634168     6A     -6.633198  
       7A     -1.038336     8A     -0.866767     9A     -0.609324  
      10A     -0.592797    11A     -0.527268    12A     -0.461609  
      13A     -0.357319  

    Virtual:                                                              

      14A      0.019908    15A      0.030971    16A      0.035159  
      17A      0.039485    18A      0.049802    19A      0.053210  
      20A      0.058351    21A      0.065994    22A      0.077598  
      23A      0.080650    24A      0.083500    25A      0.095470  
      26A      0.096982    27A      0.101796    28A      0.105922  
      29A      0.108788    30A      0.111263    31A      0.124442  
      32A      0.125744    33A      0.136667    34A      0.139085  
      35A      0.142705    36A      0.152465    37A      0.165667  
      38A      0.184033    39A      0.195396    40A      0.202420  
      41A      0.205550    42A      0.222899    43A      0.224927  
      44A      0.228727    45A      0.232594    46A      0.236332  
      47A      0.241104    48A      0.244661    49A      0.248966  
      50A      0.258270    51A      0.259299    52A      0.263434  
      53A      0.270395    54A      0.272692    55A      0.290724  
      56A      0.294198    57A      0.298887    58A      0.301103  
      59A      0.303518    60A      0.306762    61A      0.311772  
      62A      0.315756    63A      0.322587    64A      0.325226  
      65A      0.330244    66A      0.333138    67A      0.336410  
      68A      0.341296    69A      0.348573    70A      0.353704  
      71A      0.360592    72A      0.367152    73A      0.368590  
      74A      0.378998    75A      0.387301    76A      0.397708  
      77A      0.401502    78A      0.413999    79A      0.422362  
      80A      0.422745    81A      0.425638    82A      0.432738  
      83A      0.438134    84A      0.448557    85A      0.454852  
      86A      0.460959    87A      0.464238    88A      0.473259  
      89A      0.482066    90A      0.491514    91A      0.498382  
      92A      0.507312    93A      0.514326    94A      0.523556  
      95A      0.533263    96A      0.544707    97A      0.556235  
      98A      0.561849    99A      0.567101   100A      0.576013  
     101A      0.587918   102A      0.597022   103A      0.604593  
     104A      0.606589   105A      0.614767   106A      0.625206  
     107A      0.645874   108A      0.649038   109A      0.651810  
     110A      0.663427   111A      0.665631   112A      0.678436  
     113A      0.686309   114A      0.693132   115A      0.700548  
     116A      0.705454   117A      0.710027   118A      0.717947  
     119A      0.720925   120A      0.727170   121A      0.728303  
     122A      0.734129   123A      0.736296   124A      0.749126  
     125A      0.761154   126A      0.764751   127A      0.774025  
     128A      0.781179   129A      0.794909   130A      0.798522  
     131A      0.799525   132A      0.803724   133A      0.806411  
     134A      0.821711   135A      0.823189   136A      0.833340  
     137A      0.840318   138A      0.846307   139A      0.855879  
     140A      0.858596   141A      0.870946   142A      0.879628  
     143A      0.883280   144A      0.888027   145A      0.892669  
     146A      0.905767   147A      0.906953   148A      0.914843  
     149A      0.923489   150A      0.931830   151A      0.941272  
     152A      0.949816   153A      0.952808   154A      0.955803  
     155A      0.968966   156A      0.976114   157A      0.977933  
     158A      0.986223   159A      1.005797   160A      1.010947  
     161A      1.013328   162A      1.020288   163A      1.032140  
     164A      1.038510   165A      1.048927   166A      1.052099  
     167A      1.058064   168A      1.067340   169A      1.073374  
     170A      1.079779   171A      1.084250   172A      1.087823  
     173A      1.097839   174A      1.117392   175A      1.123302  
     176A      1.129081   177A      1.135612   178A      1.142632  
     179A      1.156750   180A      1.171346   181A      1.185969  
     182A      1.193809   183A      1.198556   184A      1.214974  
     185A      1.224870   186A      1.230857   187A      1.244311  
     188A      1.247980   189A      1.265351   190A      1.270963  
     191A      1.280143   192A      1.298028   193A      1.302731  
     194A      1.321083   195A      1.327122   196A      1.346719  
     197A      1.357173   198A      1.369844   199A      1.377412  
     200A      1.388974   201A      1.399385   202A      1.413446  
     203A      1.421448   204A      1.425414   205A      1.445352  
     206A      1.455912   207A      1.464788   208A      1.471779  
     209A      1.482377   210A      1.495177   211A      1.500089  
     212A      1.517034   213A      1.527153   214A      1.542475  
     215A      1.553023   216A      1.558101   217A      1.571052  
     218A      1.592034   219A      1.597804   220A      1.605912  
     221A      1.636093   222A      1.638863   223A      1.649564  
     224A      1.658551   225A      1.665059   226A      1.673709  
     227A      1.690653   228A      1.705842   229A      1.714149  
     230A      1.717319   231A      1.730572   232A      1.737645  
     233A      1.740761   234A      1.749111   235A      1.763369  
     236A      1.776691   237A      1.786170   238A      1.793059  
     239A      1.799463   240A      1.808990   241A      1.822000  
     242A      1.828600   243A      1.836781   244A      1.839920  
     245A      1.850276   246A      1.861552   247A      1.863378  
     248A      1.871051   249A      1.881311   250A      1.892322  
     251A      1.898820   252A      1.904096   253A      1.924357  
     254A      1.927457   255A      1.935054   256A      1.944092  
     257A      1.950393   258A      1.952408   259A      1.961176  
     260A      1.969908   261A      1.978989   262A      1.993453  
     263A      1.998489   264A      2.008269   265A      2.016769  
     266A      2.021928   267A      2.033821   268A      2.035647  
     269A      2.041969   270A      2.050783   271A      2.059251  
     272A      2.065670   273A      2.083341   274A      2.086029  
     275A      2.093930   276A      2.108803   277A      2.112268  
     278A      2.117224   279A      2.136583   280A      2.144489  
     281A      2.147717   282A      2.159826   283A      2.161770  
     284A      2.169735   285A      2.178447   286A      2.191423  
     287A      2.195167   288A      2.200241   289A      2.214089  
     290A      2.218727   291A      2.242257   292A      2.245746  
     293A      2.260574   294A      2.264754   295A      2.278219  
     296A      2.288166   297A      2.295850   298A      2.306997  
     299A      2.309890   300A      2.315283   301A      2.323883  
     302A      2.344850   303A      2.347369   304A      2.366204  
     305A      2.377182   306A      2.382678   307A      2.390798  
     308A      2.396590   309A      2.411163   310A      2.422211  
     311A      2.429200   312A      2.432195   313A      2.449162  
     314A      2.463953   315A      2.478886   316A      2.483271  
     317A      2.488343   318A      2.505384   319A      2.516105  
     320A      2.535128   321A      2.540135   322A      2.559060  
     323A      2.574718   324A      2.576710   325A      2.584168  
     326A      2.610816   327A      2.624704   328A      2.625204  
     329A      2.638446   330A      2.657389   331A      2.660910  
     332A      2.685251   333A      2.694972   334A      2.711304  
     335A      2.720164   336A      2.724466   337A      2.739530  
     338A      2.755227   339A      2.767556   340A      2.779347  
     341A      2.783178   342A      2.806500   343A      2.825305  
     344A      2.835093   345A      2.840958   346A      2.861026  
     347A      2.874925   348A      2.885240   349A      2.904837  
     350A      2.911608   351A      2.922214   352A      2.936843  
     353A      2.941636   354A      2.974703   355A      2.987662  
     356A      2.989239   357A      3.013210   358A      3.029280  
     359A      3.056200   360A      3.069414   361A      3.081911  
     362A      3.096126   363A      3.104858   364A      3.113052  
     365A      3.123662   366A      3.132879   367A      3.142904  
     368A      3.150420   369A      3.170305   370A      3.186164  
     371A      3.188958   372A      3.215543   373A      3.222749  
     374A      3.239636   375A      3.245433   376A      3.292203  
     377A      3.299376   378A      3.307092   379A      3.318572  
     380A      3.338456   381A      3.348622   382A      3.361188  
     383A      3.365622   384A      3.398740   385A      3.413775  
     386A      3.415229   387A      3.445455   388A      3.459689  
     389A      3.477971   390A      3.488680   391A      3.496811  
     392A      3.522189   393A      3.539292   394A      3.576497  
     395A      3.577620   396A      3.584996   397A      3.601019  
     398A      3.616485   399A      3.622440   400A      3.655430  
     401A      3.677180   402A      3.689792   403A      3.704982  
     404A      3.718311   405A      3.724450   406A      3.767514  
     407A      3.775421   408A      3.790366   409A      3.831780  
     410A      3.840063   411A      3.862097   412A      3.867733  
     413A      3.894074   414A      3.898782   415A      3.912132  
     416A      3.921683   417A      3.937397   418A      3.964313  
     419A      3.980772   420A      3.986920   421A      4.015400  
     422A      4.025834   423A      4.047936   424A      4.058995  
     425A      4.072227   426A      4.089381   427A      4.097223  
     428A      4.106695   429A      4.124957   430A      4.133149  
     431A      4.154328   432A      4.161375   433A      4.177768  
     434A      4.191828   435A      4.198849   436A      4.204199  
     437A      4.226408   438A      4.248769   439A      4.266072  
     440A      4.287463   441A      4.299403   442A      4.321027  
     443A      4.348585   444A      4.363011   445A      4.373719  
     446A      4.399704   447A      4.417226   448A      4.437813  
     449A      4.453341   450A      4.462755   451A      4.475113  
     452A      4.498014   453A      4.514828   454A      4.571802  
     455A      4.592260   456A      4.603270   457A      4.617852  
     458A      4.656467   459A      4.667686   460A      4.717964  
     461A      4.730832   462A      4.763814   463A      4.781189  
     464A      4.799563   465A      4.809627   466A      4.829377  
     467A      4.832827   468A      4.871680   469A      4.913715  
     470A      4.948409   471A      4.953275   472A      4.964119  
     473A      5.012591   474A      5.021137   475A      5.028391  
     476A      5.069183   477A      5.094742   478A      5.107005  
     479A      5.130326   480A      5.166728   481A      5.170668  
     482A      5.203245   483A      5.257580   484A      5.266090  
     485A      5.286769   486A      5.320938   487A      5.344770  
     488A      5.357732   489A      5.395728   490A      5.449621  
     491A      5.515595   492A      5.533797   493A      5.592048  
     494A      5.639642   495A      5.684892   496A      5.722904  
     497A      5.809560   498A      5.911380   499A      6.072199  
     500A      6.192984   501A      6.264866   502A      6.289431  
     503A      6.401760   504A      6.438649   505A      6.468751  
     506A      6.534386   507A      6.562848   508A      6.641522  
     509A      6.660024   510A      6.708975   511A      6.724718  
     512A      6.752234   513A      6.770232   514A      6.790597  
     515A      6.823228   516A      6.843474   517A      6.858007  
     518A      6.882700   519A      6.894136   520A      6.896475  
     521A      6.908747   522A      6.923298   523A      6.936417  
     524A      6.956973   525A      7.001903   526A      7.006096  
     527A      7.018307   528A      7.033316   529A      7.062399  
     530A      7.076077   531A      7.087824   532A      7.102054  
     533A      7.107368   534A      7.150988   535A      7.179709  
     536A      7.191641   537A      7.196630   538A      7.209843  
     539A      7.218529   540A      7.235440   541A      7.261969  
     542A      7.296926   543A      7.312547   544A      7.344401  
     545A      7.371240   546A      7.382316   547A      7.398927  
     548A      7.410425   549A      7.447489   550A      7.476980  
     551A      7.491444   552A      7.500975   553A      7.527758  
     554A      7.572438   555A      7.588475   556A      7.624305  
[...]
     228A      1.514038   229A      1.527689   230A      1.537515  
     231A      1.550905   232A      1.559226   233A      1.580397  
     234A      1.598331   235A      1.612322   236A      1.621245  
     237A      1.644571   238A      1.652771   239A      1.665920  
     240A      1.678427   241A      1.685872   242A      1.694073  
     243A      1.701668   244A      1.715627   245A      1.717223  
     246A      1.722993   247A      1.730320   248A      1.734802  
     249A      1.736729   250A      1.744454   251A      1.753855  
     252A      1.763812   253A      1.773121   254A      1.779930  
     255A      1.783805   256A      1.796116   257A      1.801647  
     258A      1.812701   259A      1.827861   260A      1.834302  
     261A      1.840144   262A      1.850388   263A      1.858540  
     264A      1.863474   265A      1.870809   266A      1.876590  
     267A      1.881576   268A      1.894957   269A      1.907179  
     270A      1.913540   271A      1.919284   272A      1.934472  
     273A      1.934712   274A      1.941975   275A      1.951334  
     276A      1.956835   277A      1.962159   278A      1.970528  
     279A      1.978432   280A      1.988967   281A      1.992709  
     282A      2.011187   283A      2.015919   284A      2.022848  
     285A      2.032570   286A      2.038235   287A      2.042867  
     288A      2.057918   289A      2.065104   290A      2.067525  
     291A      2.082960   292A      2.095712   293A      2.104918  
     294A      2.120859   295A      2.129056   296A      2.137452  
     297A      2.141602   298A      2.145597   299A      2.159624  
     300A      2.163788   301A      2.170850   302A      2.171562  
     303A      2.188406   304A      2.195154   305A      2.211559  
     306A      2.219656   307A      2.228375   308A      2.231510  
     309A      2.242462   310A      2.245512   311A      2.251828  
     312A      2.266648   313A      2.274957   314A      2.284657  
     315A      2.293073   316A      2.299926   317A      2.305419  
     318A      2.314855   319A      2.328911   320A      2.333355  
     321A      2.352824   322A      2.357432   323A      2.358386  
     324A      2.367380   325A      2.369645   326A      2.389703  
     327A      2.400482   328A      2.407816   329A      2.420115  
     330A      2.426848   331A      2.431083   332A      2.452767  
     333A      2.458190   334A      2.469583   335A      2.474988  
     336A      2.492608   337A      2.501834   338A      2.511914  
     339A      2.521515   340A      2.540069   341A      2.547980  
     342A      2.559051   343A      2.576854   344A      2.587956  
     345A      2.607165   346A      2.622234   347A      2.631216  
     348A      2.655343   349A      2.663011   350A      2.672803  
     351A      2.684079   352A      2.695666   353A      2.725385  
     354A      2.742289   355A      2.748115   356A      2.761991  
     357A      2.772557   358A      2.782290   359A      2.802488  
     360A      2.815206   361A      2.841699   362A      2.846247  
     363A      2.852677   364A      2.872174   365A      2.882033  
     366A      2.893092   367A      2.918889   368A      2.931060  
     369A      2.934588   370A      2.951184   371A      2.963563  
     372A      2.972111   373A      3.001135   374A      3.012829  
     375A      3.040200   376A      3.043420   377A      3.049491  
     378A      3.070156   379A      3.074528   380A      3.080686  
     381A      3.091179   382A      3.110764   383A      3.118933  
     384A      3.135808   385A      3.145100   386A      3.154675  
     387A      3.182622   388A      3.189015   389A      3.205490  
     390A      3.216025   391A      3.222813   392A      3.240769  
     393A      3.247166   394A      3.263650   395A      3.283902  
     396A      3.296125   397A      3.309502   398A      3.339928  
     399A      3.346976   400A      3.358321   401A      3.374924  
     402A      3.391219   403A      3.400340   404A      3.411796  
     405A      3.427743   406A      3.448174   407A      3.470455  
     408A      3.513070   409A      3.517326   410A      3.544441  
     411A      3.572570   412A      3.591181   413A      3.613952  
     414A      3.633663   415A      3.662744   416A      3.665964  
     417A      3.675385   418A      3.698716   419A      3.705227  
     420A      3.717177   421A      3.742628   422A      3.771667  
     423A      3.772905   424A      3.797972   425A      3.804596  
     426A      3.826833   427A      3.835861   428A      3.850321  
     429A      3.862788   430A      3.873795   431A      3.893548  
     432A      3.905376   433A      3.912985   434A      3.932797  
     435A      3.935561   436A      3.953600   437A      3.957101  
     438A      3.988556   439A      4.008898   440A      4.023123  
     441A      4.042252   442A      4.052924   443A      4.061591  
     444A      4.076181   445A      4.096591   446A      4.109984  
     447A      4.116120   448A      4.123115   449A      4.133377  
     450A      4.148509   451A      4.164285   452A      4.181030  
     453A      4.193174   454A      4.208288   455A      4.213899  
     456A      4.222829   457A      4.253537   458A      4.260701  
     459A      4.273049   460A      4.282814   461A      4.308149  
     462A      4.309180   463A      4.337980   464A      4.340127  
     465A      4.356152   466A      4.370614   467A      4.380547  
     468A      4.407865   469A      4.420818   470A      4.440208  
     471A      4.461434   472A      4.486090   473A      4.509476  
     474A      4.514152   475A      4.523667   476A      4.534131  
     477A      4.563681   478A      4.566430   479A      4.592829  
     480A      4.618784   481A      4.634084   482A      4.654260  
     483A      4.662047   484A      4.665963   485A      4.688007  
     486A      4.700571   487A      4.727546   488A      4.738396  
     489A      4.750083   490A      4.775442   491A      4.792802  
     492A      4.814738   493A      4.839711   494A      4.887027  
     495A      4.910655   496A      4.928340   497A      4.966409  
     498A      4.987473   499A      4.996685   500A      5.038228  
     501A      5.057502   502A      5.083244   503A      5.111946  
     504A      5.157167   505A      5.183142   506A      5.196588  
     507A      5.249435   508A      5.282667   509A      5.338510  
     510A      5.342216   511A      6.175959   512A      6.202696  
     513A      6.246884   514A      6.265928   515A      6.288453  
     516A      6.323921   517A      6.380726   518A      6.397810  
     519A      6.422538   520A      6.459939   521A      6.475634  
     522A      6.480841   523A      6.514874   524A      6.535200  
     525A      6.572468   526A      6.598527   527A      6.651786  
     528A      6.656341   529A      6.723862   530A      6.754016  
     531A      6.763099   532A      6.776195   533A      6.786328  
     534A      6.804986   535A      6.824082   536A      6.838335  
     537A      6.851097   538A      6.864078   539A      6.878463  
     540A      6.891367   541A      6.925328   542A      6.940897  
     543A      6.957044   544A      6.984476   545A      6.997574  
     546A      7.004942   547A      7.016533   548A      7.048379  
     549A      7.049404   550A      7.073635   551A      7.084088  
     552A      7.095475   553A      7.114698   554A      7.141080  
     555A      7.162102   556A      7.175547   557A      7.185863  
     558A      7.203585   559A      7.225334   560A      7.227146  
     561A      7.247552   562A      7.251765   563A      7.280117  
     564A      7.301118   565A      7.326290   566A      7.373493  
     567A      7.387503   568A      7.398222   569A      7.407462  
     570A      7.480274   571A      7.570256   572A      7.579840  
     573A      7.633584   574A      7.637024   575A      7.645749  
     576A      7.661121   577A      7.707051   578A      7.741899  
     579A      7.764564   580A      7.778165   581A      7.786407  
     582A      7.798695   583A      7.808460   584A      7.822067  
     585A      7.852626   586A      7.867119   587A      7.879253  
     588A      7.944893   589A      7.949466   590A      7.983110  
     591A      7.992614   592A      8.003168   593A      8.022865  
     594A      8.026223   595A      8.073068   596A      8.081312  
     597A      8.349704   598A      8.357420   599A      8.359187  
     600A      8.380521   601A      8.417008   602A      8.438050  
     603A      8.454085   604A      8.466300   605A      8.491389  
     606A      8.501929   607A      8.539387   608A      8.557704  
     609A      8.637478   610A      8.668698   611A      8.700376  
     612A      8.714793   613A      8.764190   614A      8.770273  
     615A      8.805548   616A      8.824662   617A      8.874734  
     618A      8.896442   619A      8.898424   620A      8.916185  
     621A      8.953955   622A      8.968011   623A      9.026473  
     624A      9.040240   625A      9.066545   626A      9.072686  
     627A      9.083385   628A      9.115152   629A      9.144954  
     630A      9.207234   631A      9.243937   632A      9.261745  
     633A      9.273232   634A      9.283577   635A      9.303151  
     636A      9.304998   637A      9.324766   638A      9.372373  
     639A      9.468839   640A      9.502060   641A      9.509771  
     642A      9.541032   643A      9.548611   644A      9.576130  
     645A      9.582009   646A      9.591782   647A      9.629680  
     648A      9.660829   649A      9.672624   650A      9.700573  
     651A      9.707077   652A      9.716109   653A      9.826483  
     654A      9.834553   655A      9.864059   656A      9.926171  
     657A      9.962617   658A     10.006239   659A     10.074078  
     660A     10.101011   661A     10.121162   662A     10.140978  
     663A     10.194796   664A     10.212487   665A     10.260463  
     666A     10.297397   667A     10.418105   668A     10.427695  
     669A     10.439964   670A     10.485036   671A     10.501311  
     672A     10.509487   673A     10.853922   674A     10.864124  
     675A     10.906160   676A     10.914516   677A     10.979257  
     678A     11.026831   679A     11.086273   680A     11.098750  
     681A     11.128124   682A     11.152530   683A     11.194610  
     684A     11.213447   685A     11.503882   686A     11.527489  
     687A     13.284975   688A     13.299347   689A     13.335053  
     690A     13.363966   691A     13.443459   692A     13.466125  
     693A     22.452983   694A     22.622112   695A     28.699200  
     696A     28.716530  

    Final Occupation by Irrep:
              A 
    DOCC [    26 ]

  @DF-RHF Final Energy:  -875.52084077279505

   => Energetics <=

    Nuclear Repulsion Energy =            212.9062111258948562
    One-Electron Energy =               -1630.7980151855404074
    Two-Electron Energy =                 542.3709632868503832
    Total Energy =                       -875.5208407727950544

Computation Completed


Properties will be evaluated at   0.000000,   0.000000,   0.000000 [a0]

Properties computed using the SCF density matrix

  Nuclear Dipole Moment: [e a0]
     X:     0.4761      Y:    -3.3235      Z:    -3.1721

  Electronic Dipole Moment: [e a0]
     X:    -0.1376      Y:     2.9515      Z:     2.7841

  Dipole Moment: [e a0]
     X:     0.3385      Y:    -0.3721      Z:    -0.3879     Total:     0.6352

  Dipole Moment: [D]
     X:     0.8603      Y:    -0.9457      Z:    -0.9860     Total:     1.6146


*** tstop() called on node37.bme.utexas.edu at Sat Apr 11 16:36:10 2020
Module time:
	user time   =     160.55 seconds =       2.68 minutes
	system time =       7.83 seconds =       0.13 minutes
	total time  =         32 seconds =       0.53 minutes
Total time:
	user time   =     830.56 seconds =      13.84 minutes
	system time =      49.32 seconds =       0.82 minutes
	total time  =        185 seconds =       3.08 minutes

*** tstart() called on node37.bme.utexas.edu
*** at Sat Apr 11 16:36:10 2020


  //>>>>>>>>>>>>>>>>>>>>>>>>>>>>>>>>>>>//
  //               DFMP2               //
  //<<<<<<<<<<<<<<<<<<<<<<<<<<<<<<<<<<<//

   => Loading Basis Set <=

    Name: (AUG-CC-PVQZ AUX)
    Role: RIFIT
    Keyword: DF_BASIS_MP2
    atoms 1, 7      entry C          line   184 file /home/liuchw/anaconda3/envs/psi4env/share/psi4/basis/aug-cc-pvqz-ri.gbs 
    atoms 2, 8      entry S          line   824 file /home/liuchw/anaconda3/envs/psi4env/share/psi4/basis/aug-cc-pvqz-ri.gbs 
    atoms 3-6, 9-12 entry H          line    30 file /home/liuchw/anaconda3/envs/psi4env/share/psi4/basis/aug-cc-pvqz-ri.gbs 

	 --------------------------------------------------------
	                          DF-MP2                         
	      2nd-Order Density-Fitted Moller-Plesset Theory     
	              RMP2 Wavefunction,   6 Threads             
	                                                         
	        Rob Parrish, Justin Turney, Andy Simmonett,      
	           Ed Hohenstein, and C. David Sherrill          
	 --------------------------------------------------------

   => Auxiliary Basis Set <=

  Basis Set: (AUG-CC-PVQZ AUX)
    Blend: AUG-CC-PVQZ-RI
    Number of shells: 320
    Number of basis function: 1364
    Number of Cartesian functions: 1850
    Spherical Harmonics?: true
    Max angular momentum: 5

	 --------------------------------------------------------
	                 NBF =   696, NAUX =  1364
	 --------------------------------------------------------
	   CLASS    FOCC     OCC    AOCC    AVIR     VIR    FVIR
	   PAIRS       0      26      26     670     670       0
	 --------------------------------------------------------

	-----------------------------------------------------------
	 ==================> DF-MP2 Energies <==================== 
	-----------------------------------------------------------
	 Reference Energy          =    -875.5208407727950544 [Eh]
	 Singles Energy            =      -0.0000000000000000 [Eh]
	 Same-Spin Energy          =      -0.2128514702915741 [Eh]
	 Opposite-Spin Energy      =      -0.7660357338621633 [Eh]
	 Correlation Energy        =      -0.9788872041537374 [Eh]
	 Total Energy              =    -876.4997279769487477 [Eh]
	-----------------------------------------------------------
	 ================> DF-SCS-MP2 Energies <================== 
	-----------------------------------------------------------
	 SCS Same-Spin Scale       =       0.3333333333333333 [-]
	 SCS Opposite-Spin Scale   =       1.2000000000000000 [-]
	 SCS Same-Spin Energy      =      -0.0709504900971914 [Eh]
	 SCS Opposite-Spin Energy  =      -0.9192428806345959 [Eh]
	 SCS Correlation Energy    =      -0.9901933707317873 [Eh]
	 SCS Total Energy          =    -876.5110341435267856 [Eh]
	-----------------------------------------------------------


*** tstop() called on node37.bme.utexas.edu at Sat Apr 11 16:36:31 2020
Module time:
	user time   =      83.36 seconds =       1.39 minutes
	system time =       4.79 seconds =       0.08 minutes
	total time  =         21 seconds =       0.35 minutes
Total time:
	user time   =     913.92 seconds =      15.23 minutes
	system time =      54.11 seconds =       0.90 minutes
	total time  =        206 seconds =       3.43 minutes

  //>>>>>>>>>>>>>>>>>>>>>>>>>>>>>>>>>>>//
  //  CBS Results: mp2/aug-cc-pv[tq]z  //
  //<<<<<<<<<<<<<<<<<<<<<<<<<<<<<<<<<<<//


   ==> HF <==

   HI-zeta (4) Energy:               -875.520840772795


   ==> Helgaker 2-point correlated extrapolation for method: MP2 <==

   LO-zeta (3) Energy:               -876.380166080179
   HI-zeta (4) Energy:               -876.499727976949
   Alpha (exponent) Value:             3.000000000000
   Extrapolated Energy:              -876.586975847564

   @Extrapolated MP2/(T,Q):          -876.586975847564



   ==> Helgaker 2-point correlated extrapolation for method: HF <==

   LO-zeta (3) Energy:               -875.507664450611
   HI-zeta (4) Energy:               -875.520840772795
   Alpha (exponent) Value:             3.000000000000
   Extrapolated Energy:              -875.530455926821

   @Extrapolated HF/(T,Q):           -875.530455926821


   ==> Components <==

  ---------------------------------------------------------------------------------------------------------
                          Method / Basis                      Rqd      Energy [Eh]   Variable
  ---------------------------------------------------------------------------------------------------------
                              hf / aug-cc-pvtz                  *    -875.50766445   HF TOTAL ENERGY
                             mp2 / aug-cc-pvtz                  *    -876.38016608   MP2 TOTAL ENERGY
                              hf / aug-cc-pvqz                  *    -875.52084077   HF TOTAL ENERGY
                             mp2 / aug-cc-pvqz                  *    -876.49972798   MP2 TOTAL ENERGY
  ---------------------------------------------------------------------------------------------------------

   ==> Stages <==

  ---------------------------------------------------------------------------------------------------------
      Stage               Method / Basis                       Wt      Energy [Eh]   Scheme
  ---------------------------------------------------------------------------------------------------------
        scf                   hf / aug-cc-pvqz                  1    -875.52084077   xtpl_highest_1
       corl                  mp2 / aug-cc-pv[tq]z               1    -876.58697585   corl_xtpl_helgaker_2
       corl                   hf / aug-cc-pv[tq]z              -1    -875.53045593   corl_xtpl_helgaker_2
  ---------------------------------------------------------------------------------------------------------

   ==> CBS <==

  ---------------------------------------------------------------------------------------------------------
      Stage               Method / Basis                               Energy [Eh]   Scheme
  ---------------------------------------------------------------------------------------------------------
        scf                   hf / aug-cc-pvqz                       -875.52084077   xtpl_highest_1
       corl                  mp2 / aug-cc-pv[tq]z                      -1.05651992   corl_xtpl_helgaker_2
      total                  CBS                                     -876.57736069   
  ---------------------------------------------------------------------------------------------------------
   => Loading Basis Set <=

    Name: DEF2-SVP
    Role: ORBITAL
    Keyword: BASIS
    atoms 1, 7      entry C          line    90 file /home/liuchw/anaconda3/envs/psi4env/share/psi4/basis/def2-svp.gbs 
    atoms 2, 8      entry S          line   328 file /home/liuchw/anaconda3/envs/psi4env/share/psi4/basis/def2-svp.gbs 
    atoms 3-6, 9-12 entry H          line    15 file /home/liuchw/anaconda3/envs/psi4env/share/psi4/basis/def2-svp.gbs 


       N-Body: Complex Energy (fragments = (1, 2), basis = (1, 2):  -876.57736069353814)

   ==> N-Body: Counterpoise Corrected (CP) energies <==

   n-Body     Total Energy [Eh]       I.E. [kcal/mol]      Delta [kcal/mol]
        1     -876.573340861267        0.000000000000        0.000000000000
        2     -876.577771556359       -2.780303145630       -2.780303145630

   => Loading Basis Set <=

    Name: DEF2-SVP
    Role: ORBITAL
    Keyword: BASIS
    atoms 1, 7      entry C          line    90 file /home/liuchw/anaconda3/envs/psi4env/share/psi4/basis/def2-svp.gbs 
    atoms 2, 8      entry S          line   328 file /home/liuchw/anaconda3/envs/psi4env/share/psi4/basis/def2-svp.gbs 
    atoms 3-6, 9-12 entry H          line    15 file /home/liuchw/anaconda3/envs/psi4env/share/psi4/basis/def2-svp.gbs 


    Psi4 stopped on: Saturday, 11 April 2020 04:36PM
    Psi4 wall time for execution: 0:03:26.94

*** Psi4 exiting successfully. Buy a developer a beer!
