
    -----------------------------------------------------------------------
          Psi4: An Open-Source Ab Initio Electronic Structure Package
                               Psi4 1.4a2.dev224 

                         Git: Rev {master} e453b16 


    R. M. Parrish, L. A. Burns, D. G. A. Smith, A. C. Simmonett,
    A. E. DePrince III, E. G. Hohenstein, U. Bozkaya, A. Yu. Sokolov,
    R. Di Remigio, R. M. Richard, J. F. Gonthier, A. M. James,
    H. R. McAlexander, A. Kumar, M. Saitow, X. Wang, B. P. Pritchard,
    P. Verma, H. F. Schaefer III, K. Patkowski, R. A. King, E. F. Valeev,
    F. A. Evangelista, J. M. Turney, T. D. Crawford, and C. D. Sherrill,
    J. Chem. Theory Comput. 13(7) pp 3185--3197 (2017).
    (doi: 10.1021/acs.jctc.7b00174)


                         Additional Contributions by
    P. Kraus, H. Kruse, M. H. Lechner, M. C. Schieber, R. A. Shaw,
    A. Alenaizan, R. Galvelis, Z. L. Glick, S. Lehtola, and J. P. Misiewicz

    -----------------------------------------------------------------------


    Psi4 started on: Saturday, 11 April 2020 04:28PM

    Process ID: 21718
    Host:       node70.bme.utexas.edu
    PSIDATADIR: /home/liuchw/anaconda3/envs/psi4env/share/psi4
    Memory:     500.0 MiB
    Threads:    6
    
  ==> Input File <==

--------------------------------------------------------------------------
#Generated by lconvert.py for cbs job

memory 40 GB

molecule  {
0 1
  C        0.7948210    -0.0027360    -0.4136000
  S        0.7802790     1.8084980    -0.2820150
  H        1.1986090     1.8743000     0.9851210
  H        0.0538160    -0.4488100     0.2435360
  H        0.5412540    -0.2325420    -1.4449730
  H        1.7824700    -0.4000990    -0.2035800
--
0 1
  C       -2.1192950     0.5976960    -0.8593920
  S       -1.7830850     0.6955230     0.9212090
  H       -0.7716170     1.5656510     0.8157440
  H       -1.2562780     0.2240290    -1.4022650
  H       -2.4175600     1.5632860    -1.2547160
  H       -2.9409900    -0.1024270    -0.9817450
units angstrom
no_reorient
symmetry c1
}

set {
scf_type DF
mp2_type DF
e_convergence 7
reference rhf
}

energy('mp2/aug-cc-pv[tq]z', bsse_type='cp')
--------------------------------------------------------------------------

  Memory set to  37.253 GiB by Python driver.

Scratch directory: /scratch//


   ===> N-Body Interaction Abacus <===
        BSSE Treatment:                     cp
        Number of 1-body computations:     4
        Number of 2-body computations:     1

   ==> N-Body: Now computing 1-body complexes <==


       N-Body: Computing complex (1/4) with fragments (2,) in the basis of fragments (2,).


Scratch directory: /scratch//

  //>>>>>>>>>>>>>>>>>>>>>>>>>>>>>>>>>>>//
  //   CBS Setup: mp2/aug-cc-pv[tq]z   //
  //<<<<<<<<<<<<<<<<<<<<<<<<<<<<<<<<<<<//

    Naive listing of computations required.
             hf / aug-cc-pvqz              for  HF TOTAL ENERGY
            mp2 / aug-cc-pvtz              for  MP2 TOTAL ENERGY
            mp2 / aug-cc-pvqz              for  MP2 TOTAL ENERGY
             hf / aug-cc-pvtz              for  HF TOTAL ENERGY
             hf / aug-cc-pvqz              for  HF TOTAL ENERGY

    Enlightened listing of computations required.
            mp2 / aug-cc-pvtz              for  MP2 TOTAL ENERGY
            mp2 / aug-cc-pvqz              for  MP2 TOTAL ENERGY

    Full listing of computations to be obtained (required and bonus).
             hf / aug-cc-pvtz              for  HF TOTAL ENERGY
            mp2 / aug-cc-pvtz              for  MP2 TOTAL ENERGY
             hf / aug-cc-pvqz              for  HF TOTAL ENERGY
            mp2 / aug-cc-pvqz              for  MP2 TOTAL ENERGY

  //>>>>>>>>>>>>>>>>>>>>>>>>>>>>>>>>>>>>//
  // CBS Computation: MP2 / AUG-CC-PVTZ //
  //<<<<<<<<<<<<<<<<<<<<<<<<<<<<<<<<<<<<//


Scratch directory: /scratch//

*** tstart() called on node70.bme.utexas.edu
*** at Sat Apr 11 16:28:25 2020

   => Loading Basis Set <=

    Name: AUG-CC-PVTZ
    Role: ORBITAL
    Keyword: BASIS
    atoms 1   entry C          line   239 file /home/liuchw/anaconda3/envs/psi4env/share/psi4/basis/aug-cc-pvtz.gbs 
    atoms 2   entry S          line   906 file /home/liuchw/anaconda3/envs/psi4env/share/psi4/basis/aug-cc-pvtz.gbs 
    atoms 3-6 entry H          line    40 file /home/liuchw/anaconda3/envs/psi4env/share/psi4/basis/aug-cc-pvtz.gbs 


         ---------------------------------------------------------
                                   SCF
               by Justin Turney, Rob Parrish, Andy Simmonett
                          and Daniel G. A. Smith
                              RHF Reference
                        6 Threads,  38146 MiB Core
         ---------------------------------------------------------

  ==> Geometry <==

    Molecular point group: c1
    Full point group: C1

    Geometry (in Angstrom), charge = 0, multiplicity = 1:

       Center              X                  Y                   Z               Mass       
    ------------   -----------------  -----------------  -----------------  -----------------
         C           -1.579795553515    -0.353000615649    -0.879101016117    12.000000000000
         S           -1.243585553515    -0.255173615649     0.901499983883    31.972071174400
         H           -0.232117553515     0.614954384351     0.796034983883     1.007825032230
         H           -0.716778553515    -0.726667615649    -1.421974016117     1.007825032230
         H           -1.878060553515     0.612589384351    -1.274425016117     1.007825032230
         H           -2.401490553515    -1.053123615649    -1.001454016117     1.007825032230

  Running in c1 symmetry.

  Rotational constants: A =      0.42887  B =      0.17100  C =      0.12589 [cm^-1]
  Rotational constants: A =  12857.13668  B =   5126.31506  C =   3774.02463 [MHz]
  Nuclear repulsion =   56.451077585270944

  Charge       = 0
  Multiplicity = 1
  Electrons    = 26
  Nalpha       = 13
  Nbeta        = 13

  ==> Algorithm <==

  SCF Algorithm Type is DF.
  DIIS enabled.
  MOM disabled.
  Fractional occupation disabled.
  Guess Type is SAD.
  Energy threshold   = 1.00e-07
  Density threshold  = 1.00e-08
  Integral threshold = 0.00e+00

  ==> Primary Basis <==

  Basis Set: AUG-CC-PVTZ
    Blend: AUG-CC-PVTZ
    Number of shells: 66
    Number of basis function: 188
    Number of Cartesian functions: 214
    Spherical Harmonics?: true
    Max angular momentum: 3

   => Loading Basis Set <=

    Name: (AUG-CC-PVTZ AUX)
    Role: JKFIT
    Keyword: DF_BASIS_SCF
    atoms 1   entry C          line   162 file /home/liuchw/anaconda3/envs/psi4env/share/psi4/basis/aug-cc-pvtz-jkfit.gbs 
    atoms 2   entry S          line   730 file /home/liuchw/anaconda3/envs/psi4env/share/psi4/basis/aug-cc-pvtz-jkfit.gbs 
    atoms 3-6 entry H          line    70 file /home/liuchw/anaconda3/envs/psi4env/share/psi4/basis/aug-cc-pvtz-jkfit.gbs 

  ==> Pre-Iterations <==

   -------------------------------------------------------
    Irrep   Nso     Nmo     Nalpha   Nbeta   Ndocc  Nsocc
   -------------------------------------------------------
     A        188     188       0       0       0       0
   -------------------------------------------------------
    Total     188     188      13      13      13       0
   -------------------------------------------------------

  ==> Integral Setup <==

  DFHelper Memory: AOs need 0.124 GiB; user supplied 27.940 GiB. Using in-core AOs.

  ==> MemDFJK: Density-Fitted J/K Matrices <==

    J tasked:                   Yes
    K tasked:                   Yes
    wK tasked:                   No
    OpenMP threads:               6
    Memory [MiB]:             28610
    Algorithm:                 Core
    Schwarz Cutoff:           1E-12
    Mask sparsity (%):       0.0000
    Fitting Condition:        1E-10

   => Auxiliary Basis Set <=

  Basis Set: (AUG-CC-PVTZ AUX)
    Blend: AUG-CC-PVTZ-JKFIT
    Number of shells: 128
    Number of basis function: 434
    Number of Cartesian functions: 531
    Spherical Harmonics?: true
    Max angular momentum: 4

  Minimum eigenvalue in the overlap matrix is 6.8966459799E-05.
  Using Symmetric Orthogonalization.

  SCF Guess: Superposition of Atomic Densities via on-the-fly atomic UHF.

  ==> Iterations <==

                           Total Energy        Delta E     RMS |[F,P]|

   @DF-RHF iter SAD:  -437.28555097449515   -4.37286e+02   0.00000e+00 
   @DF-RHF iter   1:  -437.69176024203546   -4.06209e-01   1.69285e-03 DIIS
   @DF-RHF iter   2:  -437.74692433217012   -5.51641e-02   6.97748e-04 DIIS
   @DF-RHF iter   3:  -437.75629593605839   -9.37160e-03   1.68728e-04 DIIS
   @DF-RHF iter   4:  -437.75740462228407   -1.10869e-03   4.56212e-05 DIIS
   @DF-RHF iter   5:  -437.75749021231809   -8.55900e-05   1.07787e-05 DIIS
   @DF-RHF iter   6:  -437.75749626372505   -6.05141e-06   2.93714e-06 DIIS
   @DF-RHF iter   7:  -437.75749678601295   -5.22288e-07   8.42017e-07 DIIS
   @DF-RHF iter   8:  -437.75749683131357   -4.53006e-08   1.61836e-07 DIIS
   @DF-RHF iter   9:  -437.75749683307208   -1.75851e-09   2.88363e-08 DIIS
   @DF-RHF iter  10:  -437.75749683312523   -5.31486e-11   6.48609e-09 DIIS
  Energy and wave function converged.


  ==> Post-Iterations <==

    Orbital Energies [Eh]
    ---------------------

    Doubly Occupied:                                                      

       1A    -91.953524     2A    -11.257077     3A     -8.954691  
       4A     -6.636071     5A     -6.635074     6A     -6.633988  
       7A     -1.038828     8A     -0.867047     9A     -0.609326  
      10A     -0.592818    11A     -0.527082    12A     -0.461410  
      13A     -0.357324  

    Virtual:                                                              

      14A      0.029396    15A      0.040898    16A      0.046991  
      17A      0.051139    18A      0.084951    19A      0.097826  
      20A      0.115305    21A      0.116427    22A      0.133174  
      23A      0.135788    24A      0.139318    25A      0.175560  
      26A      0.197179    27A      0.211370    28A      0.218580  
      29A      0.245730    30A      0.262952    31A      0.269545  
      32A      0.287324    33A      0.288157    34A      0.321100  
      35A      0.332508    36A      0.333474    37A      0.343830  
      38A      0.369758    39A      0.379737    40A      0.390378  
      41A      0.391203    42A      0.406822    43A      0.408394  
      44A      0.418381    45A      0.431805    46A      0.439765  
      47A      0.439956    48A      0.451992    49A      0.462044  
      50A      0.482487    51A      0.497389    52A      0.499181  
      53A      0.635473    54A      0.637381    55A      0.660306  
      56A      0.677092    57A      0.692716    58A      0.709074  
      59A      0.729771    60A      0.769903    61A      0.800201  
      62A      0.817143    63A      0.838112    64A      0.846074  
      65A      0.858799    66A      0.868167    67A      0.869644  
      68A      0.893775    69A      0.915416    70A      0.938247  
      71A      0.943795    72A      0.959948    73A      0.976351  
      74A      0.983316    75A      0.994262    76A      1.017667  
      77A      1.023814    78A      1.032371    79A      1.075438  
      80A      1.080022    81A      1.087759    82A      1.097110  
      83A      1.111270    84A      1.124839    85A      1.167106  
      86A      1.174699    87A      1.202334    88A      1.216926  
      89A      1.252264    90A      1.272916    91A      1.303494  
      92A      1.312094    93A      1.340642    94A      1.353198  
      95A      1.390268    96A      1.397951    97A      1.477646  
      98A      1.572405    99A      1.587048   100A      1.615690  
     101A      1.636480   102A      1.639991   103A      1.657774  
     104A      1.672349   105A      1.687258   106A      1.693426  
     107A      1.711125   108A      1.743846   109A      1.757252  
     110A      1.803162   111A      1.889126   112A      1.931529  
     113A      1.943112   114A      1.994169   115A      2.016842  
     116A      2.069821   117A      2.136372   118A      2.150270  
     119A      2.181426   120A      2.189078   121A      2.211612  
     122A      2.288030   123A      2.344283   124A      2.387389  
     125A      2.453530   126A      2.499714   127A      2.546722  
     128A      2.581181   129A      2.640101   130A      2.661005  
     131A      2.706236   132A      2.755495   133A      2.812532  
     134A      3.022124   135A      3.062036   136A      3.081081  
     137A      3.349782   138A      3.354186   139A      3.514725  
     140A      3.527327   141A      3.579097   142A      3.592162  
     143A      3.594529   144A      3.612437   145A      3.649348  
     146A      3.771356   147A      3.793431   148A      3.924025  
     149A      3.934992   150A      4.000342   151A      4.004709  
     152A      4.078576   153A      4.101414   154A      4.116857  
     155A      4.128230   156A      4.174963   157A      4.197754  
     158A      4.239294   159A      4.366878   160A      4.438385  
     161A      4.473278   162A      4.483212   163A      4.503589  
     164A      4.550899   165A      4.558282   166A      4.661013  
     167A      4.747674   168A      4.758416   169A      4.802752  
     170A      4.904786   171A      4.915441   172A      4.963780  
     173A      4.998596   174A      5.152207   175A      5.177573  
     176A      5.247316   177A      5.314149   178A      5.551800  
     179A      5.573037   180A      5.583484   181A      5.610211  
     182A      5.966141   183A      6.076909   184A      6.086063  
     185A      6.617248   186A      6.656502   187A      7.680074  
     188A     16.978512  

    Final Occupation by Irrep:
              A 
    DOCC [    13 ]

  @DF-RHF Final Energy:  -437.75749683312523

   => Energetics <=

    Nuclear Repulsion Energy =             56.4510775852709443
    One-Electron Energy =                -715.3686262529420219
    Two-Electron Energy =                 221.1600518345458681
    Total Energy =                       -437.7574968331252308

Computation Completed


Properties will be evaluated at   0.000000,   0.000000,   0.000000 [a0]

Properties computed using the SCF density matrix

  Nuclear Dipole Moment: [e a0]
     X:   -65.3932      Y:   -12.7614      Z:    11.8062

  Electronic Dipole Moment: [e a0]
     X:    65.5035      Y:    12.9213      Z:   -12.4346

  Dipole Moment: [e a0]
     X:     0.1103      Y:     0.1599      Z:    -0.6284     Total:     0.6577

  Dipole Moment: [D]
     X:     0.2803      Y:     0.4064      Z:    -1.5972     Total:     1.6717


*** tstop() called on node70.bme.utexas.edu at Sat Apr 11 16:28:27 2020
Module time:
	user time   =       9.50 seconds =       0.16 minutes
	system time =       0.47 seconds =       0.01 minutes
	total time  =          2 seconds =       0.03 minutes
Total time:
	user time   =       9.50 seconds =       0.16 minutes
	system time =       0.47 seconds =       0.01 minutes
	total time  =          2 seconds =       0.03 minutes

*** tstart() called on node70.bme.utexas.edu
*** at Sat Apr 11 16:28:27 2020


  //>>>>>>>>>>>>>>>>>>>>>>>>>>>>>>>>>>>//
  //               DFMP2               //
  //<<<<<<<<<<<<<<<<<<<<<<<<<<<<<<<<<<<//

   => Loading Basis Set <=

    Name: (AUG-CC-PVTZ AUX)
    Role: RIFIT
    Keyword: DF_BASIS_MP2
    atoms 1   entry C          line   148 file /home/liuchw/anaconda3/envs/psi4env/share/psi4/basis/aug-cc-pvtz-ri.gbs 
    atoms 2   entry S          line   666 file /home/liuchw/anaconda3/envs/psi4env/share/psi4/basis/aug-cc-pvtz-ri.gbs 
    atoms 3-6 entry H          line    30 file /home/liuchw/anaconda3/envs/psi4env/share/psi4/basis/aug-cc-pvtz-ri.gbs 

	 --------------------------------------------------------
	                          DF-MP2                         
	      2nd-Order Density-Fitted Moller-Plesset Theory     
	              RMP2 Wavefunction,   6 Threads             
	                                                         
	        Rob Parrish, Justin Turney, Andy Simmonett,      
	           Ed Hohenstein, and C. David Sherrill          
	 --------------------------------------------------------

   => Auxiliary Basis Set <=

  Basis Set: (AUG-CC-PVTZ AUX)
    Blend: AUG-CC-PVTZ-RI
    Number of shells: 121
    Number of basis function: 437
    Number of Cartesian functions: 547
    Spherical Harmonics?: true
    Max angular momentum: 4

	 --------------------------------------------------------
	                 NBF =   188, NAUX =   437
	 --------------------------------------------------------
	   CLASS    FOCC     OCC    AOCC    AVIR     VIR    FVIR
	   PAIRS       0      13      13     175     175       0
	 --------------------------------------------------------

	-----------------------------------------------------------
	 ==================> DF-MP2 Energies <==================== 
	-----------------------------------------------------------
	 Reference Energy          =    -437.7574968331252308 [Eh]
	 Singles Energy            =      -0.0000000000000000 [Eh]
	 Same-Spin Energy          =      -0.0937214438991915 [Eh]
	 Opposite-Spin Energy      =      -0.3348936048894204 [Eh]
	 Correlation Energy        =      -0.4286150487886119 [Eh]
	 Total Energy              =    -438.1861118819138596 [Eh]
	-----------------------------------------------------------
	 ================> DF-SCS-MP2 Energies <================== 
	-----------------------------------------------------------
	 SCS Same-Spin Scale       =       0.3333333333333333 [-]
	 SCS Opposite-Spin Scale   =       1.2000000000000000 [-]
	 SCS Same-Spin Energy      =      -0.0312404812997305 [Eh]
	 SCS Opposite-Spin Energy  =      -0.4018723258673045 [Eh]
	 SCS Correlation Energy    =      -0.4331128071670350 [Eh]
	 SCS Total Energy          =    -438.1906096402922799 [Eh]
	-----------------------------------------------------------


*** tstop() called on node70.bme.utexas.edu at Sat Apr 11 16:28:28 2020
Module time:
	user time   =       4.03 seconds =       0.07 minutes
	system time =       0.20 seconds =       0.00 minutes
	total time  =          1 seconds =       0.02 minutes
Total time:
	user time   =      13.53 seconds =       0.23 minutes
	system time =       0.67 seconds =       0.01 minutes
	total time  =          3 seconds =       0.05 minutes

  //>>>>>>>>>>>>>>>>>>>>>>>>>>>>>>>>>>>>//
  // CBS Computation: MP2 / AUG-CC-PVQZ //
  //<<<<<<<<<<<<<<<<<<<<<<<<<<<<<<<<<<<<//


Scratch directory: /scratch//

*** tstart() called on node70.bme.utexas.edu
*** at Sat Apr 11 16:28:28 2020

   => Loading Basis Set <=

    Name: AUG-CC-PVQZ
    Role: ORBITAL
    Keyword: BASIS
    atoms 1   entry C          line   303 file /home/liuchw/anaconda3/envs/psi4env/share/psi4/basis/aug-cc-pvqz.gbs 
    atoms 2   entry S          line  1126 file /home/liuchw/anaconda3/envs/psi4env/share/psi4/basis/aug-cc-pvqz.gbs 
    atoms 3-6 entry H          line    40 file /home/liuchw/anaconda3/envs/psi4env/share/psi4/basis/aug-cc-pvqz.gbs 


         ---------------------------------------------------------
                                   SCF
               by Justin Turney, Rob Parrish, Andy Simmonett
                          and Daniel G. A. Smith
                              RHF Reference
                        6 Threads,  38146 MiB Core
         ---------------------------------------------------------

  ==> Geometry <==

    Molecular point group: c1
    Full point group: C1

    Geometry (in Angstrom), charge = 0, multiplicity = 1:

       Center              X                  Y                   Z               Mass       
    ------------   -----------------  -----------------  -----------------  -----------------
         C           -1.579795553515    -0.353000615649    -0.879101016117    12.000000000000
         S           -1.243585553515    -0.255173615649     0.901499983883    31.972071174400
         H           -0.232117553515     0.614954384351     0.796034983883     1.007825032230
         H           -0.716778553515    -0.726667615649    -1.421974016117     1.007825032230
         H           -1.878060553515     0.612589384351    -1.274425016117     1.007825032230
         H           -2.401490553515    -1.053123615649    -1.001454016117     1.007825032230

  Running in c1 symmetry.

  Rotational constants: A =      0.42887  B =      0.17100  C =      0.12589 [cm^-1]
  Rotational constants: A =  12857.13668  B =   5126.31506  C =   3774.02463 [MHz]
  Nuclear repulsion =   56.451077585270944

  Charge       = 0
  Multiplicity = 1
  Electrons    = 26
  Nalpha       = 13
  Nbeta        = 13

  ==> Algorithm <==

  SCF Algorithm Type is DF.
  DIIS enabled.
  MOM disabled.
  Fractional occupation disabled.
  Guess Type is SAD.
  Energy threshold   = 1.00e-07
  Density threshold  = 1.00e-08
  Integral threshold = 0.00e+00

  ==> Primary Basis <==

  Basis Set: AUG-CC-PVQZ
    Blend: AUG-CC-PVQZ
    Number of shells: 98
    Number of basis function: 348
    Number of Cartesian functions: 434
    Spherical Harmonics?: true
    Max angular momentum: 4

   => Loading Basis Set <=

    Name: (AUG-CC-PVQZ AUX)
    Role: JKFIT
    Keyword: DF_BASIS_SCF
    atoms 1   entry C          line   178 file /home/liuchw/anaconda3/envs/psi4env/share/psi4/basis/aug-cc-pvqz-jkfit.gbs 
    atoms 2   entry S          line   810 file /home/liuchw/anaconda3/envs/psi4env/share/psi4/basis/aug-cc-pvqz-jkfit.gbs 
    atoms 3-6 entry H          line    70 file /home/liuchw/anaconda3/envs/psi4env/share/psi4/basis/aug-cc-pvqz-jkfit.gbs 

  ==> Pre-Iterations <==

   -------------------------------------------------------
    Irrep   Nso     Nmo     Nalpha   Nbeta   Ndocc  Nsocc
   -------------------------------------------------------
     A        348     348       0       0       0       0
   -------------------------------------------------------
    Total     348     348      13      13      13       0
   -------------------------------------------------------

  ==> Integral Setup <==

  DFHelper Memory: AOs need 0.606 GiB; user supplied 27.940 GiB. Using in-core AOs.

  ==> MemDFJK: Density-Fitted J/K Matrices <==

    J tasked:                   Yes
    K tasked:                   Yes
    wK tasked:                   No
    OpenMP threads:               6
    Memory [MiB]:             28610
    Algorithm:                 Core
    Schwarz Cutoff:           1E-12
    Mask sparsity (%):       0.1883
    Fitting Condition:        1E-10

   => Auxiliary Basis Set <=

  Basis Set: (AUG-CC-PVQZ AUX)
    Blend: AUG-CC-PVQZ-JKFIT
    Number of shells: 152
    Number of basis function: 630
    Number of Cartesian functions: 849
    Spherical Harmonics?: true
    Max angular momentum: 5

  Minimum eigenvalue in the overlap matrix is 1.5472607167E-05.
  Using Symmetric Orthogonalization.

  SCF Guess: Superposition of Atomic Densities via on-the-fly atomic UHF.

  ==> Iterations <==

                           Total Energy        Delta E     RMS |[F,P]|

   @DF-RHF iter SAD:  -437.28930800646424   -4.37289e+02   0.00000e+00 
   @DF-RHF iter   1:  -437.69787583963455   -4.08568e-01   9.29187e-04 DIIS
   @DF-RHF iter   2:  -437.75342584935584   -5.55500e-02   3.82272e-04 DIIS
   @DF-RHF iter   3:  -437.76290291167129   -9.47706e-03   9.40638e-05 DIIS
   @DF-RHF iter   4:  -437.76403701499646   -1.13410e-03   2.62064e-05 DIIS
   @DF-RHF iter   5:  -437.76413522474184   -9.82097e-05   6.08622e-06 DIIS
   @DF-RHF iter   6:  -437.76414196207230   -6.73733e-06   1.69520e-06 DIIS
   @DF-RHF iter   7:  -437.76414254552554   -5.83453e-07   5.04574e-07 DIIS
   @DF-RHF iter   8:  -437.76414259902083   -5.34953e-08   9.80739e-08 DIIS
   @DF-RHF iter   9:  -437.76414260119623   -2.17540e-09   1.76384e-08 DIIS
   @DF-RHF iter  10:  -437.76414260126154   -6.53131e-11   3.78869e-09 DIIS
  Energy and wave function converged.


  ==> Post-Iterations <==

    Orbital Energies [Eh]
    ---------------------

    Doubly Occupied:                                                      

       1A    -91.951201     2A    -11.255709     3A     -8.953471  
       4A     -6.635104     5A     -6.634174     6A     -6.633206  
       7A     -1.038350     8A     -0.866780     9A     -0.609334  
      10A     -0.592806    11A     -0.527278    12A     -0.461618  
      13A     -0.357323  

    Virtual:                                                              

      14A      0.026099    15A      0.036815    16A      0.042271  
      17A      0.045593    18A      0.072359    19A      0.084034  
      20A      0.095240    21A      0.096673    22A      0.114418  
      23A      0.118799    24A      0.122951    25A      0.149669  
      26A      0.169287    27A      0.184267    28A      0.185478  
      29A      0.217991    30A      0.224354    31A      0.232497  
      32A      0.235979    33A      0.245099    34A      0.257331  
      35A      0.263345    36A      0.266898    37A      0.276355  
      38A      0.292188    39A      0.296120    40A      0.306306  
      41A      0.313201    42A      0.316862    43A      0.325909  
      44A      0.333286    45A      0.341929    46A      0.345191  
      47A      0.345887    48A      0.368550    49A      0.370964  
      50A      0.392710    51A      0.393618    52A      0.406599  
      53A      0.478379    54A      0.495973    55A      0.501205  
      56A      0.504824    57A      0.513378    58A      0.533619  
      59A      0.546867    60A      0.588476    61A      0.597792  
      62A      0.600282    63A      0.633538    64A      0.643865  
      65A      0.646196    66A      0.663180    67A      0.674198  
      68A      0.681631    69A      0.689225    70A      0.697373  
      71A      0.704718    72A      0.705460    73A      0.721374  
      74A      0.734134    75A      0.745483    76A      0.761671  
      77A      0.762332    78A      0.786792    79A      0.793297  
      80A      0.795007    81A      0.798539    82A      0.813581  
      83A      0.824036    84A      0.832255    85A      0.837069  
      86A      0.861154    87A      0.900246    88A      0.904220  
      89A      0.916822    90A      0.943706    91A      0.947542  
      92A      0.977823    93A      0.989338    94A      1.018490  
      95A      1.028333    96A      1.054717    97A      1.069922  
      98A      1.085762    99A      1.121648   100A      1.138590  
     101A      1.159122   102A      1.164314   103A      1.170375  
     104A      1.183575   105A      1.197591   106A      1.222428  
     107A      1.243833   108A      1.248738   109A      1.297473  
     110A      1.314622   111A      1.398863   112A      1.400069  
     113A      1.414777   114A      1.455915   115A      1.483155  
     116A      1.489178   117A      1.502944   118A      1.508947  
     119A      1.531965   120A      1.555194   121A      1.587371  
     122A      1.612275   123A      1.617362   124A      1.625066  
     125A      1.662511   126A      1.671456   127A      1.682348  
     128A      1.683643   129A      1.707648   130A      1.711681  
     131A      1.743017   132A      1.744222   133A      1.762080  
     134A      1.800729   135A      1.803152   136A      1.819638  
     137A      1.823002   138A      1.859274   139A      1.861648  
     140A      1.887851   141A      1.892673   142A      1.897013  
     143A      1.934165   144A      1.940859   145A      1.963025  
     146A      1.966134   147A      1.973514   148A      1.992137  
     149A      1.993721   150A      2.009077   151A      2.015286  
     152A      2.035871   153A      2.051279   154A      2.066337  
     155A      2.087141   156A      2.123305   157A      2.142116  
     158A      2.151985   159A      2.157968   160A      2.172576  
     161A      2.200769   162A      2.221680   163A      2.243251  
     164A      2.255516   165A      2.269316   166A      2.306649  
     167A      2.310532   168A      2.330764   169A      2.337637  
     170A      2.348331   171A      2.388337   172A      2.405279  
     173A      2.420437   174A      2.429198   175A      2.489909  
     176A      2.560729   177A      2.568334   178A      2.604282  
     179A      2.629123   180A      2.659980   181A      2.737331  
     182A      2.739885   183A      2.783579   184A      2.795709  
     185A      2.813557   186A      2.824754   187A      2.837139  
     188A      2.856440   189A      2.911682   190A      2.998449  
     191A      3.002826   192A      3.029753   193A      3.041307  
     194A      3.076455   195A      3.081832   196A      3.087604  
     197A      3.109447   198A      3.121090   199A      3.182878  
     200A      3.207387   201A      3.244238   202A      3.248870  
     203A      3.302766   204A      3.306283   205A      3.403962  
     206A      3.473782   207A      3.510838   208A      3.527534  
     209A      3.574332   210A      3.629566   211A      3.634187  
     212A      3.707663   213A      3.735104   214A      3.745450  
     215A      3.768804   216A      3.769949   217A      3.804029  
     218A      3.824523   219A      3.842102   220A      3.863650  
     221A      3.895122   222A      3.923808   223A      3.974599  
     224A      3.995087   225A      4.002970   226A      4.016607  
     227A      4.055941   228A      4.070744   229A      4.107418  
     230A      4.118685   231A      4.129842   232A      4.147611  
     233A      4.171925   234A      4.197815   235A      4.264314  
     236A      4.272024   237A      4.320240   238A      4.349727  
     239A      4.362810   240A      4.477996   241A      4.513533  
     242A      4.531622   243A      4.549202   244A      4.573488  
     245A      4.672377   246A      4.705120   247A      4.764374  
     248A      4.788349   249A      4.809316   250A      4.901597  
     251A      4.957969   252A      4.974448   253A      5.056549  
     254A      5.117599   255A      5.238805   256A      6.118815  
     257A      6.153545   258A      6.224049   259A      6.273810  
     260A      6.314926   261A      6.373109   262A      6.380917  
     263A      6.423167   264A      6.599873   265A      6.614416  
     266A      6.723889   267A      6.731591   268A      6.743512  
     269A      6.745400   270A      6.777887   271A      6.795380  
     272A      6.866389   273A      6.923787   274A      6.952702  
     275A      6.987508   276A      6.990559   277A      7.056931  
     278A      7.073120   279A      7.119261   280A      7.133734  
     281A      7.177490   282A      7.205026   283A      7.218175  
     284A      7.313458   285A      7.325389   286A      7.469263  
     287A      7.548051   288A      7.564921   289A      7.602570  
     290A      7.652480   291A      7.676158   292A      7.731090  
     293A      7.750440   294A      7.766484   295A      7.815388  
     296A      7.935530   297A      7.943761   298A      7.970869  
     299A      8.290278   300A      8.315758   301A      8.341235  
     302A      8.390293   303A      8.400561   304A      8.432591  
     305A      8.514804   306A      8.637011   307A      8.654099  
     308A      8.692527   309A      8.749178   310A      8.848042  
     311A      8.880723   312A      8.938957   313A      8.977726  
     314A      9.033379   315A      9.064737   316A      9.198898  
     317A      9.219398   318A      9.249020   319A      9.249949  
     320A      9.362815   321A      9.425207   322A      9.455889  
     323A      9.542592   324A      9.559492   325A      9.568518  
     326A      9.630813   327A      9.747449   328A      9.776862  
     329A      9.852078   330A     10.025333   331A     10.031030  
     332A     10.147961   333A     10.177989   334A     10.396661  
     335A     10.409389   336A     10.450887   337A     10.806156  
     338A     10.812759   339A     10.921059   340A     11.042670  
     341A     11.044718   342A     11.112922   343A     11.468223  
     344A     13.208580   345A     13.213906   346A     13.331900  
     347A     21.852765   348A     28.601173  

    Final Occupation by Irrep:
              A 
    DOCC [    13 ]

  @DF-RHF Final Energy:  -437.76414260126154

   => Energetics <=

    Nuclear Repulsion Energy =             56.4510775852709443
    One-Electron Energy =                -715.3977314697860947
    Two-Electron Energy =                 221.1825112832536320
    Total Energy =                       -437.7641426012615398

Computation Completed


Properties will be evaluated at   0.000000,   0.000000,   0.000000 [a0]

Properties computed using the SCF density matrix

  Nuclear Dipole Moment: [e a0]
     X:   -65.3932      Y:   -12.7614      Z:    11.8062

  Electronic Dipole Moment: [e a0]
     X:    65.5020      Y:    12.9196      Z:   -12.4311

  Dipole Moment: [e a0]
     X:     0.1088      Y:     0.1582      Z:    -0.6249     Total:     0.6537

  Dipole Moment: [D]
     X:     0.2765      Y:     0.4022      Z:    -1.5882     Total:     1.6615


*** tstop() called on node70.bme.utexas.edu at Sat Apr 11 16:28:33 2020
Module time:
	user time   =      24.09 seconds =       0.40 minutes
	system time =       1.06 seconds =       0.02 minutes
	total time  =          5 seconds =       0.08 minutes
Total time:
	user time   =      37.65 seconds =       0.63 minutes
	system time =       1.73 seconds =       0.03 minutes
	total time  =          8 seconds =       0.13 minutes

*** tstart() called on node70.bme.utexas.edu
*** at Sat Apr 11 16:28:33 2020


  //>>>>>>>>>>>>>>>>>>>>>>>>>>>>>>>>>>>//
  //               DFMP2               //
  //<<<<<<<<<<<<<<<<<<<<<<<<<<<<<<<<<<<//

   => Loading Basis Set <=

    Name: (AUG-CC-PVQZ AUX)
    Role: RIFIT
    Keyword: DF_BASIS_MP2
    atoms 1   entry C          line   184 file /home/liuchw/anaconda3/envs/psi4env/share/psi4/basis/aug-cc-pvqz-ri.gbs 
    atoms 2   entry S          line   824 file /home/liuchw/anaconda3/envs/psi4env/share/psi4/basis/aug-cc-pvqz-ri.gbs 
    atoms 3-6 entry H          line    30 file /home/liuchw/anaconda3/envs/psi4env/share/psi4/basis/aug-cc-pvqz-ri.gbs 

	 --------------------------------------------------------
	                          DF-MP2                         
	      2nd-Order Density-Fitted Moller-Plesset Theory     
	              RMP2 Wavefunction,   6 Threads             
	                                                         
	        Rob Parrish, Justin Turney, Andy Simmonett,      
	           Ed Hohenstein, and C. David Sherrill          
	 --------------------------------------------------------

   => Auxiliary Basis Set <=

  Basis Set: (AUG-CC-PVQZ AUX)
    Blend: AUG-CC-PVQZ-RI
    Number of shells: 160
    Number of basis function: 682
    Number of Cartesian functions: 925
    Spherical Harmonics?: true
    Max angular momentum: 5

	 --------------------------------------------------------
	                 NBF =   348, NAUX =   682
	 --------------------------------------------------------
	   CLASS    FOCC     OCC    AOCC    AVIR     VIR    FVIR
	   PAIRS       0      13      13     335     335       0
	 --------------------------------------------------------

	-----------------------------------------------------------
	 ==================> DF-MP2 Energies <==================== 
	-----------------------------------------------------------
	 Reference Energy          =    -437.7641426012615398 [Eh]
	 Singles Energy            =      -0.0000000000000000 [Eh]
	 Same-Spin Energy          =      -0.1033712650840167 [Eh]
	 Opposite-Spin Energy      =      -0.3795315283604120 [Eh]
	 Correlation Energy        =      -0.4829027934444287 [Eh]
	 Total Energy              =    -438.2470453947059923 [Eh]
	-----------------------------------------------------------
	 ================> DF-SCS-MP2 Energies <================== 
	-----------------------------------------------------------
	 SCS Same-Spin Scale       =       0.3333333333333333 [-]
	 SCS Opposite-Spin Scale   =       1.2000000000000000 [-]
	 SCS Same-Spin Energy      =      -0.0344570883613389 [Eh]
	 SCS Opposite-Spin Energy  =      -0.4554378340324944 [Eh]
	 SCS Correlation Energy    =      -0.4898949223938333 [Eh]
	 SCS Total Energy          =    -438.2540375236553700 [Eh]
	-----------------------------------------------------------


*** tstop() called on node70.bme.utexas.edu at Sat Apr 11 16:28:35 2020
Module time:
	user time   =       9.90 seconds =       0.16 minutes
	system time =       0.42 seconds =       0.01 minutes
	total time  =          2 seconds =       0.03 minutes
Total time:
	user time   =      47.55 seconds =       0.79 minutes
	system time =       2.15 seconds =       0.04 minutes
	total time  =         10 seconds =       0.17 minutes

  //>>>>>>>>>>>>>>>>>>>>>>>>>>>>>>>>>>>//
  //  CBS Results: mp2/aug-cc-pv[tq]z  //
  //<<<<<<<<<<<<<<<<<<<<<<<<<<<<<<<<<<<//


   ==> HF <==

   HI-zeta (4) Energy:               -437.764142601262


   ==> Helgaker 2-point correlated extrapolation for method: MP2 <==

   LO-zeta (3) Energy:               -438.186111881914
   HI-zeta (4) Energy:               -438.247045394706
   Alpha (exponent) Value:             3.000000000000
   Extrapolated Energy:              -438.291510390527

   @Extrapolated MP2/(T,Q):          -438.291510390527



   ==> Helgaker 2-point correlated extrapolation for method: HF <==

   LO-zeta (3) Energy:               -437.757496833125
   HI-zeta (4) Energy:               -437.764142601262
   Alpha (exponent) Value:             3.000000000000
   Extrapolated Energy:              -437.768992215848

   @Extrapolated HF/(T,Q):           -437.768992215848


   ==> Components <==

  ---------------------------------------------------------------------------------------------------------
                          Method / Basis                      Rqd      Energy [Eh]   Variable
  ---------------------------------------------------------------------------------------------------------
                              hf / aug-cc-pvtz                  *    -437.75749683   HF TOTAL ENERGY
                             mp2 / aug-cc-pvtz                  *    -438.18611188   MP2 TOTAL ENERGY
                              hf / aug-cc-pvqz                  *    -437.76414260   HF TOTAL ENERGY
                             mp2 / aug-cc-pvqz                  *    -438.24704539   MP2 TOTAL ENERGY
  ---------------------------------------------------------------------------------------------------------

   ==> Stages <==

  ---------------------------------------------------------------------------------------------------------
      Stage               Method / Basis                       Wt      Energy [Eh]   Scheme
  ---------------------------------------------------------------------------------------------------------
        scf                   hf / aug-cc-pvqz                  1    -437.76414260   xtpl_highest_1
       corl                  mp2 / aug-cc-pv[tq]z               1    -438.29151039   corl_xtpl_helgaker_2
       corl                   hf / aug-cc-pv[tq]z              -1    -437.76899222   corl_xtpl_helgaker_2
  ---------------------------------------------------------------------------------------------------------

   ==> CBS <==

  ---------------------------------------------------------------------------------------------------------
      Stage               Method / Basis                               Energy [Eh]   Scheme
  ---------------------------------------------------------------------------------------------------------
        scf                   hf / aug-cc-pvqz                       -437.76414260   xtpl_highest_1
       corl                  mp2 / aug-cc-pv[tq]z                      -0.52251817   corl_xtpl_helgaker_2
      total                  CBS                                     -438.28666078   
  ---------------------------------------------------------------------------------------------------------
   => Loading Basis Set <=

    Name: DEF2-SVP
    Role: ORBITAL
    Keyword: BASIS
    atoms 1   entry C          line    90 file /home/liuchw/anaconda3/envs/psi4env/share/psi4/basis/def2-svp.gbs 
    atoms 2   entry S          line   328 file /home/liuchw/anaconda3/envs/psi4env/share/psi4/basis/def2-svp.gbs 
    atoms 3-6 entry H          line    15 file /home/liuchw/anaconda3/envs/psi4env/share/psi4/basis/def2-svp.gbs 


       N-Body: Complex Energy (fragments = (2,), basis = (2,):  -438.28666077594124)

       N-Body: Computing complex (2/4) with fragments (2,) in the basis of fragments (1, 2).


Scratch directory: /scratch//

  //>>>>>>>>>>>>>>>>>>>>>>>>>>>>>>>>>>>//
  //   CBS Setup: mp2/aug-cc-pv[tq]z   //
  //<<<<<<<<<<<<<<<<<<<<<<<<<<<<<<<<<<<//

    Naive listing of computations required.
             hf / aug-cc-pvqz              for  HF TOTAL ENERGY
            mp2 / aug-cc-pvtz              for  MP2 TOTAL ENERGY
            mp2 / aug-cc-pvqz              for  MP2 TOTAL ENERGY
             hf / aug-cc-pvtz              for  HF TOTAL ENERGY
             hf / aug-cc-pvqz              for  HF TOTAL ENERGY

    Enlightened listing of computations required.
            mp2 / aug-cc-pvtz              for  MP2 TOTAL ENERGY
            mp2 / aug-cc-pvqz              for  MP2 TOTAL ENERGY

    Full listing of computations to be obtained (required and bonus).
             hf / aug-cc-pvtz              for  HF TOTAL ENERGY
            mp2 / aug-cc-pvtz              for  MP2 TOTAL ENERGY
             hf / aug-cc-pvqz              for  HF TOTAL ENERGY
            mp2 / aug-cc-pvqz              for  MP2 TOTAL ENERGY

  //>>>>>>>>>>>>>>>>>>>>>>>>>>>>>>>>>>>>//
  // CBS Computation: MP2 / AUG-CC-PVTZ //
  //<<<<<<<<<<<<<<<<<<<<<<<<<<<<<<<<<<<<//


Scratch directory: /scratch//

*** tstart() called on node70.bme.utexas.edu
*** at Sat Apr 11 16:28:36 2020

   => Loading Basis Set <=

    Name: AUG-CC-PVTZ
    Role: ORBITAL
    Keyword: BASIS
    atoms 1, 7      entry C          line   239 file /home/liuchw/anaconda3/envs/psi4env/share/psi4/basis/aug-cc-pvtz.gbs 
    atoms 2, 8      entry S          line   906 file /home/liuchw/anaconda3/envs/psi4env/share/psi4/basis/aug-cc-pvtz.gbs 
    atoms 3-6, 9-12 entry H          line    40 file /home/liuchw/anaconda3/envs/psi4env/share/psi4/basis/aug-cc-pvtz.gbs 


         ---------------------------------------------------------
                                   SCF
               by Justin Turney, Rob Parrish, Andy Simmonett
                          and Daniel G. A. Smith
                              RHF Reference
                        6 Threads,  38146 MiB Core
         ---------------------------------------------------------

  ==> Geometry <==

    Molecular point group: c1
    Full point group: C1

    Geometry (in Angstrom), charge = 0, multiplicity = 1:

       Center              X                  Y                   Z               Mass       
    ------------   -----------------  -----------------  -----------------  -----------------
      Gh(C)           1.334320446485    -0.953432615649    -0.433309016117    12.000000000000
      Gh(S)           1.319778446485     0.857801384351    -0.301724016117    31.972071174400
      Gh(H)           1.738108446485     0.923603384351     0.965411983883     1.007825032230
      Gh(H)           0.593315446485    -1.399506615649     0.223826983883     1.007825032230
      Gh(H)           1.080753446485    -1.183238615649    -1.464682016117     1.007825032230
      Gh(H)           2.321969446485    -1.350795615649    -0.223289016117     1.007825032230
         C           -1.579795553515    -0.353000615649    -0.879101016117    12.000000000000
         S           -1.243585553515    -0.255173615649     0.901499983883    31.972071174400
         H           -0.232117553515     0.614954384351     0.796034983883     1.007825032230
         H           -0.716778553515    -0.726667615649    -1.421974016117     1.007825032230
         H           -1.878060553515     0.612589384351    -1.274425016117     1.007825032230
         H           -2.401490553515    -1.053123615649    -1.001454016117     1.007825032230

  Running in c1 symmetry.

  Rotational constants: A =      0.21439  B =      0.07446  C =      0.07063 [cm^-1]
  Rotational constants: A =   6427.18193  B =   2232.28483  C =   2117.46084 [MHz]
  Nuclear repulsion =   56.451077585270944

  Charge       = 0
  Multiplicity = 1
  Electrons    = 26
  Nalpha       = 13
  Nbeta        = 13

  ==> Algorithm <==

  SCF Algorithm Type is DF.
  DIIS enabled.
  MOM disabled.
  Fractional occupation disabled.
  Guess Type is SAD.
  Energy threshold   = 1.00e-07
  Density threshold  = 1.00e-08
  Integral threshold = 0.00e+00

  ==> Primary Basis <==

  Basis Set: AUG-CC-PVTZ
    Blend: AUG-CC-PVTZ
    Number of shells: 132
    Number of basis function: 376
    Number of Cartesian functions: 428
    Spherical Harmonics?: true
    Max angular momentum: 3

   => Loading Basis Set <=

    Name: (AUG-CC-PVTZ AUX)
    Role: JKFIT
    Keyword: DF_BASIS_SCF
    atoms 1, 7      entry C          line   162 file /home/liuchw/anaconda3/envs/psi4env/share/psi4/basis/aug-cc-pvtz-jkfit.gbs 
    atoms 2, 8      entry S          line   730 file /home/liuchw/anaconda3/envs/psi4env/share/psi4/basis/aug-cc-pvtz-jkfit.gbs 
    atoms 3-6, 9-12 entry H          line    70 file /home/liuchw/anaconda3/envs/psi4env/share/psi4/basis/aug-cc-pvtz-jkfit.gbs 

  ==> Pre-Iterations <==

   -------------------------------------------------------
    Irrep   Nso     Nmo     Nalpha   Nbeta   Ndocc  Nsocc
   -------------------------------------------------------
     A        376     376       0       0       0       0
   -------------------------------------------------------
    Total     376     376      13      13      13       0
   -------------------------------------------------------

  ==> Integral Setup <==

  DFHelper Memory: AOs need 0.948 GiB; user supplied 27.940 GiB. Using in-core AOs.

  ==> MemDFJK: Density-Fitted J/K Matrices <==

    J tasked:                   Yes
    K tasked:                   Yes
    wK tasked:                   No
    OpenMP threads:               6
    Memory [MiB]:             28610
    Algorithm:                 Core
    Schwarz Cutoff:           1E-12
    Mask sparsity (%):       0.6988
    Fitting Condition:        1E-10

   => Auxiliary Basis Set <=

  Basis Set: (AUG-CC-PVTZ AUX)
    Blend: AUG-CC-PVTZ-JKFIT
    Number of shells: 256
    Number of basis function: 868
    Number of Cartesian functions: 1062
    Spherical Harmonics?: true
    Max angular momentum: 4

  Minimum eigenvalue in the overlap matrix is 1.1903177626E-05.
  Using Symmetric Orthogonalization.

  SCF Guess: Superposition of Atomic Densities via on-the-fly atomic UHF.

  ==> Iterations <==

                           Total Energy        Delta E     RMS |[F,P]|

   @DF-RHF iter SAD:  -437.28555176554471   -4.37286e+02   0.00000e+00 
   @DF-RHF iter   1:  -437.69183727485807   -4.06286e-01   8.47733e-04 DIIS
   @DF-RHF iter   2:  -437.74702143371115   -5.51842e-02   3.49345e-04 DIIS
   @DF-RHF iter   3:  -437.75640033575593   -9.37890e-03   8.44584e-05 DIIS
   @DF-RHF iter   4:  -437.75750974029506   -1.10940e-03   2.29175e-05 DIIS
   @DF-RHF iter   5:  -437.75759597500968   -8.62347e-05   5.40723e-06 DIIS
   @DF-RHF iter   6:  -437.75760207033142   -6.09532e-06   1.47328e-06 DIIS
   @DF-RHF iter   7:  -437.75760259661649   -5.26285e-07   4.23455e-07 DIIS
   @DF-RHF iter   8:  -437.75760264259281   -4.59763e-08   8.15885e-08 DIIS
   @DF-RHF iter   9:  -437.75760264438713   -1.79432e-09   1.45490e-08 DIIS
   @DF-RHF iter  10:  -437.75760264444295   -5.58202e-11   3.25753e-09 DIIS
  Energy and wave function converged.


  ==> Post-Iterations <==

    Orbital Energies [Eh]
    ---------------------

    Doubly Occupied:                                                      

       1A    -91.953867     2A    -11.257045     3A     -8.954731  
       4A     -6.636121     5A     -6.635123     6A     -6.634023  
       7A     -1.038775     8A     -0.867001     9A     -0.609283  
      10A     -0.592785    11A     -0.527038    12A     -0.461362  
      13A     -0.357315  

    Virtual:                                                              

      14A      0.023164    15A      0.034993    16A      0.039317  
      17A      0.044964    18A      0.056660    19A      0.061274  
      20A      0.065653    21A      0.074167    22A      0.088224  
      23A      0.091741    24A      0.096780    25A      0.112033  
      26A      0.115623    27A      0.118310    28A      0.123569  
      29A      0.127878    30A      0.130376    31A      0.145431  
      32A      0.147457    33A      0.160153    34A      0.162723  
      35A      0.171025    36A      0.176429    37A      0.204698  
      38A      0.216008    39A      0.228884    40A      0.239338  
      41A      0.242926    42A      0.261959    43A      0.267321  
      44A      0.278676    45A      0.286361    46A      0.289492  
      47A      0.296488    48A      0.297261    49A      0.305383  
      50A      0.310014    51A      0.318534    52A      0.325278  
      53A      0.328551    54A      0.344003    55A      0.355242  
      56A      0.364006    57A      0.364699    58A      0.379917  
      59A      0.381578    60A      0.391131    61A      0.393691  
      62A      0.403518    63A      0.406891    64A      0.416741  
      65A      0.419559    66A      0.427156    67A      0.441087  
      68A      0.441819    69A      0.443889    70A      0.451715  
      71A      0.457956    72A      0.473810    73A      0.481208  
      74A      0.488885    75A      0.497211    76A      0.509372  
      77A      0.522082    78A      0.528116    79A      0.534301  
      80A      0.540672    81A      0.550312    82A      0.556192  
      83A      0.563229    84A      0.570356    85A      0.578407  
      86A      0.592532    87A      0.595142    88A      0.603290  
      89A      0.611809    90A      0.624971    91A      0.635431  
      92A      0.643556    93A      0.647283    94A      0.668759  
      95A      0.700590    96A      0.711795    97A      0.712372  
      98A      0.732954    99A      0.744403   100A      0.749517  
     101A      0.764043   102A      0.771768   103A      0.794773  
     104A      0.805746   105A      0.820454   106A      0.836442  
     107A      0.851338   108A      0.863703   109A      0.881517  
     110A      0.893225   111A      0.902685   112A      0.909659  
     113A      0.927248   114A      0.937880   115A      0.946932  
     116A      0.954717   117A      0.962546   118A      0.981496  
     119A      0.988163   120A      0.997879   121A      1.010851  
     122A      1.022546   123A      1.029001   124A      1.045539  
     125A      1.051535   126A      1.057625   127A      1.066096  
     128A      1.075469   129A      1.087392   130A      1.091348  
     131A      1.096068   132A      1.103524   133A      1.116179  
     134A      1.128917   135A      1.136335   136A      1.146187  
     137A      1.154442   138A      1.162208   139A      1.167397  
     140A      1.174932   141A      1.182370   142A      1.199034  
     143A      1.210430   144A      1.215091   145A      1.216208  
     146A      1.221501   147A      1.238085   148A      1.250599  
     149A      1.267905   150A      1.279373   151A      1.283383  
     152A      1.290123   153A      1.307142   154A      1.313388  
     155A      1.321725   156A      1.326457   157A      1.333630  
     158A      1.349922   159A      1.361241   160A      1.369163  
     161A      1.384085   162A      1.401906   163A      1.413641  
     164A      1.414702   165A      1.428945   166A      1.444228  
     167A      1.447962   168A      1.462304   169A      1.475038  
     170A      1.483948   171A      1.501439   172A      1.502841  
     173A      1.518705   174A      1.542843   175A      1.562294  
     176A      1.567554   177A      1.592076   178A      1.615540  
     179A      1.621061   180A      1.632528   181A      1.654080  
     182A      1.669572   183A      1.670305   184A      1.684589  
     185A      1.710079   186A      1.718012   187A      1.737584  
     188A      1.744639   189A      1.768514   190A      1.783769  
     191A      1.789086   192A      1.794108   193A      1.804293  
     194A      1.827674   195A      1.855234   196A      1.873128  
     197A      1.891768   198A      1.908360   199A      1.920370  
     200A      1.935117   201A      1.948736   202A      1.955448  
     203A      1.996282   204A      2.004254   205A      2.013104  
     206A      2.028994   207A      2.044403   208A      2.056608  
     209A      2.075744   210A      2.098115   211A      2.118252  
     212A      2.126963   213A      2.133408   214A      2.166497  
     215A      2.196384   216A      2.204379   217A      2.223611  
     218A      2.228686   219A      2.263537   220A      2.280399  
     221A      2.312686   222A      2.326922   223A      2.358515  
     224A      2.383066   225A      2.414722   226A      2.429725  
     227A      2.451465   228A      2.464566   229A      2.489394  
     230A      2.496707   231A      2.514069   232A      2.547436  
     233A      2.561325   234A      2.585051   235A      2.618955  
     236A      2.658106   237A      2.688060   238A      2.726224  
     239A      2.745591   240A      2.760575   241A      2.792667  
     242A      2.805542   243A      2.841448   244A      2.864108  
     245A      2.943980   246A      2.987654   247A      3.130501  
     248A      3.158289   249A      3.189524   250A      3.214272  
     251A      3.244424   252A      3.278115   253A      3.334273  
     254A      3.359473   255A      3.413051   256A      3.451722  
     257A      3.489001   258A      3.505683   259A      3.552687  
     260A      3.613335   261A      3.642118   262A      3.651233  
     263A      3.677214   264A      3.699537   265A      3.729876  
     266A      3.799359   267A      3.837039   268A      3.874721  
     269A      3.884743   270A      3.923639   271A      3.943109  
     272A      3.948334   273A      3.980032   274A      4.023397  
     275A      4.039943   276A      4.079522   277A      4.099193  
     278A      4.112109   279A      4.136809   280A      4.158079  
     281A      4.174307   282A      4.189190   283A      4.204832  
     284A      4.213084   285A      4.228962   286A      4.238814  
     287A      4.258539   288A      4.283458   289A      4.286730  
     290A      4.317686   291A      4.337029   292A      4.369706  
     293A      4.386284   294A      4.399034   295A      4.455163  
     296A      4.482393   297A      4.505182   298A      4.515179  
     299A      4.540071   300A      4.556337   301A      4.566189  
     302A      4.591118   303A      4.605130   304A      4.646188  
     305A      4.669944   306A      4.693576   307A      4.735991  
     308A      4.752109   309A      4.793862   310A      4.796872  
     311A      4.803842   312A      4.839750   313A      4.842207  
     314A      4.890950   315A      4.914542   316A      4.937219  
     317A      4.953958   318A      4.975500   319A      4.977791  
     320A      4.992809   321A      5.009706   322A      5.054514  
     323A      5.074214   324A      5.126020   325A      5.151404  
     326A      5.173897   327A      5.192869   328A      5.234987  
     329A      5.245217   330A      5.291896   331A      5.297406  
     332A      5.331362   333A      5.341720   334A      5.415819  
     335A      5.437115   336A      5.477512   337A      5.492175  
     338A      5.550482   339A      5.568074   340A      5.596757  
     341A      5.608773   342A      5.634792   343A      5.652733  
     344A      5.687738   345A      5.707551   346A      5.829412  
     347A      5.863710   348A      5.886704   349A      5.945501  
     350A      6.059150   351A      6.120238   352A      6.208185  
     353A      6.217215   354A      6.260244   355A      6.290719  
     356A      6.315041   357A      6.700813   358A      6.786783  
     359A      6.812850   360A      6.823297   361A      6.911231  
     362A      7.242801   363A      7.837461   364A      7.851473  
     365A      7.902121   366A      8.258969   367A      8.283753  
     368A      8.720317   369A     10.530880   370A     15.894917  
     371A     17.872054   372A     24.893308   373A     25.144343  
     374A     25.560224   375A     52.512984   376A    141.781244  

    Final Occupation by Irrep:
              A 
    DOCC [    13 ]

  @DF-RHF Final Energy:  -437.75760264444295

   => Energetics <=

    Nuclear Repulsion Energy =             56.4510775852709443
    One-Electron Energy =                -715.3684186741918438
    Two-Electron Energy =                 221.1597384444779095
    Total Energy =                       -437.7576026444430113

Computation Completed


Properties will be evaluated at   0.000000,   0.000000,   0.000000 [a0]

Properties computed using the SCF density matrix

  Nuclear Dipole Moment: [e a0]
     X:   -65.3932      Y:   -12.7614      Z:    11.8062

  Electronic Dipole Moment: [e a0]
     X:    65.5034      Y:    12.9212      Z:   -12.4344

  Dipole Moment: [e a0]
     X:     0.1102      Y:     0.1598      Z:    -0.6281     Total:     0.6575

  Dipole Moment: [D]
     X:     0.2801      Y:     0.4063      Z:    -1.5966     Total:     1.6711


*** tstop() called on node70.bme.utexas.edu at Sat Apr 11 16:28:43 2020
Module time:
	user time   =      30.34 seconds =       0.51 minutes
	system time =       1.01 seconds =       0.02 minutes
	total time  =          7 seconds =       0.12 minutes
Total time:
	user time   =      79.65 seconds =       1.33 minutes
	system time =       3.24 seconds =       0.05 minutes
	total time  =         18 seconds =       0.30 minutes

*** tstart() called on node70.bme.utexas.edu
*** at Sat Apr 11 16:28:43 2020


  //>>>>>>>>>>>>>>>>>>>>>>>>>>>>>>>>>>>//
  //               DFMP2               //
  //<<<<<<<<<<<<<<<<<<<<<<<<<<<<<<<<<<<//

   => Loading Basis Set <=

    Name: (AUG-CC-PVTZ AUX)
    Role: RIFIT
    Keyword: DF_BASIS_MP2
    atoms 1, 7      entry C          line   148 file /home/liuchw/anaconda3/envs/psi4env/share/psi4/basis/aug-cc-pvtz-ri.gbs 
    atoms 2, 8      entry S          line   666 file /home/liuchw/anaconda3/envs/psi4env/share/psi4/basis/aug-cc-pvtz-ri.gbs 
    atoms 3-6, 9-12 entry H          line    30 file /home/liuchw/anaconda3/envs/psi4env/share/psi4/basis/aug-cc-pvtz-ri.gbs 

	 --------------------------------------------------------
	                          DF-MP2                         
	      2nd-Order Density-Fitted Moller-Plesset Theory     
	              RMP2 Wavefunction,   6 Threads             
	                                                         
	        Rob Parrish, Justin Turney, Andy Simmonett,      
	           Ed Hohenstein, and C. David Sherrill          
	 --------------------------------------------------------

   => Auxiliary Basis Set <=

  Basis Set: (AUG-CC-PVTZ AUX)
    Blend: AUG-CC-PVTZ-RI
    Number of shells: 242
    Number of basis function: 874
    Number of Cartesian functions: 1094
    Spherical Harmonics?: true
    Max angular momentum: 4

	 --------------------------------------------------------
	                 NBF =   376, NAUX =   874
	 --------------------------------------------------------
	   CLASS    FOCC     OCC    AOCC    AVIR     VIR    FVIR
	   PAIRS       0      13      13     363     363       0
	 --------------------------------------------------------

	-----------------------------------------------------------
	 ==================> DF-MP2 Energies <==================== 
	-----------------------------------------------------------
	 Reference Energy          =    -437.7576026444429544 [Eh]
	 Singles Energy            =      -0.0000000000000000 [Eh]
	 Same-Spin Energy          =      -0.0944299680638230 [Eh]
	 Opposite-Spin Energy      =      -0.3377140900681603 [Eh]
	 Correlation Energy        =      -0.4321440581319833 [Eh]
	 Total Energy              =    -438.1897467025749506 [Eh]
	-----------------------------------------------------------
	 ================> DF-SCS-MP2 Energies <================== 
	-----------------------------------------------------------
	 SCS Same-Spin Scale       =       0.3333333333333333 [-]
	 SCS Opposite-Spin Scale   =       1.2000000000000000 [-]
	 SCS Same-Spin Energy      =      -0.0314766560212743 [Eh]
	 SCS Opposite-Spin Energy  =      -0.4052569080817923 [Eh]
	 SCS Correlation Energy    =      -0.4367335641030666 [Eh]
	 SCS Total Energy          =    -438.1943362085460194 [Eh]
	-----------------------------------------------------------


*** tstop() called on node70.bme.utexas.edu at Sat Apr 11 16:28:46 2020
Module time:
	user time   =      14.68 seconds =       0.24 minutes
	system time =       0.49 seconds =       0.01 minutes
	total time  =          3 seconds =       0.05 minutes
Total time:
	user time   =      94.34 seconds =       1.57 minutes
	system time =       3.73 seconds =       0.06 minutes
	total time  =         21 seconds =       0.35 minutes

  //>>>>>>>>>>>>>>>>>>>>>>>>>>>>>>>>>>>>//
  // CBS Computation: MP2 / AUG-CC-PVQZ //
  //<<<<<<<<<<<<<<<<<<<<<<<<<<<<<<<<<<<<//


Scratch directory: /scratch//

*** tstart() called on node70.bme.utexas.edu
*** at Sat Apr 11 16:28:46 2020

   => Loading Basis Set <=

    Name: AUG-CC-PVQZ
    Role: ORBITAL
    Keyword: BASIS
    atoms 1, 7      entry C          line   303 file /home/liuchw/anaconda3/envs/psi4env/share/psi4/basis/aug-cc-pvqz.gbs 
    atoms 2, 8      entry S          line  1126 file /home/liuchw/anaconda3/envs/psi4env/share/psi4/basis/aug-cc-pvqz.gbs 
    atoms 3-6, 9-12 entry H          line    40 file /home/liuchw/anaconda3/envs/psi4env/share/psi4/basis/aug-cc-pvqz.gbs 


         ---------------------------------------------------------
                                   SCF
               by Justin Turney, Rob Parrish, Andy Simmonett
                          and Daniel G. A. Smith
                              RHF Reference
                        6 Threads,  38146 MiB Core
         ---------------------------------------------------------

  ==> Geometry <==

    Molecular point group: c1
    Full point group: C1

    Geometry (in Angstrom), charge = 0, multiplicity = 1:

       Center              X                  Y                   Z               Mass       
    ------------   -----------------  -----------------  -----------------  -----------------
      Gh(C)           1.334320446485    -0.953432615649    -0.433309016117    12.000000000000
      Gh(S)           1.319778446485     0.857801384351    -0.301724016117    31.972071174400
      Gh(H)           1.738108446485     0.923603384351     0.965411983883     1.007825032230
      Gh(H)           0.593315446485    -1.399506615649     0.223826983883     1.007825032230
      Gh(H)           1.080753446485    -1.183238615649    -1.464682016117     1.007825032230
      Gh(H)           2.321969446485    -1.350795615649    -0.223289016117     1.007825032230
         C           -1.579795553515    -0.353000615649    -0.879101016117    12.000000000000
         S           -1.243585553515    -0.255173615649     0.901499983883    31.972071174400
         H           -0.232117553515     0.614954384351     0.796034983883     1.007825032230
         H           -0.716778553515    -0.726667615649    -1.421974016117     1.007825032230
         H           -1.878060553515     0.612589384351    -1.274425016117     1.007825032230
         H           -2.401490553515    -1.053123615649    -1.001454016117     1.007825032230

  Running in c1 symmetry.

  Rotational constants: A =      0.21439  B =      0.07446  C =      0.07063 [cm^-1]
  Rotational constants: A =   6427.18193  B =   2232.28483  C =   2117.46084 [MHz]
  Nuclear repulsion =   56.451077585270944

  Charge       = 0
  Multiplicity = 1
  Electrons    = 26
  Nalpha       = 13
  Nbeta        = 13

  ==> Algorithm <==

  SCF Algorithm Type is DF.
  DIIS enabled.
  MOM disabled.
  Fractional occupation disabled.
  Guess Type is SAD.
  Energy threshold   = 1.00e-07
  Density threshold  = 1.00e-08
  Integral threshold = 0.00e+00

  ==> Primary Basis <==

  Basis Set: AUG-CC-PVQZ
    Blend: AUG-CC-PVQZ
    Number of shells: 196
    Number of basis function: 696
    Number of Cartesian functions: 868
    Spherical Harmonics?: true
    Max angular momentum: 4

   => Loading Basis Set <=

    Name: (AUG-CC-PVQZ AUX)
    Role: JKFIT
    Keyword: DF_BASIS_SCF
    atoms 1, 7      entry C          line   178 file /home/liuchw/anaconda3/envs/psi4env/share/psi4/basis/aug-cc-pvqz-jkfit.gbs 
    atoms 2, 8      entry S          line   810 file /home/liuchw/anaconda3/envs/psi4env/share/psi4/basis/aug-cc-pvqz-jkfit.gbs 
    atoms 3-6, 9-12 entry H          line    70 file /home/liuchw/anaconda3/envs/psi4env/share/psi4/basis/aug-cc-pvqz-jkfit.gbs 

  ==> Pre-Iterations <==

   -------------------------------------------------------
    Irrep   Nso     Nmo     Nalpha   Nbeta   Ndocc  Nsocc
   -------------------------------------------------------
     A        696     696       0       0       0       0
   -------------------------------------------------------
    Total     696     696      13      13      13       0
   -------------------------------------------------------

  ==> Integral Setup <==

  DFHelper Memory: AOs need 4.578 GiB; user supplied 27.940 GiB. Using in-core AOs.

  ==> MemDFJK: Density-Fitted J/K Matrices <==

    J tasked:                   Yes
    K tasked:                   Yes
    wK tasked:                   No
    OpenMP threads:               6
    Memory [MiB]:             28610
    Algorithm:                 Core
    Schwarz Cutoff:           1E-12
    Mask sparsity (%):       2.6853
    Fitting Condition:        1E-10

   => Auxiliary Basis Set <=

  Basis Set: (AUG-CC-PVQZ AUX)
    Blend: AUG-CC-PVQZ-JKFIT
    Number of shells: 304
    Number of basis function: 1260
    Number of Cartesian functions: 1698
    Spherical Harmonics?: true
    Max angular momentum: 5

  Minimum eigenvalue in the overlap matrix is 3.1187812084E-06.
  Using Symmetric Orthogonalization.

  SCF Guess: Superposition of Atomic Densities via on-the-fly atomic UHF.

  ==> Iterations <==

                           Total Energy        Delta E     RMS |[F,P]|

   @DF-RHF iter SAD:  -437.28930837180303   -4.37289e+02   0.00000e+00 
   @DF-RHF iter   1:  -437.69790874851009   -4.08600e-01   4.64699e-04 DIIS
   @DF-RHF iter   2:  -437.75346289651748   -5.55541e-02   1.91175e-04 DIIS
   @DF-RHF iter   3:  -437.76294127960341   -9.47838e-03   4.70591e-05 DIIS
   @DF-RHF iter   4:  -437.76407569485792   -1.13442e-03   1.31170e-05 DIIS
   @DF-RHF iter   5:  -437.76417411970095   -9.84248e-05   3.04587e-06 DIIS
   @DF-RHF iter   6:  -437.76418086883513   -6.74913e-06   8.48623e-07 DIIS
   @DF-RHF iter   7:  -437.76418145356422   -5.84729e-07   2.52713e-07 DIIS
   @DF-RHF iter   8:  -437.76418150719365   -5.36294e-08   4.91984e-08 DIIS
   @DF-RHF iter   9:  -437.76418150938656   -2.19291e-09   8.84180e-09 DIIS
  Energy and wave function converged.


  ==> Post-Iterations <==

    Orbital Energies [Eh]
    ---------------------

    Doubly Occupied:                                                      

       1A    -91.951219     2A    -11.255697     3A     -8.953464  
       4A     -6.635099     5A     -6.634171     6A     -6.633202  
       7A     -1.038332     8A     -0.866764     9A     -0.609322  
      10A     -0.592796    11A     -0.527267    12A     -0.461608  
      13A     -0.357318  

    Virtual:                                                              

      14A      0.020621    15A      0.031393    16A      0.035380  
      17A      0.039866    18A      0.050906    19A      0.054559  
      20A      0.058652    21A      0.065463    22A      0.078472  
      23A      0.080640    24A      0.085312    25A      0.097581  
      26A      0.099946    27A      0.102188    28A      0.106522  
      29A      0.110000    30A      0.112450    31A      0.126315  
      32A      0.126851    33A      0.139144    34A      0.140522  
      35A      0.147225    36A      0.152972    37A      0.169504  
      38A      0.186807    39A      0.196124    40A      0.206228  
      41A      0.207786    42A      0.224330    43A      0.227792  
      44A      0.235928    45A      0.237065    46A      0.242050  
      47A      0.248160    48A      0.251755    49A      0.255606  
      50A      0.259021    51A      0.262599    52A      0.267214  
      53A      0.272693    54A      0.274378    55A      0.294063  
      56A      0.294340    57A      0.299559    58A      0.303502  
      59A      0.308435    60A      0.313542    61A      0.317133  
      62A      0.326069    63A      0.333658    64A      0.336290  
      65A      0.338702    66A      0.341512    67A      0.346258  
      68A      0.349311    69A      0.353800    70A      0.361089  
      71A      0.368422    72A      0.370025    73A      0.376159  
      74A      0.386908    75A      0.398714    76A      0.405230  
      77A      0.408592    78A      0.415894    79A      0.428535  
      80A      0.432335    81A      0.439133    82A      0.441086  
      83A      0.450776    84A      0.458060    85A      0.460545  
      86A      0.472854    87A      0.476247    88A      0.481233  
      89A      0.489574    90A      0.503628    91A      0.512865  
      92A      0.518864    93A      0.523474    94A      0.536806  
      95A      0.545985    96A      0.555445    97A      0.562614  
      98A      0.568343    99A      0.573241   100A      0.584622  
     101A      0.587126   102A      0.603995   103A      0.607191  
     104A      0.619837   105A      0.633756   106A      0.639108  
     107A      0.644554   108A      0.657409   109A      0.662093  
     110A      0.671355   111A      0.672934   112A      0.681395  
     113A      0.688343   114A      0.698063   115A      0.705270  
     116A      0.709554   117A      0.720791   118A      0.725777  
     119A      0.728397   120A      0.735715   121A      0.741411  
     122A      0.743162   123A      0.749563   124A      0.768372  
     125A      0.774600   126A      0.782385   127A      0.785980  
     128A      0.800213   129A      0.808754   130A      0.815341  
     131A      0.817630   132A      0.823359   133A      0.824503  
     134A      0.840251   135A      0.847093   136A      0.850997  
     137A      0.856103   138A      0.865906   139A      0.878362  
     140A      0.880613   141A      0.884792   142A      0.893824  
     143A      0.899444   144A      0.912445   145A      0.917182  
     146A      0.920853   147A      0.928717   148A      0.931346  
     149A      0.939038   150A      0.947491   151A      0.953550  
     152A      0.962165   153A      0.979389   154A      0.986608  
     155A      0.994419   156A      0.996548   157A      1.004536  
     158A      1.007710   159A      1.030365   160A      1.036808  
     161A      1.047783   162A      1.052657   163A      1.057611  
     164A      1.058644   165A      1.070366   166A      1.078174  
     167A      1.081573   168A      1.090236   169A      1.098865  
     170A      1.101602   171A      1.113377   172A      1.116928  
     173A      1.130663   174A      1.141062   175A      1.148552  
     176A      1.155053   177A      1.177663   178A      1.182384  
     179A      1.190015   180A      1.209407   181A      1.215468  
     182A      1.226875   183A      1.233484   184A      1.248206  
     185A      1.253158   186A      1.273404   187A      1.279539  
     188A      1.283833   189A      1.287671   190A      1.295908  
     191A      1.320238   192A      1.326797   193A      1.334173  
     194A      1.350237   195A      1.352843   196A      1.370025  
     197A      1.380849   198A      1.394893   199A      1.397435  
     200A      1.409102   201A      1.416790   202A      1.440652  
     203A      1.449520   204A      1.456630   205A      1.474798  
     206A      1.484367   207A      1.490655   208A      1.494144  
     209A      1.500868   210A      1.514841   211A      1.534243  
     212A      1.545972   213A      1.557252   214A      1.574548  
     215A      1.579667   216A      1.597476   217A      1.608813  
     218A      1.616644   219A      1.624354   220A      1.636260  
     221A      1.663024   222A      1.670471   223A      1.683301  
     224A      1.694612   225A      1.700708   226A      1.712873  
     227A      1.723941   228A      1.733779   229A      1.745010  
     230A      1.753680   231A      1.760313   232A      1.774393  
     233A      1.782322   234A      1.795593   235A      1.803664  
     236A      1.810147   237A      1.818153   238A      1.829640  
     239A      1.836901   240A      1.844872   241A      1.855897  
     242A      1.860833   243A      1.872874   244A      1.887782  
     245A      1.892739   246A      1.897941   247A      1.913020  
     248A      1.925252   249A      1.929066   250A      1.938632  
     251A      1.946606   252A      1.952425   253A      1.953983  
     254A      1.962983   255A      1.972383   256A      1.994966  
     257A      1.995457   258A      2.009168   259A      2.018678  
     260A      2.025712   261A      2.037106   262A      2.052054  
     263A      2.056688   264A      2.067917   265A      2.072017  
     266A      2.076470   267A      2.093257   268A      2.101367  
     269A      2.107544   270A      2.116712   271A      2.119991  
     272A      2.128224   273A      2.132324   274A      2.151288  
     275A      2.153180   276A      2.167692   277A      2.172921  
     278A      2.182582   279A      2.187337   280A      2.193495  
     281A      2.204710   282A      2.210210   283A      2.222920  
     284A      2.226749   285A      2.249843   286A      2.252826  
     287A      2.263103   288A      2.270477   289A      2.277067  
     290A      2.281773   291A      2.296896   292A      2.304187  
     293A      2.315110   294A      2.316018   295A      2.336409  
     296A      2.337109   297A      2.352691   298A      2.363272  
     299A      2.375708   300A      2.382199   301A      2.402340  
     302A      2.409498   303A      2.419233   304A      2.435555  
     305A      2.452315   306A      2.456213   307A      2.467958  
     308A      2.484740   309A      2.488564   310A      2.503743  
     311A      2.506535   312A      2.524846   313A      2.530218  
     314A      2.540830   315A      2.554450   316A      2.569673  
     317A      2.572969   318A      2.595185   319A      2.605972  
     320A      2.615894   321A      2.631247   322A      2.640385  
     323A      2.641444   324A      2.667489   325A      2.669299  
     326A      2.683385   327A      2.695835   328A      2.715207  
     329A      2.719842   330A      2.747386   331A      2.751316  
     332A      2.762313   333A      2.769305   334A      2.791633  
     335A      2.805992   336A      2.813582   337A      2.823572  
     338A      2.834004   339A      2.842173   340A      2.855657  
     341A      2.870951   342A      2.876058   343A      2.891338  
     344A      2.927216   345A      2.942930   346A      2.948960  
     347A      2.960488   348A      2.980081   349A      2.984134  
     350A      2.991476   351A      3.013332   352A      3.023358  
     353A      3.052618   354A      3.058895   355A      3.069379  
     356A      3.084472   357A      3.098502   358A      3.111261  
     359A      3.131358   360A      3.132997   361A      3.149258  
     362A      3.156378   363A      3.167338   364A      3.192119  
     365A      3.210257   366A      3.219338   367A      3.237939  
     368A      3.247646   369A      3.271916   370A      3.279394  
     371A      3.283504   372A      3.312772   373A      3.321558  
     374A      3.338123   375A      3.347065   376A      3.366974  
     377A      3.385923   378A      3.391384   379A      3.394106  
     380A      3.423860   381A      3.426250   382A      3.442806  
     383A      3.462614   384A      3.485352   385A      3.494249  
     386A      3.508236   387A      3.514353   388A      3.537893  
     389A      3.567700   390A      3.588121   391A      3.602981  
     392A      3.613596   393A      3.626576   394A      3.632575  
     395A      3.664362   396A      3.671805   397A      3.712342  
     398A      3.720394   399A      3.736470   400A      3.760408  
     401A      3.778533   402A      3.786757   403A      3.811732  
     404A      3.838628   405A      3.850890   406A      3.862009  
     407A      3.879245   408A      3.899393   409A      3.906647  
     410A      3.923309   411A      3.963289   412A      3.970929  
     413A      3.983875   414A      4.003042   415A      4.009580  
     416A      4.034868   417A      4.046440   418A      4.061285  
     419A      4.074867   420A      4.084925   421A      4.096132  
     422A      4.113771   423A      4.118549   424A      4.122512  
     425A      4.155008   426A      4.171721   427A      4.175191  
     428A      4.179626   429A      4.196213   430A      4.215703  
     431A      4.222435   432A      4.245428   433A      4.273349  
     434A      4.299497   435A      4.305629   436A      4.321684  
     437A      4.338960   438A      4.351134   439A      4.357287  
     440A      4.397683   441A      4.406917   442A      4.433878  
     443A      4.451140   444A      4.458194   445A      4.479317  
     446A      4.493120   447A      4.496870   448A      4.544175  
     449A      4.563674   450A      4.573380   451A      4.584751  
     452A      4.609224   453A      4.630217   454A      4.655854  
     455A      4.677285   456A      4.684992   457A      4.704410  
     458A      4.744969   459A      4.757478   460A      4.795282  
     461A      4.818521   462A      4.823769   463A      4.860091  
     464A      4.871812   465A      4.878397   466A      4.910225  
     467A      4.944118   468A      4.956238   469A      5.001036  
     470A      5.053159   471A      5.056001   472A      5.077617  
     473A      5.102442   474A      5.125885   475A      5.145925  
     476A      5.176896   477A      5.205700   478A      5.223930  
     479A      5.251982   480A      5.283620   481A      5.293729  
     482A      5.323425   483A      5.363202   484A      5.368610  
     485A      5.415327   486A      5.431363   487A      5.444060  
     488A      5.465436   489A      5.490084   490A      5.591372  
     491A      5.608100   492A      5.670928   493A      5.705440  
     494A      5.741990   495A      5.800781   496A      5.832173  
     497A      5.881545   498A      6.029069   499A      6.136263  
     500A      6.259145   501A      6.307714   502A      6.355919  
     503A      6.464800   504A      6.518611   505A      6.553073  
     506A      6.619553   507A      6.640146   508A      6.668937  
     509A      6.753051   510A      6.796240   511A      6.809555  
     512A      6.820083   513A      6.844878   514A      6.866546  
     515A      6.877653   516A      6.890912   517A      6.911466  
     518A      6.946978   519A      6.964599   520A      6.967087  
     521A      6.995946   522A      7.001597   523A      7.024141  
     524A      7.037939   525A      7.059492   526A      7.069472  
     527A      7.091983   528A      7.110380   529A      7.132177  
     530A      7.153987   531A      7.172193   532A      7.190239  
     533A      7.208728   534A      7.225836   535A      7.236157  
     536A      7.255736   537A      7.271014   538A      7.296185  
     539A      7.307989   540A      7.324883   541A      7.342628  
     542A      7.371536   543A      7.396423   544A      7.414189  
     545A      7.422944   546A      7.449628   547A      7.467832  
     548A      7.483380   549A      7.527077   550A      7.542752  
     551A      7.566660   552A      7.579357   553A      7.599618  
     554A      7.639693   555A      7.667325   556A      7.670832  
[...]
     228A      1.468534   229A      1.484523   230A      1.492651  
     231A      1.493633   232A      1.502390   233A      1.512108  
     234A      1.515500   235A      1.525799   236A      1.535511  
     237A      1.544921   238A      1.556184   239A      1.558267  
     240A      1.574962   241A      1.592997   242A      1.601504  
     243A      1.617472   244A      1.624179   245A      1.625821  
     246A      1.627077   247A      1.646135   248A      1.652413  
     249A      1.660569   250A      1.668193   251A      1.676749  
     252A      1.682128   253A      1.690412   254A      1.692047  
     255A      1.694316   256A      1.702229   257A      1.716568  
     258A      1.718318   259A      1.722913   260A      1.734461  
     261A      1.744568   262A      1.747142   263A      1.749343  
     264A      1.759939   265A      1.764997   266A      1.779731  
     267A      1.802759   268A      1.805095   269A      1.809380  
     270A      1.818025   271A      1.824024   272A      1.828725  
     273A      1.835062   274A      1.841744   275A      1.856667  
     276A      1.863704   277A      1.869972   278A      1.879855  
     279A      1.888949   280A      1.895989   281A      1.898264  
     282A      1.902429   283A      1.909988   284A      1.914048  
     285A      1.937349   286A      1.941223   287A      1.943961  
     288A      1.950064   289A      1.961106   290A      1.968753  
     291A      1.971602   292A      1.976059   293A      1.980817  
     294A      1.985182   295A      1.991177   296A      1.998883  
     297A      2.004628   298A      2.009145   299A      2.012775  
     300A      2.018994   301A      2.024845   302A      2.026538  
     303A      2.035295   304A      2.043343   305A      2.059032  
     306A      2.061401   307A      2.071799   308A      2.075771  
     309A      2.092999   310A      2.095808   311A      2.128349  
     312A      2.133792   313A      2.141772   314A      2.146376  
     315A      2.149656   316A      2.158790   317A      2.167475  
     318A      2.170437   319A      2.181428   320A      2.182256  
     321A      2.207868   322A      2.213031   323A      2.226665  
     324A      2.231136   325A      2.248367   326A      2.254260  
     327A      2.260530   328A      2.263274   329A      2.272233  
     330A      2.275269   331A      2.309838   332A      2.312503  
     333A      2.316739   334A      2.325358   335A      2.333079  
     336A      2.336571   337A      2.344028   338A      2.352096  
     339A      2.358957   340A      2.366088   341A      2.394712  
     342A      2.402664   343A      2.409089   344A      2.419465  
     345A      2.420518   346A      2.426412   347A      2.428680  
     348A      2.438240   349A      2.490008   350A      2.496051  
     351A      2.565813   352A      2.567487   353A      2.571671  
     354A      2.572289   355A      2.604467   356A      2.609524  
     357A      2.631364   358A      2.639376   359A      2.661089  
     360A      2.664680   361A      2.739171   362A      2.741885  
     363A      2.743820   364A      2.747731   365A      2.786702  
     366A      2.790419   367A      2.803011   368A      2.806886  
     369A      2.821564   370A      2.826276   371A      2.832073  
     372A      2.837280   373A      2.840402   374A      2.845788  
     375A      2.860773   376A      2.868816   377A      2.913621  
     378A      2.916641   379A      2.995864   380A      3.002293  
     381A      3.003544   382A      3.007484   383A      3.034044  
     384A      3.035578   385A      3.041202   386A      3.045031  
     387A      3.080849   388A      3.082241   389A      3.085892  
     390A      3.088037   391A      3.091495   392A      3.098606  
     393A      3.115922   394A      3.119396   395A      3.128853  
     396A      3.139284   397A      3.179197   398A      3.193782  
     399A      3.205510   400A      3.217289   401A      3.248917  
     402A      3.250806   403A      3.258823   404A      3.263100  
     405A      3.300919   406A      3.307348   407A      3.313709  
     408A      3.317459   409A      3.399363   410A      3.415433  
     411A      3.475437   412A      3.493632   413A      3.515276  
     414A      3.519451   415A      3.535528   416A      3.543606  
     417A      3.581875   418A      3.587318   419A      3.627712  
     420A      3.636998   421A      3.638138   422A      3.642667  
     423A      3.708360   424A      3.715175   425A      3.736963  
     426A      3.744380   427A      3.746085   428A      3.754407  
     429A      3.769373   430A      3.770884   431A      3.778225  
     432A      3.786336   433A      3.806168   434A      3.809516  
     435A      3.822046   436A      3.830877   437A      3.850453  
     438A      3.854655   439A      3.868012   440A      3.869860  
     441A      3.898263   442A      3.903235   443A      3.923092  
     444A      3.932251   445A      3.976817   446A      3.984817  
     447A      3.997285   448A      3.998312   449A      4.003383  
     450A      4.006777   451A      4.017498   452A      4.022220  
     453A      4.059530   454A      4.062043   455A      4.072907  
     456A      4.077564   457A      4.112766   458A      4.121092  
     459A      4.124983   460A      4.131661   461A      4.136785  
     462A      4.139702   463A      4.152011   464A      4.154883  
     465A      4.176461   466A      4.183654   467A      4.204295  
     468A      4.206359   469A      4.262820   470A      4.265451  
     471A      4.268735   472A      4.277218   473A      4.325179  
     474A      4.329005   475A      4.354758   476A      4.355470  
     477A      4.372551   478A      4.378724   479A      4.476262  
     480A      4.484973   481A      4.516772   482A      4.518562  
     483A      4.530150   484A      4.538737   485A      4.550444  
     486A      4.558739   487A      4.576643   488A      4.581265  
     489A      4.672569   490A      4.676555   491A      4.704678  
     492A      4.711077   493A      4.767937   494A      4.769065  
     495A      4.787151   496A      4.791760   497A      4.818422  
     498A      4.823152   499A      4.905254   500A      4.909795  
     501A      4.964364   502A      4.968238   503A      4.974373  
     504A      4.984722   505A      5.061552   506A      5.065654  
     507A      5.113010   508A      5.123585   509A      5.241083  
     510A      5.244139   511A      6.120230   512A      6.123066  
     513A      6.156106   514A      6.159728   515A      6.224195  
     516A      6.229029   517A      6.271660   518A      6.278371  
     519A      6.317130   520A      6.328636   521A      6.374109  
     522A      6.377786   523A      6.381079   524A      6.384047  
     525A      6.428491   526A      6.437698   527A      6.583600  
     528A      6.601597   529A      6.616525   530A      6.618047  
     531A      6.720857   532A      6.725226   533A      6.729818  
     534A      6.733036   535A      6.743560   536A      6.745784  
     537A      6.746788   538A      6.749228   539A      6.774604  
     540A      6.779775   541A      6.797440   542A      6.801884  
     543A      6.860469   544A      6.871100   545A      6.926308  
     546A      6.927371   547A      6.954290   548A      6.956797  
     549A      6.986254   550A      6.989520   551A      6.992089  
     552A      6.995148   553A      7.058258   554A      7.063223  
     555A      7.075719   556A      7.083843   557A      7.122421  
     558A      7.126543   559A      7.135232   560A      7.142144  
     561A      7.176422   562A      7.183772   563A      7.211036  
     564A      7.218759   565A      7.219630   566A      7.225289  
     567A      7.314036   568A      7.318502   569A      7.329070  
     570A      7.333185   571A      7.469130   572A      7.476825  
     573A      7.551229   574A      7.553698   575A      7.566235  
     576A      7.572671   577A      7.605002   578A      7.610599  
     579A      7.654548   580A      7.657040   581A      7.676664  
     582A      7.682093   583A      7.735834   584A      7.741857  
     585A      7.748740   586A      7.754044   587A      7.767739  
     588A      7.781217   589A      7.807561   590A      7.820510  
     591A      7.918615   592A      7.937908   593A      7.946004  
     594A      7.949863   595A      7.971450   596A      7.975913  
     597A      8.290689   598A      8.301514   599A      8.309663  
     600A      8.322050   601A      8.341374   602A      8.345022  
     603A      8.393269   604A      8.397468   605A      8.403916  
     606A      8.411612   607A      8.436203   608A      8.445863  
     609A      8.515192   610A      8.521317   611A      8.643410  
     612A      8.646848   613A      8.652666   614A      8.659162  
     615A      8.699560   616A      8.713266   617A      8.748222  
     618A      8.750297   619A      8.841285   620A      8.852195  
     621A      8.881695   622A      8.883429   623A      8.933823  
     624A      8.942704   625A      8.979934   626A      8.980393  
     627A      9.028629   628A      9.036420   629A      9.069763  
     630A      9.072686   631A      9.200115   632A      9.204328  
     633A      9.216211   634A      9.225244   635A      9.241399  
     636A      9.249897   637A      9.251905   638A      9.254491  
     639A      9.366034   640A      9.377582   641A      9.419365  
     642A      9.428362   643A      9.459367   644A      9.464971  
     645A      9.540834   646A      9.546343   647A      9.562145  
     648A      9.569418   649A      9.572224   650A      9.573060  
     651A      9.634988   652A      9.636416   653A      9.737206  
     654A      9.754508   655A      9.774224   656A      9.785704  
     657A      9.858254   658A      9.863386   659A     10.016444  
     660A     10.029799   661A     10.036289   662A     10.044171  
     663A     10.151065   664A     10.153311   665A     10.186099  
     666A     10.191019   667A     10.384366   668A     10.397874  
     669A     10.405770   670A     10.411254   671A     10.450285  
     672A     10.453464   673A     10.805138   674A     10.811875  
     675A     10.815171   676A     10.828181   677A     10.922774  
     678A     10.927161   679A     11.032700   680A     11.043641  
     681A     11.045283   682A     11.049795   683A     11.110699  
     684A     11.118975   685A     11.471915   686A     11.477825  
     687A     13.206216   688A     13.212836   689A     13.214018  
     690A     13.232085   691A     13.335258   692A     13.340388  
     693A     21.862870   694A     21.887423   695A     28.601217  
     696A     28.605278  

    Final Occupation by Irrep:
              A 
    DOCC [    26 ]

  @DF-RHF Final Energy:  -875.52867036777002

   => Energetics <=

    Nuclear Repulsion Energy =            166.7603706503832655
    One-Electron Energy =               -1538.4775543795485646
    Two-Electron Energy =                 496.1885133613952235
    Total Energy =                       -875.5286703677700189

Computation Completed


Properties will be evaluated at   0.000000,   0.000000,   0.000000 [a0]

Properties computed using the SCF density matrix

  Nuclear Dipole Moment: [e a0]
     X:     0.4761      Y:    -3.3235      Z:    -3.1721

  Electronic Dipole Moment: [e a0]
     X:    -0.2539      Y:     2.8870      Z:     2.7844

  Dipole Moment: [e a0]
     X:     0.2223      Y:    -0.4365      Z:    -0.3877     Total:     0.6247

  Dipole Moment: [D]
     X:     0.5649      Y:    -1.1096      Z:    -0.9853     Total:     1.5878


*** tstop() called on node86.bme.utexas.edu at Thu Apr 23 12:06:40 2020
Module time:
	user time   =     126.29 seconds =       2.10 minutes
	system time =       2.56 seconds =       0.04 minutes
	total time  =         19 seconds =       0.32 minutes
Total time:
	user time   =     743.79 seconds =      12.40 minutes
	system time =      17.75 seconds =       0.30 minutes
	total time  =        119 seconds =       1.98 minutes

*** tstart() called on node86.bme.utexas.edu
*** at Thu Apr 23 12:06:40 2020


  //>>>>>>>>>>>>>>>>>>>>>>>>>>>>>>>>>>>//
  //               DFMP2               //
  //<<<<<<<<<<<<<<<<<<<<<<<<<<<<<<<<<<<//

   => Loading Basis Set <=

    Name: (AUG-CC-PVQZ AUX)
    Role: RIFIT
    Keyword: DF_BASIS_MP2
    atoms 1, 7      entry C          line   184 file /home/liuchw/anaconda3/envs/psi4env/share/psi4/basis/aug-cc-pvqz-ri.gbs 
    atoms 2, 8      entry S          line   824 file /home/liuchw/anaconda3/envs/psi4env/share/psi4/basis/aug-cc-pvqz-ri.gbs 
    atoms 3-6, 9-12 entry H          line    30 file /home/liuchw/anaconda3/envs/psi4env/share/psi4/basis/aug-cc-pvqz-ri.gbs 

	 --------------------------------------------------------
	                          DF-MP2                         
	      2nd-Order Density-Fitted Moller-Plesset Theory     
	              RMP2 Wavefunction,   8 Threads             
	                                                         
	        Rob Parrish, Justin Turney, Andy Simmonett,      
	           Ed Hohenstein, and C. David Sherrill          
	 --------------------------------------------------------

   => Auxiliary Basis Set <=

  Basis Set: (AUG-CC-PVQZ AUX)
    Blend: AUG-CC-PVQZ-RI
    Number of shells: 320
    Number of basis function: 1364
    Number of Cartesian functions: 1850
    Spherical Harmonics?: true
    Max angular momentum: 5

	 --------------------------------------------------------
	                 NBF =   696, NAUX =  1364
	 --------------------------------------------------------
	   CLASS    FOCC     OCC    AOCC    AVIR     VIR    FVIR
	   PAIRS       0      26      26     670     670       0
	 --------------------------------------------------------

	-----------------------------------------------------------
	 ==================> DF-MP2 Energies <==================== 
	-----------------------------------------------------------
	 Reference Energy          =    -875.5286703677700189 [Eh]
	 Singles Energy            =      -0.0000000000000000 [Eh]
	 Same-Spin Energy          =      -0.2068149448300613 [Eh]
	 Opposite-Spin Energy      =      -0.7591169283002678 [Eh]
	 Correlation Energy        =      -0.9659318731303290 [Eh]
	 Total Energy              =    -876.4946022409003490 [Eh]
	-----------------------------------------------------------
	 ================> DF-SCS-MP2 Energies <================== 
	-----------------------------------------------------------
	 SCS Same-Spin Scale       =       0.3333333333333333 [-]
	 SCS Opposite-Spin Scale   =       1.2000000000000000 [-]
	 SCS Same-Spin Energy      =      -0.0689383149433538 [Eh]
	 SCS Opposite-Spin Energy  =      -0.9109403139603213 [Eh]
	 SCS Correlation Energy    =      -0.9798786289036751 [Eh]
	 SCS Total Energy          =    -876.5085489966736532 [Eh]
	-----------------------------------------------------------


*** tstop() called on node86.bme.utexas.edu at Thu Apr 23 12:06:53 2020
Module time:
	user time   =      77.04 seconds =       1.28 minutes
	system time =       1.73 seconds =       0.03 minutes
	total time  =         13 seconds =       0.22 minutes
Total time:
	user time   =     820.83 seconds =      13.68 minutes
	system time =      19.48 seconds =       0.32 minutes
	total time  =        132 seconds =       2.20 minutes

  //>>>>>>>>>>>>>>>>>>>>>>>>>>>>>>>>>>>//
  //  CBS Results: mp2/aug-cc-pv[tq]z  //
  //<<<<<<<<<<<<<<<<<<<<<<<<<<<<<<<<<<<//


   ==> HF <==

   HI-zeta (4) Energy:               -875.528670367770


   ==> Helgaker 2-point correlated extrapolation for method: MP2 <==

   LO-zeta (3) Energy:               -876.372821454832
   HI-zeta (4) Energy:               -876.494602240900
   Alpha (exponent) Value:             3.000000000000
   Extrapolated Energy:              -876.583469301004

   @Extrapolated MP2/(T,Q):          -876.583469301004



   ==> Helgaker 2-point correlated extrapolation for method: HF <==

   LO-zeta (3) Energy:               -875.515384474822
   HI-zeta (4) Energy:               -875.528670367770
   Alpha (exponent) Value:             3.000000000000
   Extrapolated Energy:              -875.538365478840

   @Extrapolated HF/(T,Q):           -875.538365478840


   ==> Components <==

  ---------------------------------------------------------------------------------------------------------
                          Method / Basis                      Rqd      Energy [Eh]   Variable
  ---------------------------------------------------------------------------------------------------------
                              hf / aug-cc-pvtz                  *    -875.51538447   HF TOTAL ENERGY
                             mp2 / aug-cc-pvtz                  *    -876.37282145   MP2 TOTAL ENERGY
                              hf / aug-cc-pvqz                  *    -875.52867037   HF TOTAL ENERGY
                             mp2 / aug-cc-pvqz                  *    -876.49460224   MP2 TOTAL ENERGY
  ---------------------------------------------------------------------------------------------------------

   ==> Stages <==

  ---------------------------------------------------------------------------------------------------------
      Stage               Method / Basis                       Wt      Energy [Eh]   Scheme
  ---------------------------------------------------------------------------------------------------------
        scf                   hf / aug-cc-pvqz                  1    -875.52867037   xtpl_highest_1
       corl                  mp2 / aug-cc-pv[tq]z               1    -876.58346930   corl_xtpl_helgaker_2
       corl                   hf / aug-cc-pv[tq]z              -1    -875.53836548   corl_xtpl_helgaker_2
  ---------------------------------------------------------------------------------------------------------

   ==> CBS <==

  ---------------------------------------------------------------------------------------------------------
      Stage               Method / Basis                               Energy [Eh]   Scheme
  ---------------------------------------------------------------------------------------------------------
        scf                   hf / aug-cc-pvqz                       -875.52867037   xtpl_highest_1
       corl                  mp2 / aug-cc-pv[tq]z                      -1.04510382   corl_xtpl_helgaker_2
      total                  CBS                                     -876.57377419   
  ---------------------------------------------------------------------------------------------------------
   => Loading Basis Set <=

    Name: DEF2-SVP
    Role: ORBITAL
    Keyword: BASIS
    atoms 1, 7      entry C          line    90 file /home/liuchw/anaconda3/envs/psi4env/share/psi4/basis/def2-svp.gbs 
    atoms 2, 8      entry S          line   328 file /home/liuchw/anaconda3/envs/psi4env/share/psi4/basis/def2-svp.gbs 
    atoms 3-6, 9-12 entry H          line    15 file /home/liuchw/anaconda3/envs/psi4env/share/psi4/basis/def2-svp.gbs 


       N-Body: Complex Energy (fragments = (1, 2), basis = (1, 2):  -876.57377418993417)

   ==> N-Body: Counterpoise Corrected (CP) energies <==

   n-Body     Total Energy [Eh]       I.E. [kcal/mol]      Delta [kcal/mol]
        1     -876.573340750760        0.000000000000        0.000000000000
        2     -876.573780265599       -0.275799725232       -0.275799725232

   => Loading Basis Set <=

    Name: DEF2-SVP
    Role: ORBITAL
    Keyword: BASIS
    atoms 1, 7      entry C          line    90 file /home/liuchw/anaconda3/envs/psi4env/share/psi4/basis/def2-svp.gbs 
    atoms 2, 8      entry S          line   328 file /home/liuchw/anaconda3/envs/psi4env/share/psi4/basis/def2-svp.gbs 
    atoms 3-6, 9-12 entry H          line    15 file /home/liuchw/anaconda3/envs/psi4env/share/psi4/basis/def2-svp.gbs 


    Psi4 stopped on: Thursday, 23 April 2020 12:06PM
    Psi4 wall time for execution: 0:02:12.75

*** Psi4 exiting successfully. Buy a developer a beer!
