
    -----------------------------------------------------------------------
          Psi4: An Open-Source Ab Initio Electronic Structure Package
                               Psi4 1.4a2.dev224 

                         Git: Rev {master} e453b16 


    R. M. Parrish, L. A. Burns, D. G. A. Smith, A. C. Simmonett,
    A. E. DePrince III, E. G. Hohenstein, U. Bozkaya, A. Yu. Sokolov,
    R. Di Remigio, R. M. Richard, J. F. Gonthier, A. M. James,
    H. R. McAlexander, A. Kumar, M. Saitow, X. Wang, B. P. Pritchard,
    P. Verma, H. F. Schaefer III, K. Patkowski, R. A. King, E. F. Valeev,
    F. A. Evangelista, J. M. Turney, T. D. Crawford, and C. D. Sherrill,
    J. Chem. Theory Comput. 13(7) pp 3185--3197 (2017).
    (doi: 10.1021/acs.jctc.7b00174)


                         Additional Contributions by
    P. Kraus, H. Kruse, M. H. Lechner, M. C. Schieber, R. A. Shaw,
    A. Alenaizan, R. Galvelis, Z. L. Glick, S. Lehtola, and J. P. Misiewicz

    -----------------------------------------------------------------------


    Psi4 started on: Thursday, 23 April 2020 12:04PM

    Process ID: 119594
    Host:       node86.bme.utexas.edu
    PSIDATADIR: /home/liuchw/anaconda3/envs/psi4env/share/psi4
    Memory:     500.0 MiB
    Threads:    8
    
  ==> Input File <==

--------------------------------------------------------------------------
#Generated by lconvert.py for cbs job

memory 20 GB

molecule  {
0 1
  C       0.794820   -0.002740   -0.413600
  S       0.780280    1.808500   -0.282020
  H       1.198610    1.874300    0.985120
  H       0.053820   -0.448810    0.243540
  H       0.541250   -0.232540   -1.444970
  H       1.782470   -0.400100   -0.203580
--
0 1
  C      -5.705640   -0.129350    0.002060
  S      -5.369430   -0.031530    1.782670
  H      -4.357960    0.838600    1.677200
  H      -4.842620   -0.503020   -0.540810
  H      -6.003900    0.836240   -0.393260
  H      -6.527330   -0.829480   -0.120290
units angstrom
no_reorient
symmetry c1
}

set {
scf_type DF
mp2_type DF
e_convergence 7
reference rhf
}

energy('mp2/aug-cc-pv[tq]z', bsse_type='cp')
--------------------------------------------------------------------------

  Memory set to  18.626 GiB by Python driver.

Scratch directory: /scratch/liuchw/


   ===> N-Body Interaction Abacus <===
        BSSE Treatment:                     cp
        Number of 1-body computations:     4
        Number of 2-body computations:     1

   ==> N-Body: Now computing 1-body complexes <==


       N-Body: Computing complex (1/4) with fragments (2,) in the basis of fragments (2,).


Scratch directory: /scratch/liuchw/

  //>>>>>>>>>>>>>>>>>>>>>>>>>>>>>>>>>>>//
  //   CBS Setup: mp2/aug-cc-pv[tq]z   //
  //<<<<<<<<<<<<<<<<<<<<<<<<<<<<<<<<<<<//

    Naive listing of computations required.
             hf / aug-cc-pvqz              for  HF TOTAL ENERGY
            mp2 / aug-cc-pvtz              for  MP2 TOTAL ENERGY
            mp2 / aug-cc-pvqz              for  MP2 TOTAL ENERGY
             hf / aug-cc-pvtz              for  HF TOTAL ENERGY
             hf / aug-cc-pvqz              for  HF TOTAL ENERGY

    Enlightened listing of computations required.
            mp2 / aug-cc-pvtz              for  MP2 TOTAL ENERGY
            mp2 / aug-cc-pvqz              for  MP2 TOTAL ENERGY

    Full listing of computations to be obtained (required and bonus).
             hf / aug-cc-pvtz              for  HF TOTAL ENERGY
            mp2 / aug-cc-pvtz              for  MP2 TOTAL ENERGY
             hf / aug-cc-pvqz              for  HF TOTAL ENERGY
            mp2 / aug-cc-pvqz              for  MP2 TOTAL ENERGY

  //>>>>>>>>>>>>>>>>>>>>>>>>>>>>>>>>>>>>//
  // CBS Computation: MP2 / AUG-CC-PVTZ //
  //<<<<<<<<<<<<<<<<<<<<<<<<<<<<<<<<<<<<//


Scratch directory: /scratch/liuchw/

*** tstart() called on node86.bme.utexas.edu
*** at Thu Apr 23 12:04:41 2020

   => Loading Basis Set <=

    Name: AUG-CC-PVTZ
    Role: ORBITAL
    Keyword: BASIS
    atoms 1   entry C          line   239 file /home/liuchw/anaconda3/envs/psi4env/share/psi4/basis/aug-cc-pvtz.gbs 
    atoms 2   entry S          line   906 file /home/liuchw/anaconda3/envs/psi4env/share/psi4/basis/aug-cc-pvtz.gbs 
    atoms 3-6 entry H          line    40 file /home/liuchw/anaconda3/envs/psi4env/share/psi4/basis/aug-cc-pvtz.gbs 


         ---------------------------------------------------------
                                   SCF
               by Justin Turney, Rob Parrish, Andy Simmonett
                          and Daniel G. A. Smith
                              RHF Reference
                        8 Threads,  19073 MiB Core
         ---------------------------------------------------------

  ==> Geometry <==

    Molecular point group: c1
    Full point group: C1

    Geometry (in Angstrom), charge = 0, multiplicity = 1:

       Center              X                  Y                   Z               Mass       
    ------------   -----------------  -----------------  -----------------  -----------------
         C           -3.372968429502    -0.716521303625    -0.448376558142    12.000000000000
         S           -3.036758429502    -0.618701303625     1.332233441858    31.972071174400
         H           -2.025288429502     0.251428696375     1.226763441858     1.007825032230
         H           -2.509948429502    -1.090191303625    -0.991246558142     1.007825032230
         H           -3.671228429502     0.249068696375    -0.843696558142     1.007825032230
         H           -4.194658429502    -1.416651303625    -0.570726558142     1.007825032230

  Running in c1 symmetry.

  Rotational constants: A =      0.42879  B =      0.03240  C =      0.03034 [cm^-1]
  Rotational constants: A =  12854.91206  B =    971.31519  C =    909.56569 [MHz]
  Nuclear repulsion =   56.450911646895221

  Charge       = 0
  Multiplicity = 1
  Electrons    = 26
  Nalpha       = 13
  Nbeta        = 13

  ==> Algorithm <==

  SCF Algorithm Type is DF.
  DIIS enabled.
  MOM disabled.
  Fractional occupation disabled.
  Guess Type is SAD.
  Energy threshold   = 1.00e-07
  Density threshold  = 1.00e-08
  Integral threshold = 0.00e+00

  ==> Primary Basis <==

  Basis Set: AUG-CC-PVTZ
    Blend: AUG-CC-PVTZ
    Number of shells: 66
    Number of basis function: 188
    Number of Cartesian functions: 214
    Spherical Harmonics?: true
    Max angular momentum: 3

   => Loading Basis Set <=

    Name: (AUG-CC-PVTZ AUX)
    Role: JKFIT
    Keyword: DF_BASIS_SCF
    atoms 1   entry C          line   162 file /home/liuchw/anaconda3/envs/psi4env/share/psi4/basis/aug-cc-pvtz-jkfit.gbs 
    atoms 2   entry S          line   730 file /home/liuchw/anaconda3/envs/psi4env/share/psi4/basis/aug-cc-pvtz-jkfit.gbs 
    atoms 3-6 entry H          line    70 file /home/liuchw/anaconda3/envs/psi4env/share/psi4/basis/aug-cc-pvtz-jkfit.gbs 

  ==> Pre-Iterations <==

   -------------------------------------------------------
    Irrep   Nso     Nmo     Nalpha   Nbeta   Ndocc  Nsocc
   -------------------------------------------------------
     A        188     188       0       0       0       0
   -------------------------------------------------------
    Total     188     188      13      13      13       0
   -------------------------------------------------------

  ==> Integral Setup <==

  DFHelper Memory: AOs need 0.125 GiB; user supplied 13.970 GiB. Using in-core AOs.

  ==> MemDFJK: Density-Fitted J/K Matrices <==

    J tasked:                   Yes
    K tasked:                   Yes
    wK tasked:                   No
    OpenMP threads:               8
    Memory [MiB]:             14305
    Algorithm:                 Core
    Schwarz Cutoff:           1E-12
    Mask sparsity (%):       0.0000
    Fitting Condition:        1E-10

   => Auxiliary Basis Set <=

  Basis Set: (AUG-CC-PVTZ AUX)
    Blend: AUG-CC-PVTZ-JKFIT
    Number of shells: 128
    Number of basis function: 434
    Number of Cartesian functions: 531
    Spherical Harmonics?: true
    Max angular momentum: 4

  Minimum eigenvalue in the overlap matrix is 6.8966810955E-05.
  Using Symmetric Orthogonalization.

  SCF Guess: Superposition of Atomic Densities via on-the-fly atomic UHF.

  ==> Iterations <==

                           Total Energy        Delta E     RMS |[F,P]|

   @DF-RHF iter SAD:  -437.28553792717554   -4.37286e+02   0.00000e+00 
   @DF-RHF iter   1:  -437.69176043015852   -4.06223e-01   1.69285e-03 DIIS
   @DF-RHF iter   2:  -437.74692432070827   -5.51639e-02   6.97745e-04 DIIS
   @DF-RHF iter   3:  -437.75629585278205   -9.37153e-03   1.68728e-04 DIIS
   @DF-RHF iter   4:  -437.75740453488936   -1.10868e-03   4.56214e-05 DIIS
   @DF-RHF iter   5:  -437.75749012541542   -8.55905e-05   1.07788e-05 DIIS
   @DF-RHF iter   6:  -437.75749617687592   -6.05146e-06   2.93715e-06 DIIS
   @DF-RHF iter   7:  -437.75749669916763   -5.22292e-07   8.42018e-07 DIIS
   @DF-RHF iter   8:  -437.75749674446888   -4.53012e-08   1.61836e-07 DIIS
   @DF-RHF iter   9:  -437.75749674622648   -1.75760e-09   2.88369e-08 DIIS
   @DF-RHF iter  10:  -437.75749674628037   -5.38876e-11   6.48629e-09 DIIS
  Energy and wave function converged.


  ==> Post-Iterations <==

    Orbital Energies [Eh]
    ---------------------

    Doubly Occupied:                                                      

       1A    -91.953524     2A    -11.257078     3A     -8.954691  
       4A     -6.636071     5A     -6.635074     6A     -6.633989  
       7A     -1.038826     8A     -0.867047     9A     -0.609326  
      10A     -0.592818    11A     -0.527080    12A     -0.461411  
      13A     -0.357324  

    Virtual:                                                              

      14A      0.029396    15A      0.040898    16A      0.046990  
      17A      0.051139    18A      0.084951    19A      0.097826  
      20A      0.115305    21A      0.116427    22A      0.133174  
      23A      0.135788    24A      0.139318    25A      0.175559  
      26A      0.197178    27A      0.211369    28A      0.218579  
      29A      0.245730    30A      0.262952    31A      0.269544  
      32A      0.287325    33A      0.288157    34A      0.321100  
      35A      0.332508    36A      0.333474    37A      0.343830  
      38A      0.369758    39A      0.379737    40A      0.390378  
      41A      0.391204    42A      0.406822    43A      0.408394  
      44A      0.418380    45A      0.431804    46A      0.439765  
      47A      0.439956    48A      0.451992    49A      0.462044  
      50A      0.482487    51A      0.497388    52A      0.499180  
      53A      0.635472    54A      0.637381    55A      0.660305  
      56A      0.677092    57A      0.692716    58A      0.709074  
      59A      0.729771    60A      0.769903    61A      0.800201  
      62A      0.817142    63A      0.838112    64A      0.846073  
      65A      0.858798    66A      0.868167    67A      0.869644  
      68A      0.893774    69A      0.915416    70A      0.938247  
      71A      0.943794    72A      0.959947    73A      0.976350  
      74A      0.983315    75A      0.994261    76A      1.017667  
      77A      1.023813    78A      1.032370    79A      1.075437  
      80A      1.080021    81A      1.087759    82A      1.097109  
      83A      1.111270    84A      1.124839    85A      1.167105  
      86A      1.174699    87A      1.202333    88A      1.216925  
      89A      1.252264    90A      1.272915    91A      1.303494  
      92A      1.312092    93A      1.340641    94A      1.353198  
      95A      1.390268    96A      1.397950    97A      1.477644  
      98A      1.572406    99A      1.587047   100A      1.615690  
     101A      1.636479   102A      1.639991   103A      1.657772  
     104A      1.672348   105A      1.687257   106A      1.693425  
     107A      1.711125   108A      1.743845   109A      1.757248  
     110A      1.803161   111A      1.889123   112A      1.931528  
     113A      1.943111   114A      1.994170   115A      2.016841  
     116A      2.069820   117A      2.136371   118A      2.150270  
     119A      2.181426   120A      2.189078   121A      2.211611  
     122A      2.288028   123A      2.344284   124A      2.387388  
     125A      2.453529   126A      2.499711   127A      2.546721  
     128A      2.581178   129A      2.640099   130A      2.661003  
     131A      2.706227   132A      2.755493   133A      2.812528  
     134A      3.022123   135A      3.062038   136A      3.081076  
     137A      3.349782   138A      3.354184   139A      3.514725  
     140A      3.527324   141A      3.579094   142A      3.592162  
     143A      3.594527   144A      3.612437   145A      3.649348  
     146A      3.771354   147A      3.793430   148A      3.924026  
     149A      3.934993   150A      4.000342   151A      4.004706  
     152A      4.078574   153A      4.101413   154A      4.116853  
     155A      4.128227   156A      4.174958   157A      4.197752  
     158A      4.239290   159A      4.366875   160A      4.438382  
     161A      4.473278   162A      4.483213   163A      4.503587  
     164A      4.550894   165A      4.558281   166A      4.661010  
     167A      4.747671   168A      4.758416   169A      4.802750  
     170A      4.904787   171A      4.915441   172A      4.963779  
     173A      4.998594   174A      5.152202   175A      5.177574  
     176A      5.247313   177A      5.314142   178A      5.551793  
     179A      5.573032   180A      5.583484   181A      5.610222  
     182A      5.966147   183A      6.076903   184A      6.086058  
     185A      6.617247   186A      6.656500   187A      7.680038  
     188A     16.978514  

    Final Occupation by Irrep:
              A 
    DOCC [    13 ]

  @DF-RHF Final Energy:  -437.75749674628037

   => Energetics <=

    Nuclear Repulsion Energy =             56.4509116468952215
    One-Electron Energy =                -715.3682973892088057
    Two-Electron Energy =                 221.1598889960333167
    Total Energy =                       -437.7574967462803102

Computation Completed


Properties will be evaluated at   0.000000,   0.000000,   0.000000 [a0]

Properties computed using the SCF density matrix

  Nuclear Dipole Moment: [e a0]
     X:  -153.4969      Y:   -30.6224      Z:    32.9692

  Electronic Dipole Moment: [e a0]
     X:   153.6072      Y:    30.7823      Z:   -33.5976

  Dipole Moment: [e a0]
     X:     0.1103      Y:     0.1599      Z:    -0.6284     Total:     0.6577

  Dipole Moment: [D]
     X:     0.2803      Y:     0.4064      Z:    -1.5972     Total:     1.6717


*** tstop() called on node86.bme.utexas.edu at Thu Apr 23 12:04:43 2020
Module time:
	user time   =      13.28 seconds =       0.22 minutes
	system time =       0.43 seconds =       0.01 minutes
	total time  =          2 seconds =       0.03 minutes
Total time:
	user time   =      13.28 seconds =       0.22 minutes
	system time =       0.43 seconds =       0.01 minutes
	total time  =          2 seconds =       0.03 minutes

*** tstart() called on node86.bme.utexas.edu
*** at Thu Apr 23 12:04:43 2020


  //>>>>>>>>>>>>>>>>>>>>>>>>>>>>>>>>>>>//
  //               DFMP2               //
  //<<<<<<<<<<<<<<<<<<<<<<<<<<<<<<<<<<<//

   => Loading Basis Set <=

    Name: (AUG-CC-PVTZ AUX)
    Role: RIFIT
    Keyword: DF_BASIS_MP2
    atoms 1   entry C          line   148 file /home/liuchw/anaconda3/envs/psi4env/share/psi4/basis/aug-cc-pvtz-ri.gbs 
    atoms 2   entry S          line   666 file /home/liuchw/anaconda3/envs/psi4env/share/psi4/basis/aug-cc-pvtz-ri.gbs 
    atoms 3-6 entry H          line    30 file /home/liuchw/anaconda3/envs/psi4env/share/psi4/basis/aug-cc-pvtz-ri.gbs 

	 --------------------------------------------------------
	                          DF-MP2                         
	      2nd-Order Density-Fitted Moller-Plesset Theory     
	              RMP2 Wavefunction,   8 Threads             
	                                                         
	        Rob Parrish, Justin Turney, Andy Simmonett,      
	           Ed Hohenstein, and C. David Sherrill          
	 --------------------------------------------------------

   => Auxiliary Basis Set <=

  Basis Set: (AUG-CC-PVTZ AUX)
    Blend: AUG-CC-PVTZ-RI
    Number of shells: 121
    Number of basis function: 437
    Number of Cartesian functions: 547
    Spherical Harmonics?: true
    Max angular momentum: 4

	 --------------------------------------------------------
	                 NBF =   188, NAUX =   437
	 --------------------------------------------------------
	   CLASS    FOCC     OCC    AOCC    AVIR     VIR    FVIR
	   PAIRS       0      13      13     175     175       0
	 --------------------------------------------------------

	-----------------------------------------------------------
	 ==================> DF-MP2 Energies <==================== 
	-----------------------------------------------------------
	 Reference Energy          =    -437.7574967462803670 [Eh]
	 Singles Energy            =      -0.0000000000000000 [Eh]
	 Same-Spin Energy          =      -0.0937214032957979 [Eh]
	 Opposite-Spin Energy      =      -0.3348936657962575 [Eh]
	 Correlation Energy        =      -0.4286150690920553 [Eh]
	 Total Energy              =    -438.1861118153724419 [Eh]
	-----------------------------------------------------------
	 ================> DF-SCS-MP2 Energies <================== 
	-----------------------------------------------------------
	 SCS Same-Spin Scale       =       0.3333333333333333 [-]
	 SCS Opposite-Spin Scale   =       1.2000000000000000 [-]
	 SCS Same-Spin Energy      =      -0.0312404677652660 [Eh]
	 SCS Opposite-Spin Energy  =      -0.4018723989555089 [Eh]
	 SCS Correlation Energy    =      -0.4331128667207749 [Eh]
	 SCS Total Energy          =    -438.1906096130011292 [Eh]
	-----------------------------------------------------------


*** tstop() called on node86.bme.utexas.edu at Thu Apr 23 12:04:44 2020
Module time:
	user time   =       5.46 seconds =       0.09 minutes
	system time =       0.18 seconds =       0.00 minutes
	total time  =          1 seconds =       0.02 minutes
Total time:
	user time   =      18.74 seconds =       0.31 minutes
	system time =       0.61 seconds =       0.01 minutes
	total time  =          3 seconds =       0.05 minutes

  //>>>>>>>>>>>>>>>>>>>>>>>>>>>>>>>>>>>>//
  // CBS Computation: MP2 / AUG-CC-PVQZ //
  //<<<<<<<<<<<<<<<<<<<<<<<<<<<<<<<<<<<<//


Scratch directory: /scratch/liuchw/

*** tstart() called on node86.bme.utexas.edu
*** at Thu Apr 23 12:04:44 2020

   => Loading Basis Set <=

    Name: AUG-CC-PVQZ
    Role: ORBITAL
    Keyword: BASIS
    atoms 1   entry C          line   303 file /home/liuchw/anaconda3/envs/psi4env/share/psi4/basis/aug-cc-pvqz.gbs 
    atoms 2   entry S          line  1126 file /home/liuchw/anaconda3/envs/psi4env/share/psi4/basis/aug-cc-pvqz.gbs 
    atoms 3-6 entry H          line    40 file /home/liuchw/anaconda3/envs/psi4env/share/psi4/basis/aug-cc-pvqz.gbs 


         ---------------------------------------------------------
                                   SCF
               by Justin Turney, Rob Parrish, Andy Simmonett
                          and Daniel G. A. Smith
                              RHF Reference
                        8 Threads,  19073 MiB Core
         ---------------------------------------------------------

  ==> Geometry <==

    Molecular point group: c1
    Full point group: C1

    Geometry (in Angstrom), charge = 0, multiplicity = 1:

       Center              X                  Y                   Z               Mass       
    ------------   -----------------  -----------------  -----------------  -----------------
         C           -3.372968429502    -0.716521303625    -0.448376558142    12.000000000000
         S           -3.036758429502    -0.618701303625     1.332233441858    31.972071174400
         H           -2.025288429502     0.251428696375     1.226763441858     1.007825032230
         H           -2.509948429502    -1.090191303625    -0.991246558142     1.007825032230
         H           -3.671228429502     0.249068696375    -0.843696558142     1.007825032230
         H           -4.194658429502    -1.416651303625    -0.570726558142     1.007825032230

  Running in c1 symmetry.

  Rotational constants: A =      0.42879  B =      0.03240  C =      0.03034 [cm^-1]
  Rotational constants: A =  12854.91206  B =    971.31519  C =    909.56569 [MHz]
  Nuclear repulsion =   56.450911646895221

  Charge       = 0
  Multiplicity = 1
  Electrons    = 26
  Nalpha       = 13
  Nbeta        = 13

  ==> Algorithm <==

  SCF Algorithm Type is DF.
  DIIS enabled.
  MOM disabled.
  Fractional occupation disabled.
  Guess Type is SAD.
  Energy threshold   = 1.00e-07
  Density threshold  = 1.00e-08
  Integral threshold = 0.00e+00

  ==> Primary Basis <==

  Basis Set: AUG-CC-PVQZ
    Blend: AUG-CC-PVQZ
    Number of shells: 98
    Number of basis function: 348
    Number of Cartesian functions: 434
    Spherical Harmonics?: true
    Max angular momentum: 4

   => Loading Basis Set <=

    Name: (AUG-CC-PVQZ AUX)
    Role: JKFIT
    Keyword: DF_BASIS_SCF
    atoms 1   entry C          line   178 file /home/liuchw/anaconda3/envs/psi4env/share/psi4/basis/aug-cc-pvqz-jkfit.gbs 
    atoms 2   entry S          line   810 file /home/liuchw/anaconda3/envs/psi4env/share/psi4/basis/aug-cc-pvqz-jkfit.gbs 
    atoms 3-6 entry H          line    70 file /home/liuchw/anaconda3/envs/psi4env/share/psi4/basis/aug-cc-pvqz-jkfit.gbs 

  ==> Pre-Iterations <==

   -------------------------------------------------------
    Irrep   Nso     Nmo     Nalpha   Nbeta   Ndocc  Nsocc
   -------------------------------------------------------
     A        348     348       0       0       0       0
   -------------------------------------------------------
    Total     348     348      13      13      13       0
   -------------------------------------------------------

  ==> Integral Setup <==

  DFHelper Memory: AOs need 0.607 GiB; user supplied 13.970 GiB. Using in-core AOs.

  ==> MemDFJK: Density-Fitted J/K Matrices <==

    J tasked:                   Yes
    K tasked:                   Yes
    wK tasked:                   No
    OpenMP threads:               8
    Memory [MiB]:             14305
    Algorithm:                 Core
    Schwarz Cutoff:           1E-12
    Mask sparsity (%):       0.1883
    Fitting Condition:        1E-10

   => Auxiliary Basis Set <=

  Basis Set: (AUG-CC-PVQZ AUX)
    Blend: AUG-CC-PVQZ-JKFIT
    Number of shells: 152
    Number of basis function: 630
    Number of Cartesian functions: 849
    Spherical Harmonics?: true
    Max angular momentum: 5

  Minimum eigenvalue in the overlap matrix is 1.5472619393E-05.
  Using Symmetric Orthogonalization.

  SCF Guess: Superposition of Atomic Densities via on-the-fly atomic UHF.

  ==> Iterations <==

                           Total Energy        Delta E     RMS |[F,P]|

   @DF-RHF iter SAD:  -437.28929493129442   -4.37289e+02   0.00000e+00 
   @DF-RHF iter   1:  -437.69787600010517   -4.08581e-01   9.29184e-04 DIIS
   @DF-RHF iter   2:  -437.75342580820200   -5.55498e-02   3.82270e-04 DIIS
   @DF-RHF iter   3:  -437.76290279745325   -9.47699e-03   9.40635e-05 DIIS
   @DF-RHF iter   4:  -437.76403689628239   -1.13410e-03   2.62065e-05 DIIS
   @DF-RHF iter   5:  -437.76413510642413   -9.82101e-05   6.08624e-06 DIIS
   @DF-RHF iter   6:  -437.76414184380553   -6.73738e-06   1.69521e-06 DIIS
   @DF-RHF iter   7:  -437.76414242726378   -5.83458e-07   5.04575e-07 DIIS
   @DF-RHF iter   8:  -437.76414248075844   -5.34947e-08   9.80744e-08 DIIS
   @DF-RHF iter   9:  -437.76414248293571   -2.17727e-09   1.76388e-08 DIIS
   @DF-RHF iter  10:  -437.76414248300102   -6.53131e-11   3.78878e-09 DIIS
  Energy and wave function converged.


  ==> Post-Iterations <==

    Orbital Energies [Eh]
    ---------------------

    Doubly Occupied:                                                      

       1A    -91.951201     2A    -11.255709     3A     -8.953471  
       4A     -6.635105     5A     -6.634175     6A     -6.633206  
       7A     -1.038348     8A     -0.866780     9A     -0.609334  
      10A     -0.592807    11A     -0.527276    12A     -0.461618  
      13A     -0.357323  

    Virtual:                                                              

      14A      0.026099    15A      0.036815    16A      0.042271  
      17A      0.045593    18A      0.072359    19A      0.084034  
      20A      0.095240    21A      0.096672    22A      0.114418  
      23A      0.118799    24A      0.122951    25A      0.149669  
      26A      0.169287    27A      0.184266    28A      0.185477  
      29A      0.217991    30A      0.224354    31A      0.232496  
      32A      0.235979    33A      0.245099    34A      0.257331  
      35A      0.263344    36A      0.266898    37A      0.276355  
      38A      0.292188    39A      0.296121    40A      0.306306  
      41A      0.313201    42A      0.316862    43A      0.325908  
      44A      0.333286    45A      0.341928    46A      0.345191  
      47A      0.345887    48A      0.368551    49A      0.370964  
      50A      0.392710    51A      0.393618    52A      0.406599  
      53A      0.478378    54A      0.495973    55A      0.501204  
      56A      0.504823    57A      0.513379    58A      0.533619  
      59A      0.546867    60A      0.588477    61A      0.597791  
      62A      0.600282    63A      0.633538    64A      0.643865  
      65A      0.646196    66A      0.663180    67A      0.674197  
      68A      0.681631    69A      0.689225    70A      0.697373  
      71A      0.704718    72A      0.705460    73A      0.721374  
      74A      0.734133    75A      0.745482    76A      0.761671  
      77A      0.762332    78A      0.786792    79A      0.793297  
      80A      0.795006    81A      0.798538    82A      0.813580  
      83A      0.824036    84A      0.832254    85A      0.837068  
      86A      0.861153    87A      0.900245    88A      0.904219  
      89A      0.916822    90A      0.943705    91A      0.947542  
      92A      0.977823    93A      0.989338    94A      1.018489  
      95A      1.028334    96A      1.054716    97A      1.069922  
      98A      1.085761    99A      1.121646   100A      1.138589  
     101A      1.159122   102A      1.164313   103A      1.170374  
     104A      1.183574   105A      1.197591   106A      1.222428  
     107A      1.243832   108A      1.248737   109A      1.297472  
     110A      1.314622   111A      1.398862   112A      1.400070  
     113A      1.414777   114A      1.455916   115A      1.483155  
     116A      1.489178   117A      1.502943   118A      1.508947  
     119A      1.531965   120A      1.555193   121A      1.587370  
     122A      1.612274   123A      1.617361   124A      1.625065  
     125A      1.662511   126A      1.671456   127A      1.682348  
     128A      1.683643   129A      1.707648   130A      1.711680  
     131A      1.743016   132A      1.744221   133A      1.762080  
     134A      1.800727   135A      1.803151   136A      1.819635  
     137A      1.823001   138A      1.859274   139A      1.861648  
     140A      1.887850   141A      1.892672   142A      1.897012  
     143A      1.934163   144A      1.940859   145A      1.963023  
     146A      1.966132   147A      1.973514   148A      1.992137  
     149A      1.993720   150A      2.009076   151A      2.015284  
     152A      2.035872   153A      2.051278   154A      2.066336  
     155A      2.087140   156A      2.123304   157A      2.142114  
     158A      2.151986   159A      2.157967   160A      2.172577  
     161A      2.200768   162A      2.221678   163A      2.243251  
     164A      2.255517   165A      2.269313   166A      2.306646  
     167A      2.310532   168A      2.330762   169A      2.337636  
     170A      2.348330   171A      2.388336   172A      2.405277  
     173A      2.420437   174A      2.429197   175A      2.489907  
     176A      2.560726   177A      2.568331   178A      2.604279  
     179A      2.629119   180A      2.659979   181A      2.737331  
     182A      2.739883   183A      2.783579   184A      2.795708  
     185A      2.813556   186A      2.824753   187A      2.837138  
     188A      2.856437   189A      2.911680   190A      2.998449  
     191A      3.002823   192A      3.029751   193A      3.041304  
     194A      3.076454   195A      3.081832   196A      3.087601  
     197A      3.109446   198A      3.121088   199A      3.182877  
     200A      3.207386   201A      3.244236   202A      3.248865  
     203A      3.302765   204A      3.306278   205A      3.403962  
     206A      3.473780   207A      3.510836   208A      3.527533  
     209A      3.574329   210A      3.629561   211A      3.634186  
     212A      3.707660   213A      3.735102   214A      3.745448  
     215A      3.768805   216A      3.769948   217A      3.804030  
     218A      3.824522   219A      3.842101   220A      3.863652  
     221A      3.895120   222A      3.923806   223A      3.974597  
     224A      3.995084   225A      4.002966   226A      4.016605  
     227A      4.055939   228A      4.070742   229A      4.107417  
     230A      4.118683   231A      4.129840   232A      4.147608  
     233A      4.171922   234A      4.197811   235A      4.264311  
     236A      4.272019   237A      4.320237   238A      4.349726  
     239A      4.362808   240A      4.477992   241A      4.513528  
     242A      4.531616   243A      4.549196   244A      4.573486  
     245A      4.672371   246A      4.705115   247A      4.764370  
     248A      4.788346   249A      4.809311   250A      4.901592  
     251A      4.957973   252A      4.974442   253A      5.056544  
     254A      5.117593   255A      5.238805   256A      6.118817  
     257A      6.153544   258A      6.224047   259A      6.273801  
     260A      6.314921   261A      6.373102   262A      6.380916  
     263A      6.423164   264A      6.599869   265A      6.614407  
     266A      6.723888   267A      6.731590   268A      6.743509  
     269A      6.745399   270A      6.777886   271A      6.795379  
     272A      6.866381   273A      6.923786   274A      6.952701  
     275A      6.987505   276A      6.990563   277A      7.056929  
     278A      7.073116   279A      7.119257   280A      7.133728  
     281A      7.177487   282A      7.205018   283A      7.218173  
     284A      7.313449   285A      7.325391   286A      7.469257  
     287A      7.548046   288A      7.564918   289A      7.602577  
     290A      7.652477   291A      7.676154   292A      7.731090  
     293A      7.750437   294A      7.766484   295A      7.815380  
     296A      7.935522   297A      7.943755   298A      7.970862  
     299A      8.290271   300A      8.315758   301A      8.341231  
     302A      8.390297   303A      8.400560   304A      8.432589  
     305A      8.514804   306A      8.637006   307A      8.654094  
     308A      8.692520   309A      8.749172   310A      8.848034  
     311A      8.880719   312A      8.938948   313A      8.977725  
     314A      9.033366   315A      9.064739   316A      9.198896  
     317A      9.219396   318A      9.249018   319A      9.249950  
     320A      9.362813   321A      9.425208   322A      9.455889  
     323A      9.542593   324A      9.559492   325A      9.568518  
     326A      9.630816   327A      9.747444   328A      9.776860  
     329A      9.852074   330A     10.025333   331A     10.031029  
     332A     10.147965   333A     10.177991   334A     10.396659  
     335A     10.409383   336A     10.450884   337A     10.806155  
     338A     10.812770   339A     10.921053   340A     11.042659  
     341A     11.044701   342A     11.112909   343A     11.468231  
     344A     13.208570   345A     13.213914   346A     13.331894  
     347A     21.852717   348A     28.601151  

    Final Occupation by Irrep:
              A 
    DOCC [    13 ]

  @DF-RHF Final Energy:  -437.76414248300102

   => Energetics <=

    Nuclear Repulsion Energy =             56.4509116468952215
    One-Electron Energy =                -715.3974024264845184
    Two-Electron Energy =                 221.1823482965883159
    Total Energy =                       -437.7641424830010237

Computation Completed


Properties will be evaluated at   0.000000,   0.000000,   0.000000 [a0]

Properties computed using the SCF density matrix

  Nuclear Dipole Moment: [e a0]
     X:  -153.4969      Y:   -30.6224      Z:    32.9692

  Electronic Dipole Moment: [e a0]
     X:   153.6057      Y:    30.7807      Z:   -33.5941

  Dipole Moment: [e a0]
     X:     0.1088      Y:     0.1582      Z:    -0.6249     Total:     0.6537

  Dipole Moment: [D]
     X:     0.2765      Y:     0.4022      Z:    -1.5882     Total:     1.6615


*** tstop() called on node86.bme.utexas.edu at Thu Apr 23 12:04:48 2020
Module time:
	user time   =      28.08 seconds =       0.47 minutes
	system time =       0.75 seconds =       0.01 minutes
	total time  =          4 seconds =       0.07 minutes
Total time:
	user time   =      46.86 seconds =       0.78 minutes
	system time =       1.37 seconds =       0.02 minutes
	total time  =          7 seconds =       0.12 minutes

*** tstart() called on node86.bme.utexas.edu
*** at Thu Apr 23 12:04:48 2020


  //>>>>>>>>>>>>>>>>>>>>>>>>>>>>>>>>>>>//
  //               DFMP2               //
  //<<<<<<<<<<<<<<<<<<<<<<<<<<<<<<<<<<<//

   => Loading Basis Set <=

    Name: (AUG-CC-PVQZ AUX)
    Role: RIFIT
    Keyword: DF_BASIS_MP2
    atoms 1   entry C          line   184 file /home/liuchw/anaconda3/envs/psi4env/share/psi4/basis/aug-cc-pvqz-ri.gbs 
    atoms 2   entry S          line   824 file /home/liuchw/anaconda3/envs/psi4env/share/psi4/basis/aug-cc-pvqz-ri.gbs 
    atoms 3-6 entry H          line    30 file /home/liuchw/anaconda3/envs/psi4env/share/psi4/basis/aug-cc-pvqz-ri.gbs 

	 --------------------------------------------------------
	                          DF-MP2                         
	      2nd-Order Density-Fitted Moller-Plesset Theory     
	              RMP2 Wavefunction,   8 Threads             
	                                                         
	        Rob Parrish, Justin Turney, Andy Simmonett,      
	           Ed Hohenstein, and C. David Sherrill          
	 --------------------------------------------------------

   => Auxiliary Basis Set <=

  Basis Set: (AUG-CC-PVQZ AUX)
    Blend: AUG-CC-PVQZ-RI
    Number of shells: 160
    Number of basis function: 682
    Number of Cartesian functions: 925
    Spherical Harmonics?: true
    Max angular momentum: 5

	 --------------------------------------------------------
	                 NBF =   348, NAUX =   682
	 --------------------------------------------------------
	   CLASS    FOCC     OCC    AOCC    AVIR     VIR    FVIR
	   PAIRS       0      13      13     335     335       0
	 --------------------------------------------------------

	-----------------------------------------------------------
	 ==================> DF-MP2 Energies <==================== 
	-----------------------------------------------------------
	 Reference Energy          =    -437.7641424830010237 [Eh]
	 Singles Energy            =      -0.0000000000000000 [Eh]
	 Same-Spin Energy          =      -0.1033712240022856 [Eh]
	 Opposite-Spin Energy      =      -0.3795315934864595 [Eh]
	 Correlation Energy        =      -0.4829028174887451 [Eh]
	 Total Energy              =    -438.2470453004897877 [Eh]
	-----------------------------------------------------------
	 ================> DF-SCS-MP2 Energies <================== 
	-----------------------------------------------------------
	 SCS Same-Spin Scale       =       0.3333333333333333 [-]
	 SCS Opposite-Spin Scale   =       1.2000000000000000 [-]
	 SCS Same-Spin Energy      =      -0.0344570746674285 [Eh]
	 SCS Opposite-Spin Energy  =      -0.4554379121837514 [Eh]
	 SCS Correlation Energy    =      -0.4898949868511799 [Eh]
	 SCS Total Energy          =    -438.2540374698522214 [Eh]
	-----------------------------------------------------------


*** tstop() called on node86.bme.utexas.edu at Thu Apr 23 12:04:51 2020
Module time:
	user time   =      11.55 seconds =       0.19 minutes
	system time =       0.34 seconds =       0.01 minutes
	total time  =          3 seconds =       0.05 minutes
Total time:
	user time   =      58.41 seconds =       0.97 minutes
	system time =       1.71 seconds =       0.03 minutes
	total time  =         10 seconds =       0.17 minutes

  //>>>>>>>>>>>>>>>>>>>>>>>>>>>>>>>>>>>//
  //  CBS Results: mp2/aug-cc-pv[tq]z  //
  //<<<<<<<<<<<<<<<<<<<<<<<<<<<<<<<<<<<//


   ==> HF <==

   HI-zeta (4) Energy:               -437.764142483001


   ==> Helgaker 2-point correlated extrapolation for method: MP2 <==

   LO-zeta (3) Energy:               -438.186111815372
   HI-zeta (4) Energy:               -438.247045300490
   Alpha (exponent) Value:             3.000000000000
   Extrapolated Energy:              -438.291510276116

   @Extrapolated MP2/(T,Q):          -438.291510276116



   ==> Helgaker 2-point correlated extrapolation for method: HF <==

   LO-zeta (3) Energy:               -437.757496746280
   HI-zeta (4) Energy:               -437.764142483001
   Alpha (exponent) Value:             3.000000000000
   Extrapolated Energy:              -437.768992074662

   @Extrapolated HF/(T,Q):           -437.768992074662


   ==> Components <==

  ---------------------------------------------------------------------------------------------------------
                          Method / Basis                      Rqd      Energy [Eh]   Variable
  ---------------------------------------------------------------------------------------------------------
                              hf / aug-cc-pvtz                  *    -437.75749675   HF TOTAL ENERGY
                             mp2 / aug-cc-pvtz                  *    -438.18611182   MP2 TOTAL ENERGY
                              hf / aug-cc-pvqz                  *    -437.76414248   HF TOTAL ENERGY
                             mp2 / aug-cc-pvqz                  *    -438.24704530   MP2 TOTAL ENERGY
  ---------------------------------------------------------------------------------------------------------

   ==> Stages <==

  ---------------------------------------------------------------------------------------------------------
      Stage               Method / Basis                       Wt      Energy [Eh]   Scheme
  ---------------------------------------------------------------------------------------------------------
        scf                   hf / aug-cc-pvqz                  1    -437.76414248   xtpl_highest_1
       corl                  mp2 / aug-cc-pv[tq]z               1    -438.29151028   corl_xtpl_helgaker_2
       corl                   hf / aug-cc-pv[tq]z              -1    -437.76899207   corl_xtpl_helgaker_2
  ---------------------------------------------------------------------------------------------------------

   ==> CBS <==

  ---------------------------------------------------------------------------------------------------------
      Stage               Method / Basis                               Energy [Eh]   Scheme
  ---------------------------------------------------------------------------------------------------------
        scf                   hf / aug-cc-pvqz                       -437.76414248   xtpl_highest_1
       corl                  mp2 / aug-cc-pv[tq]z                      -0.52251820   corl_xtpl_helgaker_2
      total                  CBS                                     -438.28666068   
  ---------------------------------------------------------------------------------------------------------
   => Loading Basis Set <=

    Name: DEF2-SVP
    Role: ORBITAL
    Keyword: BASIS
    atoms 1   entry C          line    90 file /home/liuchw/anaconda3/envs/psi4env/share/psi4/basis/def2-svp.gbs 
    atoms 2   entry S          line   328 file /home/liuchw/anaconda3/envs/psi4env/share/psi4/basis/def2-svp.gbs 
    atoms 3-6 entry H          line    15 file /home/liuchw/anaconda3/envs/psi4env/share/psi4/basis/def2-svp.gbs 


       N-Body: Complex Energy (fragments = (2,), basis = (2,):  -438.28666068445494)

       N-Body: Computing complex (2/4) with fragments (2,) in the basis of fragments (1, 2).


Scratch directory: /scratch/liuchw/

  //>>>>>>>>>>>>>>>>>>>>>>>>>>>>>>>>>>>//
  //   CBS Setup: mp2/aug-cc-pv[tq]z   //
  //<<<<<<<<<<<<<<<<<<<<<<<<<<<<<<<<<<<//

    Naive listing of computations required.
             hf / aug-cc-pvqz              for  HF TOTAL ENERGY
            mp2 / aug-cc-pvtz              for  MP2 TOTAL ENERGY
            mp2 / aug-cc-pvqz              for  MP2 TOTAL ENERGY
             hf / aug-cc-pvtz              for  HF TOTAL ENERGY
             hf / aug-cc-pvqz              for  HF TOTAL ENERGY

    Enlightened listing of computations required.
            mp2 / aug-cc-pvtz              for  MP2 TOTAL ENERGY
            mp2 / aug-cc-pvqz              for  MP2 TOTAL ENERGY

    Full listing of computations to be obtained (required and bonus).
             hf / aug-cc-pvtz              for  HF TOTAL ENERGY
            mp2 / aug-cc-pvtz              for  MP2 TOTAL ENERGY
             hf / aug-cc-pvqz              for  HF TOTAL ENERGY
            mp2 / aug-cc-pvqz              for  MP2 TOTAL ENERGY

  //>>>>>>>>>>>>>>>>>>>>>>>>>>>>>>>>>>>>//
  // CBS Computation: MP2 / AUG-CC-PVTZ //
  //<<<<<<<<<<<<<<<<<<<<<<<<<<<<<<<<<<<<//


Scratch directory: /scratch/liuchw/

*** tstart() called on node86.bme.utexas.edu
*** at Thu Apr 23 12:04:51 2020

   => Loading Basis Set <=

    Name: AUG-CC-PVTZ
    Role: ORBITAL
    Keyword: BASIS
    atoms 1, 7      entry C          line   239 file /home/liuchw/anaconda3/envs/psi4env/share/psi4/basis/aug-cc-pvtz.gbs 
    atoms 2, 8      entry S          line   906 file /home/liuchw/anaconda3/envs/psi4env/share/psi4/basis/aug-cc-pvtz.gbs 
    atoms 3-6, 9-12 entry H          line    40 file /home/liuchw/anaconda3/envs/psi4env/share/psi4/basis/aug-cc-pvtz.gbs 


         ---------------------------------------------------------
                                   SCF
               by Justin Turney, Rob Parrish, Andy Simmonett
                          and Daniel G. A. Smith
                              RHF Reference
                        8 Threads,  19073 MiB Core
         ---------------------------------------------------------

  ==> Geometry <==

    Molecular point group: c1
    Full point group: C1

    Geometry (in Angstrom), charge = 0, multiplicity = 1:

       Center              X                  Y                   Z               Mass       
    ------------   -----------------  -----------------  -----------------  -----------------
      Gh(C)           3.127491570498    -0.589911303625    -0.864036558142    12.000000000000
      Gh(S)           3.112951570498     1.221328696375    -0.732456558142    31.972071174400
      Gh(H)           3.531281570498     1.287128696375     0.534683441858     1.007825032230
      Gh(H)           2.386491570498    -1.035981303625    -0.206896558142     1.007825032230
      Gh(H)           2.873921570498    -0.819711303625    -1.895406558142     1.007825032230
      Gh(H)           4.115141570498    -0.987271303625    -0.654016558142     1.007825032230
         C           -3.372968429502    -0.716521303625    -0.448376558142    12.000000000000
         S           -3.036758429502    -0.618701303625     1.332233441858    31.972071174400
         H           -2.025288429502     0.251428696375     1.226763441858     1.007825032230
         H           -2.509948429502    -1.090191303625    -0.991246558142     1.007825032230
         H           -3.671228429502     0.249068696375    -0.843696558142     1.007825032230
         H           -4.194658429502    -1.416651303625    -0.570726558142     1.007825032230

  Running in c1 symmetry.

  Rotational constants: A =      0.21373  B =      0.01576  C =      0.01558 [cm^-1]
  Rotational constants: A =   6407.58977  B =    472.43699  C =    467.08563 [MHz]
  Nuclear repulsion =   56.450911646895221

  Charge       = 0
  Multiplicity = 1
  Electrons    = 26
  Nalpha       = 13
  Nbeta        = 13

  ==> Algorithm <==

  SCF Algorithm Type is DF.
  DIIS enabled.
  MOM disabled.
  Fractional occupation disabled.
  Guess Type is SAD.
  Energy threshold   = 1.00e-07
  Density threshold  = 1.00e-08
  Integral threshold = 0.00e+00

  ==> Primary Basis <==

  Basis Set: AUG-CC-PVTZ
    Blend: AUG-CC-PVTZ
    Number of shells: 132
    Number of basis function: 376
    Number of Cartesian functions: 428
    Spherical Harmonics?: true
    Max angular momentum: 3

   => Loading Basis Set <=

    Name: (AUG-CC-PVTZ AUX)
    Role: JKFIT
    Keyword: DF_BASIS_SCF
    atoms 1, 7      entry C          line   162 file /home/liuchw/anaconda3/envs/psi4env/share/psi4/basis/aug-cc-pvtz-jkfit.gbs 
    atoms 2, 8      entry S          line   730 file /home/liuchw/anaconda3/envs/psi4env/share/psi4/basis/aug-cc-pvtz-jkfit.gbs 
    atoms 3-6, 9-12 entry H          line    70 file /home/liuchw/anaconda3/envs/psi4env/share/psi4/basis/aug-cc-pvtz-jkfit.gbs 

  ==> Pre-Iterations <==

   -------------------------------------------------------
    Irrep   Nso     Nmo     Nalpha   Nbeta   Ndocc  Nsocc
   -------------------------------------------------------
     A        376     376       0       0       0       0
   -------------------------------------------------------
    Total     376     376      13      13      13       0
   -------------------------------------------------------

  ==> Integral Setup <==

  DFHelper Memory: AOs need 0.807 GiB; user supplied 13.970 GiB. Using in-core AOs.

  ==> MemDFJK: Density-Fitted J/K Matrices <==

    J tasked:                   Yes
    K tasked:                   Yes
    wK tasked:                   No
    OpenMP threads:               8
    Memory [MiB]:             14305
    Algorithm:                 Core
    Schwarz Cutoff:           1E-12
    Mask sparsity (%):      16.3649
    Fitting Condition:        1E-10

   => Auxiliary Basis Set <=

  Basis Set: (AUG-CC-PVTZ AUX)
    Blend: AUG-CC-PVTZ-JKFIT
    Number of shells: 256
    Number of basis function: 868
    Number of Cartesian functions: 1062
    Spherical Harmonics?: true
    Max angular momentum: 4

  Minimum eigenvalue in the overlap matrix is 6.3994902483E-05.
  Using Symmetric Orthogonalization.

  SCF Guess: Superposition of Atomic Densities via on-the-fly atomic UHF.

  ==> Iterations <==

                           Total Energy        Delta E     RMS |[F,P]|

   @DF-RHF iter SAD:  -437.28553791055890   -4.37286e+02   0.00000e+00 
   @DF-RHF iter   1:  -437.69176207800643   -4.06224e-01   8.46447e-04 DIIS
   @DF-RHF iter   2:  -437.74692682429225   -5.51647e-02   3.48881e-04 DIIS
   @DF-RHF iter   3:  -437.75629862014796   -9.37180e-03   8.43662e-05 DIIS
   @DF-RHF iter   4:  -437.75740733871095   -1.10872e-03   2.28127e-05 DIIS
   @DF-RHF iter   5:  -437.75749294694958   -8.56082e-05   5.38996e-06 DIIS
   @DF-RHF iter   6:  -437.75749900230846   -6.05536e-06   1.46900e-06 DIIS
   @DF-RHF iter   7:  -437.75749952548267   -5.23174e-07   4.21237e-07 DIIS
   @DF-RHF iter   8:  -437.75749957091443   -4.54318e-08   8.09643e-08 DIIS
   @DF-RHF iter   9:  -437.75749957267743   -1.76300e-09   1.44300e-08 DIIS
   @DF-RHF iter  10:  -437.75749957273069   -5.32623e-11   3.24499e-09 DIIS
  Energy and wave function converged.


  ==> Post-Iterations <==

    Orbital Energies [Eh]
    ---------------------

    Doubly Occupied:                                                      

       1A    -91.953528     2A    -11.257077     3A     -8.954692  
       4A     -6.636072     5A     -6.635075     6A     -6.633989  
       7A     -1.038826     8A     -0.867047     9A     -0.609325  
      10A     -0.592818    11A     -0.527079    12A     -0.461410  
      13A     -0.357324  

    Virtual:                                                              

      14A      0.019266    15A      0.032244    16A      0.037319  
      17A      0.043147    18A      0.047719    19A      0.050735  
      20A      0.058440    21A      0.073091    22A      0.078526  
      23A      0.084809    24A      0.095381    25A      0.098071  
      26A      0.101548    27A      0.109527    28A      0.119526  
      29A      0.121399    30A      0.124627    31A      0.128566  
      32A      0.138613    33A      0.141968    34A      0.148593  
      35A      0.159318    36A      0.162982    37A      0.176069  
      38A      0.201247    39A      0.213114    40A      0.217577  
      41A      0.229366    42A      0.245416    43A      0.251123  
      44A      0.256227    45A      0.265851    46A      0.267987  
      47A      0.270695    48A      0.280420    49A      0.287601  
      50A      0.291079    51A      0.296352    52A      0.301432  
      53A      0.307441    54A      0.311959    55A      0.315623  
      56A      0.319663    57A      0.327958    58A      0.341066  
      59A      0.342696    60A      0.345790    61A      0.354182  
      62A      0.361655    63A      0.363486    64A      0.373891  
      65A      0.382523    66A      0.389721    67A      0.395489  
      68A      0.402292    69A      0.407967    70A      0.410421  
      71A      0.416505    72A      0.418354    73A      0.420763  
      74A      0.428621    75A      0.433634    76A      0.441791  
      77A      0.446409    78A      0.448682    79A      0.459789  
      80A      0.464725    81A      0.468470    82A      0.479293  
      83A      0.480724    84A      0.491290    85A      0.504214  
      86A      0.508017    87A      0.524340    88A      0.539091  
      89A      0.546515    90A      0.554102    91A      0.567544  
      92A      0.602464    93A      0.610329    94A      0.617104  
      95A      0.639543    96A      0.644368    97A      0.648229  
      98A      0.663772    99A      0.672520   100A      0.680080  
     101A      0.689903   102A      0.700652   103A      0.713304  
     104A      0.744019   105A      0.750525   106A      0.774070  
     107A      0.805631   108A      0.828927   109A      0.843685  
     110A      0.849837   111A      0.862586   112A      0.871718  
     113A      0.887659   114A      0.898743   115A      0.907346  
     116A      0.916710   117A      0.931046   118A      0.932027  
     119A      0.941364   120A      0.948200   121A      0.953388  
     122A      0.963132   123A      0.965881   124A      0.970015  
     125A      0.983137   126A      0.988866   127A      0.995842  
     128A      1.005755   129A      1.011380   130A      1.016929  
     131A      1.023326   132A      1.031215   133A      1.037891  
     134A      1.046557   135A      1.056856   136A      1.071106  
     137A      1.077111   138A      1.081670   139A      1.085905  
     140A      1.089875   141A      1.091952   142A      1.094981  
     143A      1.101753   144A      1.107285   145A      1.115121  
     146A      1.119490   147A      1.127186   148A      1.131819  
     149A      1.142044   150A      1.145124   151A      1.152246  
     152A      1.172082   153A      1.174848   154A      1.176369  
     155A      1.181839   156A      1.193537   157A      1.201844  
     158A      1.208580   159A      1.211312   160A      1.220605  
     161A      1.239204   162A      1.248325   163A      1.253690  
     164A      1.254625   165A      1.265985   166A      1.277672  
     167A      1.287667   168A      1.310316   169A      1.315099  
     170A      1.330473   171A      1.342307   172A      1.345357  
     173A      1.354344   174A      1.368852   175A      1.371973  
     176A      1.384012   177A      1.386345   178A      1.394816  
     179A      1.406856   180A      1.421737   181A      1.424039  
     182A      1.447417   183A      1.479409   184A      1.504093  
     185A      1.575911   186A      1.590864   187A      1.593527  
     188A      1.624054   189A      1.641679   190A      1.647598  
     191A      1.672159   192A      1.682006   193A      1.697027  
     194A      1.701927   195A      1.708442   196A      1.717514  
     197A      1.723750   198A      1.751119   199A      1.764549  
     200A      1.794553   201A      1.810232   202A      1.837596  
     203A      1.844806   204A      1.864204   205A      1.894086  
     206A      1.910166   207A      1.935542   208A      1.946701  
     209A      1.950631   210A      1.958350   211A      1.970460  
     212A      1.996538   213A      2.001719   214A      2.031447  
     215A      2.055209   216A      2.066335   217A      2.072740  
     218A      2.089580   219A      2.112137   220A      2.137059  
     221A      2.146869   222A      2.161666   223A      2.188485  
     224A      2.195340   225A      2.221222   226A      2.256277  
     227A      2.287095   228A      2.292681   229A      2.346447  
     230A      2.354164   231A      2.390154   232A      2.429916  
     233A      2.433852   234A      2.453669   235A      2.467370  
     236A      2.477141   237A      2.506266   238A      2.548519  
     239A      2.585914   240A      2.642621   241A      2.663195  
     242A      2.705172   243A      2.709977   244A      2.714776  
     245A      2.757412   246A      2.819212   247A      2.889728  
     248A      3.028531   249A      3.066492   250A      3.080089  
     251A      3.089185   252A      3.103618   253A      3.136564  
     254A      3.173835   255A      3.308825   256A      3.351450  
     257A      3.354421   258A      3.358009   259A      3.440085  
     260A      3.521911   261A      3.528560   262A      3.580630  
     263A      3.593678   264A      3.597093   265A      3.615618  
     266A      3.632824   267A      3.639270   268A      3.651521  
     269A      3.689798   270A      3.707742   271A      3.776863  
     272A      3.795696   273A      3.815872   274A      3.830953  
     275A      3.909249   276A      3.927017   277A      3.938155  
     278A      4.001347   279A      4.005566   280A      4.034961  
     281A      4.058031   282A      4.078074   283A      4.081208  
     284A      4.109477   285A      4.112663   286A      4.118066  
     287A      4.121263   288A      4.130024   289A      4.149635  
     290A      4.176396   291A      4.181845   292A      4.198843  
     293A      4.240249   294A      4.290368   295A      4.308733  
     296A      4.374745   297A      4.384383   298A      4.413582  
     299A      4.418820   300A      4.427921   301A      4.442265  
     302A      4.473881   303A      4.483908   304A      4.489190  
     305A      4.507213   306A      4.515555   307A      4.556827  
     308A      4.563724   309A      4.630778   310A      4.649927  
     311A      4.663814   312A      4.684624   313A      4.694544  
     314A      4.751359   315A      4.764380   316A      4.801798  
     317A      4.806774   318A      4.808803   319A      4.887916  
     320A      4.891550   321A      4.907483   322A      4.915833  
     323A      4.924997   324A      4.945613   325A      4.966279  
     326A      4.983412   327A      5.000431   328A      5.024510  
     329A      5.127538   330A      5.155217   331A      5.178902  
     332A      5.199192   333A      5.249823   334A      5.278778  
     335A      5.310114   336A      5.317593   337A      5.337804  
     338A      5.353264   339A      5.454131   340A      5.481074  
     341A      5.494604   342A      5.552229   343A      5.574255  
     344A      5.585034   345A      5.608911   346A      5.613138  
     347A      5.664507   348A      5.812625   349A      5.855436  
     350A      5.972216   351A      6.079706   352A      6.089023  
     353A      6.120349   354A      6.163943   355A      6.178908  
     356A      6.219465   357A      6.622733   358A      6.658809  
     359A      6.681159   360A      6.692034   361A      6.774184  
     362A      7.132432   363A      7.689889   364A      7.734368  
     365A      7.750751   366A      7.811257   367A      8.143692  
     368A      8.168448   369A     10.290545   370A     14.910681  
     371A     17.004501   372A     24.206619   373A     24.915273  
     374A     25.247202   375A     51.395032   376A    141.690816  

    Final Occupation by Irrep:
              A 
    DOCC [    13 ]

  @DF-RHF Final Energy:  -437.75749957273069

   => Energetics <=

    Nuclear Repulsion Energy =             56.4509116468952215
    One-Electron Energy =                -715.3682949855473225
    Two-Electron Energy =                 221.1598837659215064
    Total Energy =                       -437.7574995727306373

Computation Completed


Properties will be evaluated at   0.000000,   0.000000,   0.000000 [a0]

Properties computed using the SCF density matrix

  Nuclear Dipole Moment: [e a0]
     X:  -153.4969      Y:   -30.6224      Z:    32.9692

  Electronic Dipole Moment: [e a0]
     X:   153.6071      Y:    30.7823      Z:   -33.5976

  Dipole Moment: [e a0]
     X:     0.1102      Y:     0.1598      Z:    -0.6283     Total:     0.6576

  Dipole Moment: [D]
     X:     0.2802      Y:     0.4063      Z:    -1.5970     Total:     1.6715


*** tstop() called on node86.bme.utexas.edu at Thu Apr 23 12:04:56 2020
Module time:
	user time   =      32.39 seconds =       0.54 minutes
	system time =       0.91 seconds =       0.02 minutes
	total time  =          5 seconds =       0.08 minutes
Total time:
	user time   =      92.89 seconds =       1.55 minutes
	system time =       2.68 seconds =       0.04 minutes
	total time  =         15 seconds =       0.25 minutes

*** tstart() called on node86.bme.utexas.edu
*** at Thu Apr 23 12:04:56 2020


  //>>>>>>>>>>>>>>>>>>>>>>>>>>>>>>>>>>>//
  //               DFMP2               //
  //<<<<<<<<<<<<<<<<<<<<<<<<<<<<<<<<<<<//

   => Loading Basis Set <=

    Name: (AUG-CC-PVTZ AUX)
    Role: RIFIT
    Keyword: DF_BASIS_MP2
    atoms 1, 7      entry C          line   148 file /home/liuchw/anaconda3/envs/psi4env/share/psi4/basis/aug-cc-pvtz-ri.gbs 
    atoms 2, 8      entry S          line   666 file /home/liuchw/anaconda3/envs/psi4env/share/psi4/basis/aug-cc-pvtz-ri.gbs 
    atoms 3-6, 9-12 entry H          line    30 file /home/liuchw/anaconda3/envs/psi4env/share/psi4/basis/aug-cc-pvtz-ri.gbs 

	 --------------------------------------------------------
	                          DF-MP2                         
	      2nd-Order Density-Fitted Moller-Plesset Theory     
	              RMP2 Wavefunction,   8 Threads             
	                                                         
	        Rob Parrish, Justin Turney, Andy Simmonett,      
	           Ed Hohenstein, and C. David Sherrill          
	 --------------------------------------------------------

   => Auxiliary Basis Set <=

  Basis Set: (AUG-CC-PVTZ AUX)
    Blend: AUG-CC-PVTZ-RI
    Number of shells: 242
    Number of basis function: 874
    Number of Cartesian functions: 1094
    Spherical Harmonics?: true
    Max angular momentum: 4

	 --------------------------------------------------------
	                 NBF =   376, NAUX =   874
	 --------------------------------------------------------
	   CLASS    FOCC     OCC    AOCC    AVIR     VIR    FVIR
	   PAIRS       0      13      13     363     363       0
	 --------------------------------------------------------

	-----------------------------------------------------------
	 ==================> DF-MP2 Energies <==================== 
	-----------------------------------------------------------
	 Reference Energy          =    -437.7574995727306941 [Eh]
	 Singles Energy            =      -0.0000000000000000 [Eh]
	 Same-Spin Energy          =      -0.0937334031597280 [Eh]
	 Opposite-Spin Energy      =      -0.3349470143861584 [Eh]
	 Correlation Energy        =      -0.4286804175458864 [Eh]
	 Total Energy              =    -438.1861799902765711 [Eh]
	-----------------------------------------------------------
	 ================> DF-SCS-MP2 Energies <================== 
	-----------------------------------------------------------
	 SCS Same-Spin Scale       =       0.3333333333333333 [-]
	 SCS Opposite-Spin Scale   =       1.2000000000000000 [-]
	 SCS Same-Spin Energy      =      -0.0312444677199093 [Eh]
	 SCS Opposite-Spin Energy  =      -0.4019364172633900 [Eh]
	 SCS Correlation Energy    =      -0.4331808849832993 [Eh]
	 SCS Total Energy          =    -438.1906804577139951 [Eh]
	-----------------------------------------------------------


*** tstop() called on node86.bme.utexas.edu at Thu Apr 23 12:04:59 2020
Module time:
	user time   =      16.79 seconds =       0.28 minutes
	system time =       0.45 seconds =       0.01 minutes
	total time  =          3 seconds =       0.05 minutes
Total time:
	user time   =     109.69 seconds =       1.83 minutes
	system time =       3.13 seconds =       0.05 minutes
	total time  =         18 seconds =       0.30 minutes

  //>>>>>>>>>>>>>>>>>>>>>>>>>>>>>>>>>>>>//
  // CBS Computation: MP2 / AUG-CC-PVQZ //
  //<<<<<<<<<<<<<<<<<<<<<<<<<<<<<<<<<<<<//


Scratch directory: /scratch/liuchw/

*** tstart() called on node86.bme.utexas.edu
*** at Thu Apr 23 12:04:59 2020

   => Loading Basis Set <=

    Name: AUG-CC-PVQZ
    Role: ORBITAL
    Keyword: BASIS
    atoms 1, 7      entry C          line   303 file /home/liuchw/anaconda3/envs/psi4env/share/psi4/basis/aug-cc-pvqz.gbs 
    atoms 2, 8      entry S          line  1126 file /home/liuchw/anaconda3/envs/psi4env/share/psi4/basis/aug-cc-pvqz.gbs 
    atoms 3-6, 9-12 entry H          line    40 file /home/liuchw/anaconda3/envs/psi4env/share/psi4/basis/aug-cc-pvqz.gbs 


         ---------------------------------------------------------
                                   SCF
               by Justin Turney, Rob Parrish, Andy Simmonett
                          and Daniel G. A. Smith
                              RHF Reference
                        8 Threads,  19073 MiB Core
         ---------------------------------------------------------

  ==> Geometry <==

    Molecular point group: c1
    Full point group: C1

    Geometry (in Angstrom), charge = 0, multiplicity = 1:

       Center              X                  Y                   Z               Mass       
    ------------   -----------------  -----------------  -----------------  -----------------
      Gh(C)           3.127491570498    -0.589911303625    -0.864036558142    12.000000000000
      Gh(S)           3.112951570498     1.221328696375    -0.732456558142    31.972071174400
      Gh(H)           3.531281570498     1.287128696375     0.534683441858     1.007825032230
      Gh(H)           2.386491570498    -1.035981303625    -0.206896558142     1.007825032230
      Gh(H)           2.873921570498    -0.819711303625    -1.895406558142     1.007825032230
      Gh(H)           4.115141570498    -0.987271303625    -0.654016558142     1.007825032230
         C           -3.372968429502    -0.716521303625    -0.448376558142    12.000000000000
         S           -3.036758429502    -0.618701303625     1.332233441858    31.972071174400
         H           -2.025288429502     0.251428696375     1.226763441858     1.007825032230
         H           -2.509948429502    -1.090191303625    -0.991246558142     1.007825032230
         H           -3.671228429502     0.249068696375    -0.843696558142     1.007825032230
         H           -4.194658429502    -1.416651303625    -0.570726558142     1.007825032230

  Running in c1 symmetry.

  Rotational constants: A =      0.21373  B =      0.01576  C =      0.01558 [cm^-1]
  Rotational constants: A =   6407.58977  B =    472.43699  C =    467.08563 [MHz]
  Nuclear repulsion =   56.450911646895221

  Charge       = 0
  Multiplicity = 1
  Electrons    = 26
  Nalpha       = 13
  Nbeta        = 13

  ==> Algorithm <==

  SCF Algorithm Type is DF.
  DIIS enabled.
  MOM disabled.
  Fractional occupation disabled.
  Guess Type is SAD.
  Energy threshold   = 1.00e-07
  Density threshold  = 1.00e-08
  Integral threshold = 0.00e+00

  ==> Primary Basis <==

  Basis Set: AUG-CC-PVQZ
    Blend: AUG-CC-PVQZ
    Number of shells: 196
    Number of basis function: 696
    Number of Cartesian functions: 868
    Spherical Harmonics?: true
    Max angular momentum: 4

   => Loading Basis Set <=

    Name: (AUG-CC-PVQZ AUX)
    Role: JKFIT
    Keyword: DF_BASIS_SCF
    atoms 1, 7      entry C          line   178 file /home/liuchw/anaconda3/envs/psi4env/share/psi4/basis/aug-cc-pvqz-jkfit.gbs 
    atoms 2, 8      entry S          line   810 file /home/liuchw/anaconda3/envs/psi4env/share/psi4/basis/aug-cc-pvqz-jkfit.gbs 
    atoms 3-6, 9-12 entry H          line    70 file /home/liuchw/anaconda3/envs/psi4env/share/psi4/basis/aug-cc-pvqz-jkfit.gbs 

  ==> Pre-Iterations <==

   -------------------------------------------------------
    Irrep   Nso     Nmo     Nalpha   Nbeta   Ndocc  Nsocc
   -------------------------------------------------------
     A        696     696       0       0       0       0
   -------------------------------------------------------
    Total     696     696      13      13      13       0
   -------------------------------------------------------

  ==> Integral Setup <==

  DFHelper Memory: AOs need 3.669 GiB; user supplied 13.970 GiB. Using in-core AOs.

  ==> MemDFJK: Density-Fitted J/K Matrices <==

    J tasked:                   Yes
    K tasked:                   Yes
    wK tasked:                   No
    OpenMP threads:               8
    Memory [MiB]:             14305
    Algorithm:                 Core
    Schwarz Cutoff:           1E-12
    Mask sparsity (%):      22.8320
    Fitting Condition:        1E-10

   => Auxiliary Basis Set <=

  Basis Set: (AUG-CC-PVQZ AUX)
    Blend: AUG-CC-PVQZ-JKFIT
    Number of shells: 304
    Number of basis function: 1260
    Number of Cartesian functions: 1698
    Spherical Harmonics?: true
    Max angular momentum: 5

  Minimum eigenvalue in the overlap matrix is 1.3871516546E-05.
  Using Symmetric Orthogonalization.

  SCF Guess: Superposition of Atomic Densities via on-the-fly atomic UHF.

  ==> Iterations <==

                           Total Energy        Delta E     RMS |[F,P]|

   @DF-RHF iter SAD:  -437.28929492586053   -4.37289e+02   0.00000e+00 
   @DF-RHF iter   1:  -437.69787829708457   -4.08583e-01   4.64594e-04 DIIS
   @DF-RHF iter   2:  -437.75342823911052   -5.55499e-02   1.91136e-04 DIIS
   @DF-RHF iter   3:  -437.76290528314382   -9.47704e-03   4.70326e-05 DIIS
   @DF-RHF iter   4:  -437.76403941420324   -1.13413e-03   1.31038e-05 DIIS
   @DF-RHF iter   5:  -437.76413763463279   -9.82204e-05   3.04327e-06 DIIS
   @DF-RHF iter   6:  -437.76414437269329   -6.73806e-06   8.47630e-07 DIIS
   @DF-RHF iter   7:  -437.76414495626983   -5.83577e-07   2.52310e-07 DIIS
   @DF-RHF iter   8:  -437.76414500979502   -5.35252e-08   4.90436e-08 DIIS
   @DF-RHF iter   9:  -437.76414501197110   -2.17608e-09   8.82077e-09 DIIS
  Energy and wave function converged.


  ==> Post-Iterations <==

    Orbital Energies [Eh]
    ---------------------

    Doubly Occupied:                                                      

       1A    -91.951200     2A    -11.255708     3A     -8.953470  
       4A     -6.635103     5A     -6.634173     6A     -6.633204  
       7A     -1.038346     8A     -0.866778     9A     -0.609332  
      10A     -0.592805    11A     -0.527275    12A     -0.461617  
      13A     -0.357322  

    Virtual:                                                              

      14A      0.017297    15A      0.029069    16A      0.033782  
      17A      0.038308    18A      0.043364    19A      0.046046  
      20A      0.052579    21A      0.065615    22A      0.069892  
      23A      0.073820    24A      0.081610    25A      0.084955  
      26A      0.088795    27A      0.094878    28A      0.102832  
      29A      0.106482    30A      0.109028    31A      0.112673  
      32A      0.120862    33A      0.124099    34A      0.130763  
      35A      0.137595    36A      0.140374    37A      0.150727  
      38A      0.173697    39A      0.181258    40A      0.185561  
      41A      0.192887    42A      0.210902    43A      0.213572  
      44A      0.217343    45A      0.220861    46A      0.225843  
      47A      0.228807    48A      0.230319    49A      0.233264  
      50A      0.244231    51A      0.246738    52A      0.249394  
      53A      0.253389    54A      0.255421    55A      0.258509  
      56A      0.261222    57A      0.267560    58A      0.272169  
      59A      0.278148    60A      0.284327    61A      0.285965  
      62A      0.292988    63A      0.299232    64A      0.302901  
      65A      0.308979    66A      0.309858    67A      0.315395  
      68A      0.316695    69A      0.321846    70A      0.323942  
      71A      0.330860    72A      0.333933    73A      0.336418  
      74A      0.341930    75A      0.343800    76A      0.346837  
      77A      0.354480    78A      0.357414    79A      0.366856  
      80A      0.369985    81A      0.378851    82A      0.385849  
      83A      0.391942    84A      0.406403    85A      0.410815  
      86A      0.414369    87A      0.424083    88A      0.430558  
      89A      0.437813    90A      0.447034    91A      0.455725  
      92A      0.465111    93A      0.471071    94A      0.493582  
      95A      0.496531    96A      0.507605    97A      0.509432  
      98A      0.514441    99A      0.524246   100A      0.532881  
     101A      0.548766   102A      0.554958   103A      0.571826  
     104A      0.584746   105A      0.591222   106A      0.599542  
     107A      0.603258   108A      0.614429   109A      0.634732  
     110A      0.638911   111A      0.648121   112A      0.656960  
     113A      0.663309   114A      0.666745   115A      0.677382  
     116A      0.680499   117A      0.684705   118A      0.687254  
     119A      0.689789   120A      0.696918   121A      0.703329  
     122A      0.706647   123A      0.709606   124A      0.710992  
     125A      0.716474   126A      0.719881   127A      0.725334  
     128A      0.733590   129A      0.735537   130A      0.738484  
     131A      0.747932   132A      0.752719   133A      0.763867  
     134A      0.766969   135A      0.771687   136A      0.775574  
     137A      0.783635   138A      0.786692   139A      0.791026  
     140A      0.794079   141A      0.800971   142A      0.802365  
     143A      0.811331   144A      0.815101   145A      0.819946  
     146A      0.824721   147A      0.835281   148A      0.842107  
     149A      0.848223   150A      0.854616   151A      0.859571  
     152A      0.861229   153A      0.872576   154A      0.877695  
     155A      0.879884   156A      0.892902   157A      0.896920  
     158A      0.904412   159A      0.908012   160A      0.915795  
     161A      0.920137   162A      0.927166   163A      0.939083  
     164A      0.945077   165A      0.951597   166A      0.955972  
     167A      0.965936   168A      0.975404   169A      0.984182  
     170A      0.988384   171A      0.993012   172A      0.997333  
     173A      1.005783   174A      1.016159   175A      1.029863  
     176A      1.034661   177A      1.041394   178A      1.049599  
     179A      1.060328   180A      1.065873   181A      1.073757  
     182A      1.078956   183A      1.094575   184A      1.105390  
     185A      1.111339   186A      1.126205   187A      1.138864  
     188A      1.160060   189A      1.169014   190A      1.177987  
     191A      1.182574   192A      1.197502   193A      1.210259  
     194A      1.218724   195A      1.231209   196A      1.235108  
     197A      1.254886   198A      1.255280   199A      1.267086  
     200A      1.301825   201A      1.314211   202A      1.318569  
     203A      1.326321   204A      1.336037   205A      1.372624  
     206A      1.392266   207A      1.405296   208A      1.417862  
     209A      1.422905   210A      1.427631   211A      1.443275  
     212A      1.462121   213A      1.472032   214A      1.479241  
     215A      1.488666   216A      1.496123   217A      1.512372  
     218A      1.525482   219A      1.537645   220A      1.542971  
     221A      1.556320   222A      1.558531   223A      1.580775  
     224A      1.596151   225A      1.600863   226A      1.618303  
     227A      1.624830   228A      1.630759   229A      1.633214  
     230A      1.639986   231A      1.661948   232A      1.668166  
     233A      1.678599   234A      1.683972   235A      1.690352  
     236A      1.698921   237A      1.709575   238A      1.715353  
     239A      1.722021   240A      1.728903   241A      1.738548  
     242A      1.745123   243A      1.748482   244A      1.758465  
     245A      1.763184   246A      1.771636   247A      1.786426  
     248A      1.802090   249A      1.807246   250A      1.814859  
     251A      1.816494   252A      1.818827   253A      1.828296  
     254A      1.834551   255A      1.838172   256A      1.845490  
     257A      1.849865   258A      1.862931   259A      1.864926  
     260A      1.870581   261A      1.878681   262A      1.891818  
     263A      1.892914   264A      1.895569   265A      1.910188  
     266A      1.913353   267A      1.920313   268A      1.935475  
     269A      1.939711   270A      1.944725   271A      1.948651  
     272A      1.969535   273A      1.973898   274A      1.974719  
     275A      1.980707   276A      1.986727   277A      1.996594  
     278A      2.000023   279A      2.001689   280A      2.009903  
     281A      2.016395   282A      2.022983   283A      2.034285  
     284A      2.042998   285A      2.045540   286A      2.049423  
     287A      2.064002   288A      2.070433   289A      2.082147  
     290A      2.089771   291A      2.095289   292A      2.108505  
     293A      2.116301   294A      2.123876   295A      2.133448  
     296A      2.148732   297A      2.155543   298A      2.159400  
     299A      2.164839   300A      2.174349   301A      2.175846  
     302A      2.185408   303A      2.201650   304A      2.203094  
     305A      2.217178   306A      2.225697   307A      2.243369  
     308A      2.247877   309A      2.250720   310A      2.257076  
     311A      2.266924   312A      2.277434   313A      2.297044  
     314A      2.308354   315A      2.312455   316A      2.314083  
     317A      2.317858   318A      2.334230   319A      2.349288  
     320A      2.363775   321A      2.375618   322A      2.382714  
     323A      2.406805   324A      2.417112   325A      2.420785  
     326A      2.424995   327A      2.432133   328A      2.434362  
     329A      2.464095   330A      2.480498   331A      2.488831  
     332A      2.496676   333A      2.513187   334A      2.543684  
     335A      2.563717   336A      2.567086   337A      2.571373  
     338A      2.607541   339A      2.618910   340A      2.635194  
     341A      2.646132   342A      2.657772   343A      2.665116  
     344A      2.693101   345A      2.709578   346A      2.728446  
     347A      2.742205   348A      2.744935   349A      2.762715  
     350A      2.773282   351A      2.787037   352A      2.806145  
     353A      2.813844   354A      2.823336   355A      2.833302  
     356A      2.843068   357A      2.849189   358A      2.868919  
     359A      2.877462   360A      2.915907   361A      2.980929  
     362A      3.002213   363A      3.005060   364A      3.007506  
     365A      3.030802   366A      3.033368   367A      3.042582  
     368A      3.042821   369A      3.047891   370A      3.076614  
     371A      3.086365   372A      3.088036   373A      3.100799  
     374A      3.118038   375A      3.119565   376A      3.128551  
     377A      3.140822   378A      3.176056   379A      3.191995  
     380A      3.216560   381A      3.228602   382A      3.249619  
     383A      3.256573   384A      3.263820   385A      3.278633  
     386A      3.294413   387A      3.305712   388A      3.310519  
     389A      3.315949   390A      3.321848   391A      3.352843  
     392A      3.394840   393A      3.403680   394A      3.411115  
     395A      3.419190   396A      3.445415   397A      3.478846  
     398A      3.494879   399A      3.516305   400A      3.524748  
     401A      3.533734   402A      3.543414   403A      3.582005  
     404A      3.625667   405A      3.636160   406A      3.637500  
     407A      3.639519   408A      3.668388   409A      3.715355  
     410A      3.744036   411A      3.753075   412A      3.777215  
     413A      3.778643   414A      3.807685   415A      3.816412  
     416A      3.829892   417A      3.840041   418A      3.855408  
     419A      3.868691   420A      3.871622   421A      3.898870  
     422A      3.900865   423A      3.905889   424A      3.931763  
     425A      3.976924   426A      3.985165   427A      3.997258  
     428A      4.004343   429A      4.019748   430A      4.029534  
     431A      4.040470   432A      4.056915   433A      4.060020  
     434A      4.071995   435A      4.073259   436A      4.088401  
     437A      4.111545   438A      4.122742   439A      4.127583  
     440A      4.138480   441A      4.149316   442A      4.153434  
     443A      4.177795   444A      4.204727   445A      4.264155  
     446A      4.267323   447A      4.276878   448A      4.302675  
     449A      4.328374   450A      4.339124   451A      4.354077  
     452A      4.373548   453A      4.389802   454A      4.395208  
     455A      4.484143   456A      4.498696   457A      4.520447  
     458A      4.537327   459A      4.554930   460A      4.578894  
     461A      4.659635   462A      4.675526   463A      4.684228  
     464A      4.708346   465A      4.710858   466A      4.719613  
     467A      4.729009   468A      4.757239   469A      4.765657  
     470A      4.771660   471A      4.792147   472A      4.818129  
     473A      4.833405   474A      4.848984   475A      4.905599  
     476A      4.910419   477A      4.925433   478A      4.963412  
     479A      4.981787   480A      4.986831   481A      4.997534  
     482A      5.055642   483A      5.060397   484A      5.071200  
     485A      5.122519   486A      5.158008   487A      5.221858  
     488A      5.241751   489A      5.271574   490A      5.287315  
     491A      5.331629   492A      5.359101   493A      5.434682  
     494A      5.482304   495A      5.516105   496A      5.597819  
     497A      5.637064   498A      5.766384   499A      5.977628  
     500A      6.120670   501A      6.158959   502A      6.227678  
     503A      6.277825   504A      6.316721   505A      6.375823  
     506A      6.383361   507A      6.427894   508A      6.475761  
     509A      6.581355   510A      6.601114   511A      6.616148  
     512A      6.617074   513A      6.699696   514A      6.724840  
     515A      6.732511   516A      6.745375   517A      6.746648  
     518A      6.778976   519A      6.798831   520A      6.804603  
     521A      6.807484   522A      6.848076   523A      6.866757  
     524A      6.870776   525A      6.882056   526A      6.926022  
     527A      6.933806   528A      6.943777   529A      6.956545  
     530A      6.989318   531A      6.993098   532A      7.022824  
     533A      7.028947   534A      7.035443   535A      7.060256  
     536A      7.074962   537A      7.107196   538A      7.125919  
     539A      7.132345   540A      7.141420   541A      7.182870  
     542A      7.212147   543A      7.220203   544A      7.222627  
     545A      7.252938   546A      7.294566   547A      7.317635  
     548A      7.329054   549A      7.345729   550A      7.384892  
     551A      7.415533   552A      7.420960   553A      7.458126  
     554A      7.470647   555A      7.476051   556A      7.501959  
[...]
     228A      1.468534   229A      1.484523   230A      1.492651  
     231A      1.493633   232A      1.502390   233A      1.512108  
     234A      1.515500   235A      1.525799   236A      1.535511  
     237A      1.544921   238A      1.556184   239A      1.558267  
     240A      1.574962   241A      1.592997   242A      1.601504  
     243A      1.617472   244A      1.624179   245A      1.625821  
     246A      1.627077   247A      1.646135   248A      1.652413  
     249A      1.660569   250A      1.668193   251A      1.676749  
     252A      1.682128   253A      1.690412   254A      1.692047  
     255A      1.694316   256A      1.702229   257A      1.716568  
     258A      1.718318   259A      1.722913   260A      1.734461  
     261A      1.744568   262A      1.747142   263A      1.749343  
     264A      1.759939   265A      1.764997   266A      1.779731  
     267A      1.802759   268A      1.805095   269A      1.809380  
     270A      1.818025   271A      1.824024   272A      1.828725  
     273A      1.835062   274A      1.841744   275A      1.856667  
     276A      1.863704   277A      1.869972   278A      1.879855  
     279A      1.888949   280A      1.895989   281A      1.898264  
     282A      1.902429   283A      1.909988   284A      1.914048  
     285A      1.937349   286A      1.941223   287A      1.943961  
     288A      1.950064   289A      1.961106   290A      1.968753  
     291A      1.971602   292A      1.976059   293A      1.980817  
     294A      1.985182   295A      1.991177   296A      1.998883  
     297A      2.004628   298A      2.009145   299A      2.012775  
     300A      2.018994   301A      2.024845   302A      2.026538  
     303A      2.035295   304A      2.043343   305A      2.059032  
     306A      2.061401   307A      2.071799   308A      2.075771  
     309A      2.092999   310A      2.095808   311A      2.128349  
     312A      2.133792   313A      2.141772   314A      2.146376  
     315A      2.149656   316A      2.158790   317A      2.167475  
     318A      2.170437   319A      2.181428   320A      2.182256  
     321A      2.207868   322A      2.213031   323A      2.226665  
     324A      2.231136   325A      2.248367   326A      2.254260  
     327A      2.260530   328A      2.263274   329A      2.272233  
     330A      2.275269   331A      2.309838   332A      2.312503  
     333A      2.316739   334A      2.325358   335A      2.333079  
     336A      2.336571   337A      2.344028   338A      2.352096  
     339A      2.358957   340A      2.366088   341A      2.394712  
     342A      2.402664   343A      2.409089   344A      2.419465  
     345A      2.420518   346A      2.426412   347A      2.428680  
     348A      2.438240   349A      2.490008   350A      2.496051  
     351A      2.565813   352A      2.567487   353A      2.571671  
     354A      2.572289   355A      2.604467   356A      2.609524  
     357A      2.631364   358A      2.639376   359A      2.661089  
     360A      2.664680   361A      2.739171   362A      2.741885  
     363A      2.743820   364A      2.747731   365A      2.786702  
     366A      2.790419   367A      2.803011   368A      2.806886  
     369A      2.821564   370A      2.826276   371A      2.832073  
     372A      2.837280   373A      2.840402   374A      2.845788  
     375A      2.860773   376A      2.868816   377A      2.913621  
     378A      2.916641   379A      2.995864   380A      3.002293  
     381A      3.003544   382A      3.007484   383A      3.034044  
     384A      3.035578   385A      3.041202   386A      3.045031  
     387A      3.080849   388A      3.082241   389A      3.085892  
     390A      3.088037   391A      3.091495   392A      3.098606  
     393A      3.115922   394A      3.119396   395A      3.128853  
     396A      3.139284   397A      3.179197   398A      3.193782  
     399A      3.205510   400A      3.217289   401A      3.248917  
     402A      3.250806   403A      3.258823   404A      3.263100  
     405A      3.300919   406A      3.307348   407A      3.313709  
     408A      3.317459   409A      3.399363   410A      3.415433  
     411A      3.475437   412A      3.493632   413A      3.515276  
     414A      3.519451   415A      3.535528   416A      3.543606  
     417A      3.581875   418A      3.587318   419A      3.627712  
     420A      3.636998   421A      3.638138   422A      3.642667  
     423A      3.708360   424A      3.715175   425A      3.736963  
     426A      3.744380   427A      3.746085   428A      3.754407  
     429A      3.769373   430A      3.770884   431A      3.778225  
     432A      3.786336   433A      3.806168   434A      3.809516  
     435A      3.822046   436A      3.830877   437A      3.850453  
     438A      3.854655   439A      3.868012   440A      3.869860  
     441A      3.898263   442A      3.903235   443A      3.923092  
     444A      3.932251   445A      3.976817   446A      3.984817  
     447A      3.997285   448A      3.998312   449A      4.003383  
     450A      4.006777   451A      4.017498   452A      4.022220  
     453A      4.059530   454A      4.062043   455A      4.072907  
     456A      4.077564   457A      4.112766   458A      4.121092  
     459A      4.124983   460A      4.131661   461A      4.136785  
     462A      4.139702   463A      4.152011   464A      4.154883  
     465A      4.176461   466A      4.183654   467A      4.204295  
     468A      4.206359   469A      4.262820   470A      4.265451  
     471A      4.268735   472A      4.277218   473A      4.325179  
     474A      4.329005   475A      4.354758   476A      4.355470  
     477A      4.372551   478A      4.378724   479A      4.476262  
     480A      4.484973   481A      4.516772   482A      4.518562  
     483A      4.530150   484A      4.538737   485A      4.550444  
     486A      4.558739   487A      4.576643   488A      4.581265  
     489A      4.672569   490A      4.676555   491A      4.704678  
     492A      4.711077   493A      4.767937   494A      4.769065  
     495A      4.787151   496A      4.791760   497A      4.818422  
     498A      4.823152   499A      4.905254   500A      4.909795  
     501A      4.964364   502A      4.968238   503A      4.974373  
     504A      4.984722   505A      5.061552   506A      5.065654  
     507A      5.113010   508A      5.123585   509A      5.241083  
     510A      5.244139   511A      6.120230   512A      6.123066  
     513A      6.156106   514A      6.159728   515A      6.224195  
     516A      6.229029   517A      6.271660   518A      6.278371  
     519A      6.317130   520A      6.328636   521A      6.374109  
     522A      6.377786   523A      6.381079   524A      6.384047  
     525A      6.428491   526A      6.437698   527A      6.583600  
     528A      6.601597   529A      6.616525   530A      6.618047  
     531A      6.720857   532A      6.725226   533A      6.729818  
     534A      6.733036   535A      6.743560   536A      6.745784  
     537A      6.746788   538A      6.749228   539A      6.774604  
     540A      6.779775   541A      6.797440   542A      6.801884  
     543A      6.860469   544A      6.871100   545A      6.926308  
     546A      6.927371   547A      6.954290   548A      6.956797  
     549A      6.986254   550A      6.989520   551A      6.992089  
     552A      6.995148   553A      7.058258   554A      7.063223  
     555A      7.075719   556A      7.083843   557A      7.122421  
     558A      7.126543   559A      7.135232   560A      7.142144  
     561A      7.176422   562A      7.183772   563A      7.211036  
     564A      7.218759   565A      7.219630   566A      7.225289  
     567A      7.314036   568A      7.318502   569A      7.329070  
     570A      7.333185   571A      7.469130   572A      7.476825  
     573A      7.551229   574A      7.553698   575A      7.566235  
     576A      7.572671   577A      7.605002   578A      7.610599  
     579A      7.654548   580A      7.657040   581A      7.676664  
     582A      7.682093   583A      7.735834   584A      7.741857  
     585A      7.748740   586A      7.754044   587A      7.767739  
     588A      7.781217   589A      7.807561   590A      7.820510  
     591A      7.918615   592A      7.937908   593A      7.946004  
     594A      7.949863   595A      7.971450   596A      7.975913  
     597A      8.290689   598A      8.301514   599A      8.309663  
     600A      8.322050   601A      8.341374   602A      8.345022  
     603A      8.393269   604A      8.397468   605A      8.403916  
     606A      8.411612   607A      8.436203   608A      8.445863  
     609A      8.515192   610A      8.521317   611A      8.643410  
     612A      8.646848   613A      8.652666   614A      8.659162  
     615A      8.699560   616A      8.713266   617A      8.748222  
     618A      8.750297   619A      8.841285   620A      8.852195  
     621A      8.881695   622A      8.883429   623A      8.933823  
     624A      8.942704   625A      8.979934   626A      8.980393  
     627A      9.028629   628A      9.036420   629A      9.069763  
     630A      9.072686   631A      9.200115   632A      9.204328  
     633A      9.216211   634A      9.225244   635A      9.241399  
     636A      9.249897   637A      9.251905   638A      9.254491  
     639A      9.366034   640A      9.377582   641A      9.419365  
     642A      9.428362   643A      9.459367   644A      9.464971  
     645A      9.540834   646A      9.546343   647A      9.562145  
     648A      9.569418   649A      9.572224   650A      9.573060  
     651A      9.634988   652A      9.636416   653A      9.737206  
     654A      9.754508   655A      9.774224   656A      9.785704  
     657A      9.858254   658A      9.863386   659A     10.016444  
     660A     10.029799   661A     10.036289   662A     10.044171  
     663A     10.151065   664A     10.153311   665A     10.186099  
     666A     10.191019   667A     10.384366   668A     10.397874  
     669A     10.405770   670A     10.411254   671A     10.450285  
     672A     10.453464   673A     10.805138   674A     10.811875  
     675A     10.815171   676A     10.828181   677A     10.922774  
     678A     10.927161   679A     11.032700   680A     11.043641  
     681A     11.045283   682A     11.049795   683A     11.110699  
     684A     11.118975   685A     11.471915   686A     11.477825  
     687A     13.206216   688A     13.212836   689A     13.214018  
     690A     13.232085   691A     13.335258   692A     13.340388  
     693A     21.862870   694A     21.887423   695A     28.601217  
     696A     28.605278  

    Final Occupation by Irrep:
              A 
    DOCC [    26 ]

  @DF-RHF Final Energy:  -875.52867036777002

   => Energetics <=

    Nuclear Repulsion Energy =            166.7603706503832655
    One-Electron Energy =               -1538.4775543795485646
    Two-Electron Energy =                 496.1885133613952235
    Total Energy =                       -875.5286703677700189

Computation Completed


Properties will be evaluated at   0.000000,   0.000000,   0.000000 [a0]

Properties computed using the SCF density matrix

  Nuclear Dipole Moment: [e a0]
     X:     0.4761      Y:    -3.3235      Z:    -3.1721

  Electronic Dipole Moment: [e a0]
     X:    -0.2539      Y:     2.8870      Z:     2.7844

  Dipole Moment: [e a0]
     X:     0.2223      Y:    -0.4365      Z:    -0.3877     Total:     0.6247

  Dipole Moment: [D]
     X:     0.5649      Y:    -1.1096      Z:    -0.9853     Total:     1.5878


*** tstop() called on node86.bme.utexas.edu at Thu Apr 23 12:06:40 2020
Module time:
	user time   =     126.29 seconds =       2.10 minutes
	system time =       2.56 seconds =       0.04 minutes
	total time  =         19 seconds =       0.32 minutes
Total time:
	user time   =     743.79 seconds =      12.40 minutes
	system time =      17.75 seconds =       0.30 minutes
	total time  =        119 seconds =       1.98 minutes

*** tstart() called on node86.bme.utexas.edu
*** at Thu Apr 23 12:06:40 2020


  //>>>>>>>>>>>>>>>>>>>>>>>>>>>>>>>>>>>//
  //               DFMP2               //
  //<<<<<<<<<<<<<<<<<<<<<<<<<<<<<<<<<<<//

   => Loading Basis Set <=

    Name: (AUG-CC-PVQZ AUX)
    Role: RIFIT
    Keyword: DF_BASIS_MP2
    atoms 1, 7      entry C          line   184 file /home/liuchw/anaconda3/envs/psi4env/share/psi4/basis/aug-cc-pvqz-ri.gbs 
    atoms 2, 8      entry S          line   824 file /home/liuchw/anaconda3/envs/psi4env/share/psi4/basis/aug-cc-pvqz-ri.gbs 
    atoms 3-6, 9-12 entry H          line    30 file /home/liuchw/anaconda3/envs/psi4env/share/psi4/basis/aug-cc-pvqz-ri.gbs 

	 --------------------------------------------------------
	                          DF-MP2                         
	      2nd-Order Density-Fitted Moller-Plesset Theory     
	              RMP2 Wavefunction,   8 Threads             
	                                                         
	        Rob Parrish, Justin Turney, Andy Simmonett,      
	           Ed Hohenstein, and C. David Sherrill          
	 --------------------------------------------------------

   => Auxiliary Basis Set <=

  Basis Set: (AUG-CC-PVQZ AUX)
    Blend: AUG-CC-PVQZ-RI
    Number of shells: 320
    Number of basis function: 1364
    Number of Cartesian functions: 1850
    Spherical Harmonics?: true
    Max angular momentum: 5

	 --------------------------------------------------------
	                 NBF =   696, NAUX =  1364
	 --------------------------------------------------------
	   CLASS    FOCC     OCC    AOCC    AVIR     VIR    FVIR
	   PAIRS       0      26      26     670     670       0
	 --------------------------------------------------------

	-----------------------------------------------------------
	 ==================> DF-MP2 Energies <==================== 
	-----------------------------------------------------------
	 Reference Energy          =    -875.5286703677700189 [Eh]
	 Singles Energy            =      -0.0000000000000000 [Eh]
	 Same-Spin Energy          =      -0.2068149448300613 [Eh]
	 Opposite-Spin Energy      =      -0.7591169283002678 [Eh]
	 Correlation Energy        =      -0.9659318731303290 [Eh]
	 Total Energy              =    -876.4946022409003490 [Eh]
	-----------------------------------------------------------
	 ================> DF-SCS-MP2 Energies <================== 
	-----------------------------------------------------------
	 SCS Same-Spin Scale       =       0.3333333333333333 [-]
	 SCS Opposite-Spin Scale   =       1.2000000000000000 [-]
	 SCS Same-Spin Energy      =      -0.0689383149433538 [Eh]
	 SCS Opposite-Spin Energy  =      -0.9109403139603213 [Eh]
	 SCS Correlation Energy    =      -0.9798786289036751 [Eh]
	 SCS Total Energy          =    -876.5085489966736532 [Eh]
	-----------------------------------------------------------


*** tstop() called on node86.bme.utexas.edu at Thu Apr 23 12:06:53 2020
Module time:
	user time   =      77.04 seconds =       1.28 minutes
	system time =       1.73 seconds =       0.03 minutes
	total time  =         13 seconds =       0.22 minutes
Total time:
	user time   =     820.83 seconds =      13.68 minutes
	system time =      19.48 seconds =       0.32 minutes
	total time  =        132 seconds =       2.20 minutes

  //>>>>>>>>>>>>>>>>>>>>>>>>>>>>>>>>>>>//
  //  CBS Results: mp2/aug-cc-pv[tq]z  //
  //<<<<<<<<<<<<<<<<<<<<<<<<<<<<<<<<<<<//


   ==> HF <==

   HI-zeta (4) Energy:               -875.528670367770


   ==> Helgaker 2-point correlated extrapolation for method: MP2 <==

   LO-zeta (3) Energy:               -876.372821454832
   HI-zeta (4) Energy:               -876.494602240900
   Alpha (exponent) Value:             3.000000000000
   Extrapolated Energy:              -876.583469301004

   @Extrapolated MP2/(T,Q):          -876.583469301004



   ==> Helgaker 2-point correlated extrapolation for method: HF <==

   LO-zeta (3) Energy:               -875.515384474822
   HI-zeta (4) Energy:               -875.528670367770
   Alpha (exponent) Value:             3.000000000000
   Extrapolated Energy:              -875.538365478840

   @Extrapolated HF/(T,Q):           -875.538365478840


   ==> Components <==

  ---------------------------------------------------------------------------------------------------------
                          Method / Basis                      Rqd      Energy [Eh]   Variable
  ---------------------------------------------------------------------------------------------------------
                              hf / aug-cc-pvtz                  *    -875.51538447   HF TOTAL ENERGY
                             mp2 / aug-cc-pvtz                  *    -876.37282145   MP2 TOTAL ENERGY
                              hf / aug-cc-pvqz                  *    -875.52867037   HF TOTAL ENERGY
                             mp2 / aug-cc-pvqz                  *    -876.49460224   MP2 TOTAL ENERGY
  ---------------------------------------------------------------------------------------------------------

   ==> Stages <==

  ---------------------------------------------------------------------------------------------------------
      Stage               Method / Basis                       Wt      Energy [Eh]   Scheme
  ---------------------------------------------------------------------------------------------------------
        scf                   hf / aug-cc-pvqz                  1    -875.52867037   xtpl_highest_1
       corl                  mp2 / aug-cc-pv[tq]z               1    -876.58346930   corl_xtpl_helgaker_2
       corl                   hf / aug-cc-pv[tq]z              -1    -875.53836548   corl_xtpl_helgaker_2
  ---------------------------------------------------------------------------------------------------------

   ==> CBS <==

  ---------------------------------------------------------------------------------------------------------
      Stage               Method / Basis                               Energy [Eh]   Scheme
  ---------------------------------------------------------------------------------------------------------
        scf                   hf / aug-cc-pvqz                       -875.52867037   xtpl_highest_1
       corl                  mp2 / aug-cc-pv[tq]z                      -1.04510382   corl_xtpl_helgaker_2
      total                  CBS                                     -876.57377419   
  ---------------------------------------------------------------------------------------------------------
   => Loading Basis Set <=

    Name: DEF2-SVP
    Role: ORBITAL
    Keyword: BASIS
    atoms 1, 7      entry C          line    90 file /home/liuchw/anaconda3/envs/psi4env/share/psi4/basis/def2-svp.gbs 
    atoms 2, 8      entry S          line   328 file /home/liuchw/anaconda3/envs/psi4env/share/psi4/basis/def2-svp.gbs 
    atoms 3-6, 9-12 entry H          line    15 file /home/liuchw/anaconda3/envs/psi4env/share/psi4/basis/def2-svp.gbs 


       N-Body: Complex Energy (fragments = (1, 2), basis = (1, 2):  -876.57377418993417)

   ==> N-Body: Counterpoise Corrected (CP) energies <==

   n-Body     Total Energy [Eh]       I.E. [kcal/mol]      Delta [kcal/mol]
        1     -876.573340750760        0.000000000000        0.000000000000
        2     -876.573780265599       -0.275799725232       -0.275799725232

   => Loading Basis Set <=

    Name: DEF2-SVP
    Role: ORBITAL
    Keyword: BASIS
    atoms 1, 7      entry C          line    90 file /home/liuchw/anaconda3/envs/psi4env/share/psi4/basis/def2-svp.gbs 
    atoms 2, 8      entry S          line   328 file /home/liuchw/anaconda3/envs/psi4env/share/psi4/basis/def2-svp.gbs 
    atoms 3-6, 9-12 entry H          line    15 file /home/liuchw/anaconda3/envs/psi4env/share/psi4/basis/def2-svp.gbs 


    Psi4 stopped on: Thursday, 23 April 2020 12:06PM
    Psi4 wall time for execution: 0:02:12.75

*** Psi4 exiting successfully. Buy a developer a beer!
