
    -----------------------------------------------------------------------
          Psi4: An Open-Source Ab Initio Electronic Structure Package
                               Psi4 1.4a2.dev224 

                         Git: Rev {master} e453b16 


    R. M. Parrish, L. A. Burns, D. G. A. Smith, A. C. Simmonett,
    A. E. DePrince III, E. G. Hohenstein, U. Bozkaya, A. Yu. Sokolov,
    R. Di Remigio, R. M. Richard, J. F. Gonthier, A. M. James,
    H. R. McAlexander, A. Kumar, M. Saitow, X. Wang, B. P. Pritchard,
    P. Verma, H. F. Schaefer III, K. Patkowski, R. A. King, E. F. Valeev,
    F. A. Evangelista, J. M. Turney, T. D. Crawford, and C. D. Sherrill,
    J. Chem. Theory Comput. 13(7) pp 3185--3197 (2017).
    (doi: 10.1021/acs.jctc.7b00174)


                         Additional Contributions by
    P. Kraus, H. Kruse, M. H. Lechner, M. C. Schieber, R. A. Shaw,
    A. Alenaizan, R. Galvelis, Z. L. Glick, S. Lehtola, and J. P. Misiewicz

    -----------------------------------------------------------------------


    Psi4 started on: Saturday, 11 April 2020 04:38PM

    Process ID: 90228
    Host:       node62.bme.utexas.edu
    PSIDATADIR: /home/liuchw/anaconda3/envs/psi4env/share/psi4
    Memory:     500.0 MiB
    Threads:    6
    
  ==> Input File <==

--------------------------------------------------------------------------
#Generated by lconvert.py for cbs job

memory 40 GB

molecule  {
0 1
  C       -3.5467760    -0.4819310     0.5915200
  O       -1.6276610     0.1580460    -1.1324060
  S       -2.2639250     0.6910770     0.1151190
  C       -1.1529260     0.2984410     1.4789870
  H       -3.9595760    -0.1939850     1.5555670
  H       -4.3129890    -0.4388730    -0.1780640
  H       -3.1036950    -1.4757200     0.6166030
  H       -1.6275790     0.5662040     2.4201080
  H       -0.9163380    -0.7626630     1.4274980
  H       -0.2507730     0.8853770     1.3279120
--
0 1
  O       -3.7033930     2.2908460     2.5911350
  H       -3.5298500     2.7176730     1.7478410
  H       -4.1215190     2.9765090     3.1161800
units angstrom
no_reorient
symmetry c1
}

set {
scf_type DF
mp2_type DF
e_convergence 7
reference rhf
}

energy('mp2/aug-cc-pv[tq]z', bsse_type='cp')
--------------------------------------------------------------------------

  Memory set to  37.253 GiB by Python driver.

Scratch directory: /scratch//


   ===> N-Body Interaction Abacus <===
        BSSE Treatment:                     cp
        Number of 1-body computations:     4
        Number of 2-body computations:     1

   ==> N-Body: Now computing 1-body complexes <==


       N-Body: Computing complex (1/4) with fragments (2,) in the basis of fragments (2,).


Scratch directory: /scratch//

  //>>>>>>>>>>>>>>>>>>>>>>>>>>>>>>>>>>>//
  //   CBS Setup: mp2/aug-cc-pv[tq]z   //
  //<<<<<<<<<<<<<<<<<<<<<<<<<<<<<<<<<<<//

    Naive listing of computations required.
             hf / aug-cc-pvqz              for  HF TOTAL ENERGY
            mp2 / aug-cc-pvtz              for  MP2 TOTAL ENERGY
            mp2 / aug-cc-pvqz              for  MP2 TOTAL ENERGY
             hf / aug-cc-pvtz              for  HF TOTAL ENERGY
             hf / aug-cc-pvqz              for  HF TOTAL ENERGY

    Enlightened listing of computations required.
            mp2 / aug-cc-pvtz              for  MP2 TOTAL ENERGY
            mp2 / aug-cc-pvqz              for  MP2 TOTAL ENERGY

    Full listing of computations to be obtained (required and bonus).
             hf / aug-cc-pvtz              for  HF TOTAL ENERGY
            mp2 / aug-cc-pvtz              for  MP2 TOTAL ENERGY
             hf / aug-cc-pvqz              for  HF TOTAL ENERGY
            mp2 / aug-cc-pvqz              for  MP2 TOTAL ENERGY

  //>>>>>>>>>>>>>>>>>>>>>>>>>>>>>>>>>>>>//
  // CBS Computation: MP2 / AUG-CC-PVTZ //
  //<<<<<<<<<<<<<<<<<<<<<<<<<<<<<<<<<<<<//


Scratch directory: /scratch//

*** tstart() called on node62.bme.utexas.edu
*** at Sat Apr 11 16:38:57 2020

   => Loading Basis Set <=

    Name: AUG-CC-PVTZ
    Role: ORBITAL
    Keyword: BASIS
    atoms 1   entry O          line   331 file /home/liuchw/anaconda3/envs/psi4env/share/psi4/basis/aug-cc-pvtz.gbs 
    atoms 2-3 entry H          line    40 file /home/liuchw/anaconda3/envs/psi4env/share/psi4/basis/aug-cc-pvtz.gbs 


         ---------------------------------------------------------
                                   SCF
               by Justin Turney, Rob Parrish, Andy Simmonett
                          and Daniel G. A. Smith
                              RHF Reference
                        6 Threads,  38146 MiB Core
         ---------------------------------------------------------

  ==> Geometry <==

    Molecular point group: c1
    Full point group: C1

    Geometry (in Angstrom), charge = 0, multiplicity = 1:

       Center              X                  Y                   Z               Mass       
    ------------   -----------------  -----------------  -----------------  -----------------
         O           -1.245253395056     1.630899097773     1.924776613524    15.994914619570
         H           -1.071710395056     2.057726097773     1.081482613524     1.007825032230
         H           -1.663379395056     2.316562097773     2.449821613524     1.007825032230

  Running in c1 symmetry.

  Rotational constants: A =     22.65013  B =      0.11491  C =      0.11433 [cm^-1]
  Rotational constants: A = 679033.90537  B =   3444.77796  C =   3427.39061 [MHz]
  Nuclear repulsion =    9.167261046895993

  Charge       = 0
  Multiplicity = 1
  Electrons    = 10
  Nalpha       = 5
  Nbeta        = 5

  ==> Algorithm <==

  SCF Algorithm Type is DF.
  DIIS enabled.
  MOM disabled.
  Fractional occupation disabled.
  Guess Type is SAD.
  Energy threshold   = 1.00e-07
  Density threshold  = 1.00e-08
  Integral threshold = 0.00e+00

  ==> Primary Basis <==

  Basis Set: AUG-CC-PVTZ
    Blend: AUG-CC-PVTZ
    Number of shells: 32
    Number of basis function: 92
    Number of Cartesian functions: 105
    Spherical Harmonics?: true
    Max angular momentum: 3

   => Loading Basis Set <=

    Name: (AUG-CC-PVTZ AUX)
    Role: JKFIT
    Keyword: DF_BASIS_SCF
    atoms 1   entry O          line   286 file /home/liuchw/anaconda3/envs/psi4env/share/psi4/basis/aug-cc-pvtz-jkfit.gbs 
    atoms 2-3 entry H          line    70 file /home/liuchw/anaconda3/envs/psi4env/share/psi4/basis/aug-cc-pvtz-jkfit.gbs 

  ==> Pre-Iterations <==

   -------------------------------------------------------
    Irrep   Nso     Nmo     Nalpha   Nbeta   Ndocc  Nsocc
   -------------------------------------------------------
     A         92      92       0       0       0       0
   -------------------------------------------------------
    Total      92      92       5       5       5       0
   -------------------------------------------------------

  ==> Integral Setup <==

  DFHelper Memory: AOs need 0.015 GiB; user supplied 27.940 GiB. Using in-core AOs.

  ==> MemDFJK: Density-Fitted J/K Matrices <==

    J tasked:                   Yes
    K tasked:                   Yes
    wK tasked:                   No
    OpenMP threads:               6
    Memory [MiB]:             28610
    Algorithm:                 Core
    Schwarz Cutoff:           1E-12
    Mask sparsity (%):       0.0000
    Fitting Condition:        1E-10

   => Auxiliary Basis Set <=

  Basis Set: (AUG-CC-PVTZ AUX)
    Blend: AUG-CC-PVTZ-JKFIT
    Number of shells: 58
    Number of basis function: 196
    Number of Cartesian functions: 241
    Spherical Harmonics?: true
    Max angular momentum: 4

  Minimum eigenvalue in the overlap matrix is 3.8803619972E-04.
  Using Symmetric Orthogonalization.

  SCF Guess: Superposition of Atomic Densities via on-the-fly atomic UHF.

  ==> Iterations <==

                           Total Energy        Delta E     RMS |[F,P]|

   @DF-RHF iter SAD:   -75.47517070718774   -7.54752e+01   0.00000e+00 
   @DF-RHF iter   1:   -75.97593154025211   -5.00761e-01   5.09149e-03 DIIS
   @DF-RHF iter   2:   -76.02841269291804   -5.24812e-02   3.47472e-03 DIIS
   @DF-RHF iter   3:   -76.05993569544637   -3.15230e-02   2.36042e-04 DIIS
   @DF-RHF iter   4:   -76.06032523254109   -3.89537e-04   5.65869e-05 DIIS
   @DF-RHF iter   5:   -76.06034965343089   -2.44209e-05   1.28557e-05 DIIS
   @DF-RHF iter   6:   -76.06035165212943   -1.99870e-06   2.81386e-06 DIIS
   @DF-RHF iter   7:   -76.06035175739731   -1.05268e-07   5.06131e-07 DIIS
   @DF-RHF iter   8:   -76.06035176039089   -2.99357e-09   8.48792e-08 DIIS
   @DF-RHF iter   9:   -76.06035176045650   -6.56115e-11   2.08147e-08 DIIS
   @DF-RHF iter  10:   -76.06035176046048   -3.97904e-12   3.06384e-09 DIIS
  Energy and wave function converged.


  ==> Post-Iterations <==

    Orbital Energies [Eh]
    ---------------------

    Doubly Occupied:                                                      

       1A    -20.567962     2A     -1.352452     3A     -0.715163  
       4A     -0.585429     5A     -0.510272  

    Virtual:                                                              

       6A      0.029365     7A      0.047706     8A      0.135863  
       9A      0.158749    10A      0.175223    11A      0.183107  
      12A      0.227176    13A      0.244996    14A      0.265467  
      15A      0.299933    16A      0.310092    17A      0.365855  
      18A      0.437582    19A      0.466257    20A      0.599173  
      21A      0.658736    22A      0.707936    23A      0.722784  
      24A      0.731685    25A      0.831052    26A      0.846630  
      27A      0.892101    28A      0.912765    29A      0.918047  
      30A      0.922633    31A      0.931042    32A      0.961327  
      33A      1.021292    34A      1.043461    35A      1.082676  
      36A      1.108596    37A      1.176674    38A      1.182431  
      39A      1.260680    40A      1.510501    41A      1.534055  
      42A      1.583006    43A      1.805048    44A      1.822457  
      45A      1.984867    46A      2.118631    47A      2.263169  
      48A      2.316171    49A      2.326857    50A      2.418746  
      51A      2.421330    52A      2.443389    53A      2.480119  
      54A      2.676408    55A      2.697963    56A      2.772481  
      57A      2.814603    58A      2.884782    59A      3.654458  
      60A      3.741523    61A      4.019850    62A      4.084077  
      63A      4.163110    64A      4.249998    65A      4.286441  
      66A      4.373307    67A      4.377854    68A      4.406259  
      69A      4.519332    70A      4.726967    71A      4.846555  
      72A      5.151418    73A      5.151824    74A      5.250720  
      75A      5.326993    76A      5.525598    77A      5.663119  
      78A      6.181338    79A      6.515690    80A      6.714827  
      81A      6.906061    82A      7.136898    83A      7.259122  
      84A      7.302909    85A      7.318659    86A      7.336700  
      87A      7.361187    88A      7.537403    89A      7.901156  
      90A      7.929373    91A      8.811586    92A     15.740364  

    Final Occupation by Irrep:
              A 
    DOCC [     5 ]

  @DF-RHF Final Energy:   -76.06035176046048

   => Energetics <=

    Nuclear Repulsion Energy =              9.1672610468959927
    One-Electron Energy =                -122.9926683134631560
    Two-Electron Energy =                  37.7650555061066910
    Total Energy =                        -76.0603517604604775

Computation Completed


Properties will be evaluated at   0.000000,   0.000000,   0.000000 [a0]

Properties computed using the SCF density matrix

  Nuclear Dipole Moment: [e a0]
     X:   -23.9941      Y:    32.9218      Z:    35.7716

  Electronic Dipole Moment: [e a0]
     X:    23.8317      Y:   -32.1839      Z:   -35.9825

  Dipole Moment: [e a0]
     X:    -0.1623      Y:     0.7380      Z:    -0.2109     Total:     0.7845

  Dipole Moment: [D]
     X:    -0.4126      Y:     1.8757      Z:    -0.5360     Total:     1.9939


*** tstop() called on node62.bme.utexas.edu at Sat Apr 11 16:38:59 2020
Module time:
	user time   =       5.24 seconds =       0.09 minutes
	system time =       0.33 seconds =       0.01 minutes
	total time  =          2 seconds =       0.03 minutes
Total time:
	user time   =       5.24 seconds =       0.09 minutes
	system time =       0.33 seconds =       0.01 minutes
	total time  =          2 seconds =       0.03 minutes

*** tstart() called on node62.bme.utexas.edu
*** at Sat Apr 11 16:38:59 2020


  //>>>>>>>>>>>>>>>>>>>>>>>>>>>>>>>>>>>//
  //               DFMP2               //
  //<<<<<<<<<<<<<<<<<<<<<<<<<<<<<<<<<<<//

   => Loading Basis Set <=

    Name: (AUG-CC-PVTZ AUX)
    Role: RIFIT
    Keyword: DF_BASIS_MP2
    atoms 1   entry O          line   264 file /home/liuchw/anaconda3/envs/psi4env/share/psi4/basis/aug-cc-pvtz-ri.gbs 
    atoms 2-3 entry H          line    30 file /home/liuchw/anaconda3/envs/psi4env/share/psi4/basis/aug-cc-pvtz-ri.gbs 

	 --------------------------------------------------------
	                          DF-MP2                         
	      2nd-Order Density-Fitted Moller-Plesset Theory     
	              RMP2 Wavefunction,   6 Threads             
	                                                         
	        Rob Parrish, Justin Turney, Andy Simmonett,      
	           Ed Hohenstein, and C. David Sherrill          
	 --------------------------------------------------------

   => Auxiliary Basis Set <=

  Basis Set: (AUG-CC-PVTZ AUX)
    Blend: AUG-CC-PVTZ-RI
    Number of shells: 56
    Number of basis function: 198
    Number of Cartesian functions: 246
    Spherical Harmonics?: true
    Max angular momentum: 4

	 --------------------------------------------------------
	                 NBF =    92, NAUX =   198
	 --------------------------------------------------------
	   CLASS    FOCC     OCC    AOCC    AVIR     VIR    FVIR
	   PAIRS       0       5       5      87      87       0
	 --------------------------------------------------------

	-----------------------------------------------------------
	 ==================> DF-MP2 Energies <==================== 
	-----------------------------------------------------------
	 Reference Energy          =     -76.0603517604604775 [Eh]
	 Singles Energy            =      -0.0000000000000000 [Eh]
	 Same-Spin Energy          =      -0.0683974052503788 [Eh]
	 Opposite-Spin Energy      =      -0.2153364831421622 [Eh]
	 Correlation Energy        =      -0.2837338883925409 [Eh]
	 Total Energy              =     -76.3440856488530244 [Eh]
	-----------------------------------------------------------
	 ================> DF-SCS-MP2 Energies <================== 
	-----------------------------------------------------------
	 SCS Same-Spin Scale       =       0.3333333333333333 [-]
	 SCS Opposite-Spin Scale   =       1.2000000000000000 [-]
	 SCS Same-Spin Energy      =      -0.0227991350834596 [Eh]
	 SCS Opposite-Spin Energy  =      -0.2584037797705946 [Eh]
	 SCS Correlation Energy    =      -0.2812029148540542 [Eh]
	 SCS Total Energy          =     -76.3415546753145264 [Eh]
	-----------------------------------------------------------


*** tstop() called on node62.bme.utexas.edu at Sat Apr 11 16:38:59 2020
Module time:
	user time   =       2.35 seconds =       0.04 minutes
	system time =       0.15 seconds =       0.00 minutes
	total time  =          0 seconds =       0.00 minutes
Total time:
	user time   =       7.59 seconds =       0.13 minutes
	system time =       0.48 seconds =       0.01 minutes
	total time  =          2 seconds =       0.03 minutes

  //>>>>>>>>>>>>>>>>>>>>>>>>>>>>>>>>>>>>//
  // CBS Computation: MP2 / AUG-CC-PVQZ //
  //<<<<<<<<<<<<<<<<<<<<<<<<<<<<<<<<<<<<//


Scratch directory: /scratch//

*** tstart() called on node62.bme.utexas.edu
*** at Sat Apr 11 16:38:59 2020

   => Loading Basis Set <=

    Name: AUG-CC-PVQZ
    Role: ORBITAL
    Keyword: BASIS
    atoms 1   entry O          line   423 file /home/liuchw/anaconda3/envs/psi4env/share/psi4/basis/aug-cc-pvqz.gbs 
    atoms 2-3 entry H          line    40 file /home/liuchw/anaconda3/envs/psi4env/share/psi4/basis/aug-cc-pvqz.gbs 


         ---------------------------------------------------------
                                   SCF
               by Justin Turney, Rob Parrish, Andy Simmonett
                          and Daniel G. A. Smith
                              RHF Reference
                        6 Threads,  38146 MiB Core
         ---------------------------------------------------------

  ==> Geometry <==

    Molecular point group: c1
    Full point group: C1

    Geometry (in Angstrom), charge = 0, multiplicity = 1:

       Center              X                  Y                   Z               Mass       
    ------------   -----------------  -----------------  -----------------  -----------------
         O           -1.245253395056     1.630899097773     1.924776613524    15.994914619570
         H           -1.071710395056     2.057726097773     1.081482613524     1.007825032230
         H           -1.663379395056     2.316562097773     2.449821613524     1.007825032230

  Running in c1 symmetry.

  Rotational constants: A =     22.65013  B =      0.11491  C =      0.11433 [cm^-1]
  Rotational constants: A = 679033.90537  B =   3444.77796  C =   3427.39061 [MHz]
  Nuclear repulsion =    9.167261046895993

  Charge       = 0
  Multiplicity = 1
  Electrons    = 10
  Nalpha       = 5
  Nbeta        = 5

  ==> Algorithm <==

  SCF Algorithm Type is DF.
  DIIS enabled.
  MOM disabled.
  Fractional occupation disabled.
  Guess Type is SAD.
  Energy threshold   = 1.00e-07
  Density threshold  = 1.00e-08
  Integral threshold = 0.00e+00

  ==> Primary Basis <==

  Basis Set: AUG-CC-PVQZ
    Blend: AUG-CC-PVQZ
    Number of shells: 48
    Number of basis function: 172
    Number of Cartesian functions: 215
    Spherical Harmonics?: true
    Max angular momentum: 4

   => Loading Basis Set <=

    Name: (AUG-CC-PVQZ AUX)
    Role: JKFIT
    Keyword: DF_BASIS_SCF
    atoms 1   entry O          line   318 file /home/liuchw/anaconda3/envs/psi4env/share/psi4/basis/aug-cc-pvqz-jkfit.gbs 
    atoms 2-3 entry H          line    70 file /home/liuchw/anaconda3/envs/psi4env/share/psi4/basis/aug-cc-pvqz-jkfit.gbs 

  ==> Pre-Iterations <==

   -------------------------------------------------------
    Irrep   Nso     Nmo     Nalpha   Nbeta   Ndocc  Nsocc
   -------------------------------------------------------
     A        172     172       0       0       0       0
   -------------------------------------------------------
    Total     172     172       5       5       5       0
   -------------------------------------------------------

  ==> Integral Setup <==

  DFHelper Memory: AOs need 0.074 GiB; user supplied 27.940 GiB. Using in-core AOs.

  ==> MemDFJK: Density-Fitted J/K Matrices <==

    J tasked:                   Yes
    K tasked:                   Yes
    wK tasked:                   No
    OpenMP threads:               6
    Memory [MiB]:             28610
    Algorithm:                 Core
    Schwarz Cutoff:           1E-12
    Mask sparsity (%):       0.0000
    Fitting Condition:        1E-10

   => Auxiliary Basis Set <=

  Basis Set: (AUG-CC-PVQZ AUX)
    Blend: AUG-CC-PVQZ-JKFIT
    Number of shells: 70
    Number of basis function: 294
    Number of Cartesian functions: 400
    Spherical Harmonics?: true
    Max angular momentum: 5

  Minimum eigenvalue in the overlap matrix is 8.7330138308E-05.
  Using Symmetric Orthogonalization.

  SCF Guess: Superposition of Atomic Densities via on-the-fly atomic UHF.

  ==> Iterations <==

                           Total Energy        Delta E     RMS |[F,P]|

   @DF-RHF iter SAD:   -75.48031167343848   -7.54803e+01   0.00000e+00 
   @DF-RHF iter   1:   -75.98100784105409   -5.00696e-01   2.72920e-03 DIIS
   @DF-RHF iter   2:   -76.03358919216426   -5.25814e-02   1.86678e-03 DIIS
   @DF-RHF iter   3:   -76.06531125784738   -3.17221e-02   1.27211e-04 DIIS
   @DF-RHF iter   4:   -76.06570288192469   -3.91624e-04   3.11782e-05 DIIS
   @DF-RHF iter   5:   -76.06572820181100   -2.53199e-05   7.05887e-06 DIIS
   @DF-RHF iter   6:   -76.06573028269661   -2.08089e-06   1.58763e-06 DIIS
   @DF-RHF iter   7:   -76.06573039944244   -1.16746e-07   2.95382e-07 DIIS
   @DF-RHF iter   8:   -76.06573040299222   -3.54977e-09   4.75776e-08 DIIS
   @DF-RHF iter   9:   -76.06573040306625   -7.40386e-11   1.13990e-08 DIIS
   @DF-RHF iter  10:   -76.06573040307032   -4.06430e-12   1.70920e-09 DIIS
  Energy and wave function converged.


  ==> Post-Iterations <==

    Orbital Energies [Eh]
    ---------------------

    Doubly Occupied:                                                      

       1A    -20.565509     2A     -1.351723     3A     -0.715129  
       4A     -0.585477     5A     -0.510404  

    Virtual:                                                              

       6A      0.026885     7A      0.043101     8A      0.114106  
       9A      0.133479    10A      0.151121    11A      0.158683  
      12A      0.184970    13A      0.197085    14A      0.209340  
      15A      0.237430    16A      0.257062    17A      0.291620  
      18A      0.357679    19A      0.390021    20A      0.469789  
      21A      0.508775    22A      0.542085    23A      0.547623  
      24A      0.556255    25A      0.614342    26A      0.632475  
      27A      0.647288    28A      0.663382    29A      0.665770  
      30A      0.684852    31A      0.706453    32A      0.719029  
      33A      0.769735    34A      0.789125    35A      0.802466  
      36A      0.802907    37A      0.843254    38A      0.854163  
      39A      0.968054    40A      1.123764    41A      1.136543  
      42A      1.209234    43A      1.332160    44A      1.439540  
      45A      1.482287    46A      1.509350    47A      1.513517  
      48A      1.526408    49A      1.554089    50A      1.590350  
      51A      1.620908    52A      1.637823    53A      1.662795  
      54A      1.664119    55A      1.688567    56A      1.702801  
      57A      1.735817    58A      1.752525    59A      1.767092  
      60A      1.776494    61A      1.842771    62A      1.864664  
      63A      1.893921    64A      1.915301    65A      1.981707  
      66A      2.008581    67A      2.033732    68A      2.038795  
      69A      2.099874    70A      2.206602    71A      2.217194  
      72A      2.313519    73A      2.438984    74A      2.627322  
      75A      2.632376    76A      2.887047    77A      2.958886  
      78A      2.995528    79A      3.040059    80A      3.056112  
      81A      3.085777    82A      3.269764    83A      3.301235  
      84A      3.308156    85A      3.491418    86A      3.588621  
      87A      3.643661    88A      3.688117    89A      3.720833  
      90A      3.776419    91A      3.923309    92A      4.078183  
      93A      4.166805    94A      4.167215    95A      4.178096  
      96A      4.178996    97A      4.233705    98A      4.330152  
      99A      4.432355   100A      4.579646   101A      4.725375  
     102A      4.746208   103A      4.781748   104A      4.782059  
     105A      4.808480   106A      4.878087   107A      4.995803  
     108A      5.238043   109A      5.313934   110A      5.522851  
     111A      5.532532   112A      5.858860   113A      5.887549  
     114A      6.073377   115A      6.233567   116A      6.826063  
     117A      6.884286   118A      6.885285   119A      6.910342  
     120A      7.728275   121A      7.780210   122A      7.785052  
     123A      7.823729   124A      7.837468   125A      7.900111  
     126A      7.924808   127A      8.021590   128A      8.176661  
     129A      8.201858   130A      8.531393   131A      8.628604  
     132A      8.648901   133A      8.697739   134A      8.786799  
     135A      8.847025   136A      8.986424   137A      9.041709  
     138A      9.216832   139A      9.665397   140A      9.905923  
     141A      9.907392   142A      9.942196   143A      9.990696  
     144A     10.330744   145A     10.452112   146A     10.679708  
     147A     11.016595   148A     11.077526   149A     11.087667  
     150A     11.269111   151A     11.312346   152A     11.414303  
     153A     11.714030   154A     11.795011   155A     11.831516  
     156A     11.989904   157A     12.202531   158A     12.204874  
     159A     12.619425   160A     12.736810   161A     12.830676  
     162A     12.904463   163A     13.178654   164A     13.996010  
     165A     14.014705   166A     14.503363   167A     14.804907  
     168A     14.898139   169A     15.253235   170A     16.841445  
     171A     17.287635   172A     45.496256  

    Final Occupation by Irrep:
              A 
    DOCC [     5 ]

  @DF-RHF Final Energy:   -76.06573040307032

   => Energetics <=

    Nuclear Repulsion Energy =              9.1672610468959927
    One-Electron Energy =                -123.0094983483407560
    Two-Electron Energy =                  37.7765068983744499
    Total Energy =                        -76.0657304030703187

Computation Completed


Properties will be evaluated at   0.000000,   0.000000,   0.000000 [a0]

Properties computed using the SCF density matrix

  Nuclear Dipole Moment: [e a0]
     X:   -23.9941      Y:    32.9218      Z:    35.7716

  Electronic Dipole Moment: [e a0]
     X:    23.8319      Y:   -32.1847      Z:   -35.9822

  Dipole Moment: [e a0]
     X:    -0.1622      Y:     0.7372      Z:    -0.2106     Total:     0.7836

  Dipole Moment: [D]
     X:    -0.4122      Y:     1.8737      Z:    -0.5354     Total:     1.9918


*** tstop() called on node62.bme.utexas.edu at Sat Apr 11 16:39:01 2020
Module time:
	user time   =       8.29 seconds =       0.14 minutes
	system time =       0.39 seconds =       0.01 minutes
	total time  =          2 seconds =       0.03 minutes
Total time:
	user time   =      15.91 seconds =       0.27 minutes
	system time =       0.88 seconds =       0.01 minutes
	total time  =          4 seconds =       0.07 minutes

*** tstart() called on node62.bme.utexas.edu
*** at Sat Apr 11 16:39:01 2020


  //>>>>>>>>>>>>>>>>>>>>>>>>>>>>>>>>>>>//
  //               DFMP2               //
  //<<<<<<<<<<<<<<<<<<<<<<<<<<<<<<<<<<<//

   => Loading Basis Set <=

    Name: (AUG-CC-PVQZ AUX)
    Role: RIFIT
    Keyword: DF_BASIS_MP2
    atoms 1   entry O          line   332 file /home/liuchw/anaconda3/envs/psi4env/share/psi4/basis/aug-cc-pvqz-ri.gbs 
    atoms 2-3 entry H          line    30 file /home/liuchw/anaconda3/envs/psi4env/share/psi4/basis/aug-cc-pvqz-ri.gbs 

	 --------------------------------------------------------
	                          DF-MP2                         
	      2nd-Order Density-Fitted Moller-Plesset Theory     
	              RMP2 Wavefunction,   6 Threads             
	                                                         
	        Rob Parrish, Justin Turney, Andy Simmonett,      
	           Ed Hohenstein, and C. David Sherrill          
	 --------------------------------------------------------

   => Auxiliary Basis Set <=

  Basis Set: (AUG-CC-PVQZ AUX)
    Blend: AUG-CC-PVQZ-RI
    Number of shells: 76
    Number of basis function: 328
    Number of Cartesian functions: 447
    Spherical Harmonics?: true
    Max angular momentum: 5

	 --------------------------------------------------------
	                 NBF =   172, NAUX =   328
	 --------------------------------------------------------
	   CLASS    FOCC     OCC    AOCC    AVIR     VIR    FVIR
	   PAIRS       0       5       5     167     167       0
	 --------------------------------------------------------

	-----------------------------------------------------------
	 ==================> DF-MP2 Energies <==================== 
	-----------------------------------------------------------
	 Reference Energy          =     -76.0657304030703187 [Eh]
	 Singles Energy            =      -0.0000000000000000 [Eh]
	 Same-Spin Energy          =      -0.0727241846268101 [Eh]
	 Opposite-Spin Energy      =      -0.2442766020153491 [Eh]
	 Correlation Energy        =      -0.3170007866421592 [Eh]
	 Total Energy              =     -76.3827311897124730 [Eh]
	-----------------------------------------------------------
	 ================> DF-SCS-MP2 Energies <================== 
	-----------------------------------------------------------
	 SCS Same-Spin Scale       =       0.3333333333333333 [-]
	 SCS Opposite-Spin Scale   =       1.2000000000000000 [-]
	 SCS Same-Spin Energy      =      -0.0242413948756034 [Eh]
	 SCS Opposite-Spin Energy  =      -0.2931319224184188 [Eh]
	 SCS Correlation Energy    =      -0.3173733172940222 [Eh]
	 SCS Total Energy          =     -76.3831037203643461 [Eh]
	-----------------------------------------------------------


*** tstop() called on node62.bme.utexas.edu at Sat Apr 11 16:39:01 2020
Module time:
	user time   =       3.23 seconds =       0.05 minutes
	system time =       0.15 seconds =       0.00 minutes
	total time  =          0 seconds =       0.00 minutes
Total time:
	user time   =      19.14 seconds =       0.32 minutes
	system time =       1.03 seconds =       0.02 minutes
	total time  =          4 seconds =       0.07 minutes

  //>>>>>>>>>>>>>>>>>>>>>>>>>>>>>>>>>>>//
  //  CBS Results: mp2/aug-cc-pv[tq]z  //
  //<<<<<<<<<<<<<<<<<<<<<<<<<<<<<<<<<<<//


   ==> HF <==

   HI-zeta (4) Energy:               -76.065730403070


   ==> Helgaker 2-point correlated extrapolation for method: MP2 <==

   LO-zeta (3) Energy:               -76.344085648853
   HI-zeta (4) Energy:               -76.382731189712
   Alpha (exponent) Value:             3.000000000000
   Extrapolated Energy:              -76.410931989799

   @Extrapolated MP2/(T,Q):          -76.410931989799



   ==> Helgaker 2-point correlated extrapolation for method: HF <==

   LO-zeta (3) Energy:               -76.060351760460
   HI-zeta (4) Energy:               -76.065730403070
   Alpha (exponent) Value:             3.000000000000
   Extrapolated Energy:              -76.069655358488

   @Extrapolated HF/(T,Q):           -76.069655358488


   ==> Components <==

  ---------------------------------------------------------------------------------------------------------
                          Method / Basis                      Rqd      Energy [Eh]   Variable
  ---------------------------------------------------------------------------------------------------------
                              hf / aug-cc-pvtz                  *     -76.06035176   HF TOTAL ENERGY
                             mp2 / aug-cc-pvtz                  *     -76.34408565   MP2 TOTAL ENERGY
                              hf / aug-cc-pvqz                  *     -76.06573040   HF TOTAL ENERGY
                             mp2 / aug-cc-pvqz                  *     -76.38273119   MP2 TOTAL ENERGY
  ---------------------------------------------------------------------------------------------------------

   ==> Stages <==

  ---------------------------------------------------------------------------------------------------------
      Stage               Method / Basis                       Wt      Energy [Eh]   Scheme
  ---------------------------------------------------------------------------------------------------------
        scf                   hf / aug-cc-pvqz                  1     -76.06573040   xtpl_highest_1
       corl                  mp2 / aug-cc-pv[tq]z               1     -76.41093199   corl_xtpl_helgaker_2
       corl                   hf / aug-cc-pv[tq]z              -1     -76.06965536   corl_xtpl_helgaker_2
  ---------------------------------------------------------------------------------------------------------

   ==> CBS <==

  ---------------------------------------------------------------------------------------------------------
      Stage               Method / Basis                               Energy [Eh]   Scheme
  ---------------------------------------------------------------------------------------------------------
        scf                   hf / aug-cc-pvqz                        -76.06573040   xtpl_highest_1
       corl                  mp2 / aug-cc-pv[tq]z                      -0.34127663   corl_xtpl_helgaker_2
      total                  CBS                                      -76.40700703   
  ---------------------------------------------------------------------------------------------------------
   => Loading Basis Set <=

    Name: DEF2-SVP
    Role: ORBITAL
    Keyword: BASIS
    atoms 1   entry O          line   130 file /home/liuchw/anaconda3/envs/psi4env/share/psi4/basis/def2-svp.gbs 
    atoms 2-3 entry H          line    15 file /home/liuchw/anaconda3/envs/psi4env/share/psi4/basis/def2-svp.gbs 


       N-Body: Complex Energy (fragments = (2,), basis = (2,):   -76.40700703438112)

       N-Body: Computing complex (2/4) with fragments (2,) in the basis of fragments (1, 2).


Scratch directory: /scratch//

  //>>>>>>>>>>>>>>>>>>>>>>>>>>>>>>>>>>>//
  //   CBS Setup: mp2/aug-cc-pv[tq]z   //
  //<<<<<<<<<<<<<<<<<<<<<<<<<<<<<<<<<<<//

    Naive listing of computations required.
             hf / aug-cc-pvqz              for  HF TOTAL ENERGY
            mp2 / aug-cc-pvtz              for  MP2 TOTAL ENERGY
            mp2 / aug-cc-pvqz              for  MP2 TOTAL ENERGY
             hf / aug-cc-pvtz              for  HF TOTAL ENERGY
             hf / aug-cc-pvqz              for  HF TOTAL ENERGY

    Enlightened listing of computations required.
            mp2 / aug-cc-pvtz              for  MP2 TOTAL ENERGY
            mp2 / aug-cc-pvqz              for  MP2 TOTAL ENERGY

    Full listing of computations to be obtained (required and bonus).
             hf / aug-cc-pvtz              for  HF TOTAL ENERGY
            mp2 / aug-cc-pvtz              for  MP2 TOTAL ENERGY
             hf / aug-cc-pvqz              for  HF TOTAL ENERGY
            mp2 / aug-cc-pvqz              for  MP2 TOTAL ENERGY

  //>>>>>>>>>>>>>>>>>>>>>>>>>>>>>>>>>>>>//
  // CBS Computation: MP2 / AUG-CC-PVTZ //
  //<<<<<<<<<<<<<<<<<<<<<<<<<<<<<<<<<<<<//


Scratch directory: /scratch//

*** tstart() called on node62.bme.utexas.edu
*** at Sat Apr 11 16:39:02 2020

   => Loading Basis Set <=

    Name: AUG-CC-PVTZ
    Role: ORBITAL
    Keyword: BASIS
    atoms 1, 4        entry C          line   239 file /home/liuchw/anaconda3/envs/psi4env/share/psi4/basis/aug-cc-pvtz.gbs 
    atoms 2, 11       entry O          line   331 file /home/liuchw/anaconda3/envs/psi4env/share/psi4/basis/aug-cc-pvtz.gbs 
    atoms 3           entry S          line   906 file /home/liuchw/anaconda3/envs/psi4env/share/psi4/basis/aug-cc-pvtz.gbs 
    atoms 5-10, 12-13 entry H          line    40 file /home/liuchw/anaconda3/envs/psi4env/share/psi4/basis/aug-cc-pvtz.gbs 


         ---------------------------------------------------------
                                   SCF
               by Justin Turney, Rob Parrish, Andy Simmonett
                          and Daniel G. A. Smith
                              RHF Reference
                        6 Threads,  38146 MiB Core
         ---------------------------------------------------------

  ==> Geometry <==

    Molecular point group: c1
    Full point group: C1

    Geometry (in Angstrom), charge = 0, multiplicity = 1:

       Center              X                  Y                   Z               Mass       
    ------------   -----------------  -----------------  -----------------  -----------------
      Gh(C)          -1.088636395056    -1.141877902227    -0.074838386476    12.000000000000
      Gh(O)           0.830478604944    -0.501900902227    -1.798764386476    15.994914619570
      Gh(S)           0.194214604944     0.031130097773    -0.551239386476    31.972071174400
      Gh(C)           1.305213604944    -0.361505902227     0.812628613524    12.000000000000
      Gh(H)          -1.501436395056    -0.853931902227     0.889208613524     1.007825032230
      Gh(H)          -1.854849395056    -1.098819902227    -0.844422386476     1.007825032230
      Gh(H)          -0.645555395056    -2.135666902227    -0.049755386476     1.007825032230
      Gh(H)           0.830560604944    -0.093742902227     1.753749613524     1.007825032230
      Gh(H)           1.541801604944    -1.422609902227     0.761139613524     1.007825032230
      Gh(H)           2.207366604944     0.225430097773     0.661553613524     1.007825032230
         O           -1.245253395056     1.630899097773     1.924776613524    15.994914619570
         H           -1.071710395056     2.057726097773     1.081482613524     1.007825032230
         H           -1.663379395056     2.316562097773     2.449821613524     1.007825032230

  Running in c1 symmetry.

  Rotational constants: A =      0.17487  B =      0.06636  C =      0.06093 [cm^-1]
  Rotational constants: A =   5242.41786  B =   1989.44696  C =   1826.77787 [MHz]
  Nuclear repulsion =    9.167261046895993

  Charge       = 0
  Multiplicity = 1
  Electrons    = 10
  Nalpha       = 5
  Nbeta        = 5

  ==> Algorithm <==

  SCF Algorithm Type is DF.
  DIIS enabled.
  MOM disabled.
  Fractional occupation disabled.
  Guess Type is SAD.
  Energy threshold   = 1.00e-07
  Density threshold  = 1.00e-08
  Integral threshold = 0.00e+00

  ==> Primary Basis <==

  Basis Set: AUG-CC-PVTZ
    Blend: AUG-CC-PVTZ
    Number of shells: 144
    Number of basis function: 418
    Number of Cartesian functions: 479
    Spherical Harmonics?: true
    Max angular momentum: 3

   => Loading Basis Set <=

    Name: (AUG-CC-PVTZ AUX)
    Role: JKFIT
    Keyword: DF_BASIS_SCF
    atoms 1, 4        entry C          line   162 file /home/liuchw/anaconda3/envs/psi4env/share/psi4/basis/aug-cc-pvtz-jkfit.gbs 
    atoms 2, 11       entry O          line   286 file /home/liuchw/anaconda3/envs/psi4env/share/psi4/basis/aug-cc-pvtz-jkfit.gbs 
    atoms 3           entry S          line   730 file /home/liuchw/anaconda3/envs/psi4env/share/psi4/basis/aug-cc-pvtz-jkfit.gbs 
    atoms 5-10, 12-13 entry H          line    70 file /home/liuchw/anaconda3/envs/psi4env/share/psi4/basis/aug-cc-pvtz-jkfit.gbs 

  ==> Pre-Iterations <==

   -------------------------------------------------------
    Irrep   Nso     Nmo     Nalpha   Nbeta   Ndocc  Nsocc
   -------------------------------------------------------
     A        418     418       0       0       0       0
   -------------------------------------------------------
    Total     418     418       5       5       5       0
   -------------------------------------------------------

  ==> Integral Setup <==

  DFHelper Memory: AOs need 1.221 GiB; user supplied 27.940 GiB. Using in-core AOs.

  ==> MemDFJK: Density-Fitted J/K Matrices <==

    J tasked:                   Yes
    K tasked:                   Yes
    wK tasked:                   No
    OpenMP threads:               6
    Memory [MiB]:             28610
    Algorithm:                 Core
    Schwarz Cutoff:           1E-12
    Mask sparsity (%):       3.2257
    Fitting Condition:        1E-10

   => Auxiliary Basis Set <=

  Basis Set: (AUG-CC-PVTZ AUX)
    Blend: AUG-CC-PVTZ-JKFIT
    Number of shells: 274
    Number of basis function: 930
    Number of Cartesian functions: 1144
    Spherical Harmonics?: true
    Max angular momentum: 4

  Minimum eigenvalue in the overlap matrix is 1.9287728282E-05.
  Using Symmetric Orthogonalization.

  SCF Guess: Superposition of Atomic Densities via on-the-fly atomic UHF.

  ==> Iterations <==

                           Total Energy        Delta E     RMS |[F,P]|

   @DF-RHF iter SAD:   -75.47517067813942   -7.54752e+01   0.00000e+00 
   @DF-RHF iter   1:   -75.97600124665814   -5.00831e-01   1.12073e-03 DIIS
   @DF-RHF iter   2:   -76.02849488235719   -5.24936e-02   7.64874e-04 DIIS
   @DF-RHF iter   3:   -76.06002032923350   -3.15254e-02   5.19595e-05 DIIS
   @DF-RHF iter   4:   -76.06040997501995   -3.89646e-04   1.24614e-05 DIIS
   @DF-RHF iter   5:   -76.06043442473782   -2.44497e-05   2.83087e-06 DIIS
   @DF-RHF iter   6:   -76.06043642599442   -2.00126e-06   6.20020e-07 DIIS
   @DF-RHF iter   7:   -76.06043653161365   -1.05619e-07   1.11856e-07 DIIS
   @DF-RHF iter   8:   -76.06043653463757   -3.02393e-09   1.87570e-08 DIIS
   @DF-RHF iter   9:   -76.06043653470442   -6.68479e-11   4.59838e-09 DIIS
  Energy and wave function converged.


  ==> Post-Iterations <==

    Orbital Energies [Eh]
    ---------------------

    Doubly Occupied:                                                      

       1A    -20.567848     2A     -1.352373     3A     -0.715092  
       4A     -0.585376     5A     -0.510225  

    Virtual:                                                              

       6A      0.020844     7A      0.035519     8A      0.037858  
       9A      0.042925    10A      0.059994    11A      0.064260  
      12A      0.066520    13A      0.068972    14A      0.071542  
      15A      0.097080    16A      0.106345    17A      0.110807  
      18A      0.121705    19A      0.122660    20A      0.136417  
      21A      0.139113    22A      0.143073    23A      0.149235  
      24A      0.156415    25A      0.169404    26A      0.187323  
      27A      0.193349    28A      0.199528    29A      0.204907  
      30A      0.216391    31A      0.219896    32A      0.222880  
      33A      0.241384    34A      0.258083    35A      0.263453  
      36A      0.280801    37A      0.283505    38A      0.283602  
      39A      0.296823    40A      0.301936    41A      0.311686  
      42A      0.314201    43A      0.323916    44A      0.336288  
      45A      0.341945    46A      0.343318    47A      0.349904  
      48A      0.351228    49A      0.359872    50A      0.370609  
      51A      0.380018    52A      0.387293    53A      0.400954  
      54A      0.403344    55A      0.418813    56A      0.423647  
      57A      0.432463    58A      0.444660    59A      0.448860  
      60A      0.457676    61A      0.463718    62A      0.472770  
      63A      0.477580    64A      0.485946    65A      0.504685  
      66A      0.506124    67A      0.518353    68A      0.524564  
      69A      0.532491    70A      0.536783    71A      0.547348  
      72A      0.557332    73A      0.557956    74A      0.563104  
      75A      0.578710    76A      0.590646    77A      0.600111  
      78A      0.601835    79A      0.607339    80A      0.608716  
      81A      0.628397    82A      0.642791    83A      0.655589  
      84A      0.659554    85A      0.680187    86A      0.698795  
      87A      0.700757    88A      0.717363    89A      0.719815  
      90A      0.721581    91A      0.731798    92A      0.741645  
      93A      0.756687    94A      0.772119    95A      0.786199  
      96A      0.790473    97A      0.836055    98A      0.851728  
      99A      0.852609   100A      0.855797   101A      0.883000  
     102A      0.887426   103A      0.913097   104A      0.920094  
     105A      0.944996   106A      0.971240   107A      0.971438  
     108A      0.980172   109A      0.986605   110A      0.988950  
     111A      0.994200   112A      1.012573   113A      1.025552  
     114A      1.035507   115A      1.039432   116A      1.045038  
     117A      1.053949   118A      1.067833   119A      1.072222  
     120A      1.075210   121A      1.090662   122A      1.091513  
     123A      1.102702   124A      1.109399   125A      1.117500  
     126A      1.117559   127A      1.129210   128A      1.133435  
     129A      1.139101   130A      1.148630   131A      1.152176  
     132A      1.157451   133A      1.170530   134A      1.183280  
     135A      1.193653   136A      1.199233   137A      1.213972  
     138A      1.228038   139A      1.242635   140A      1.251424  
     141A      1.256093   142A      1.259100   143A      1.263610  
     144A      1.288864   145A      1.299332   146A      1.304394  
     147A      1.314668   148A      1.326267   149A      1.330988  
     150A      1.348942   151A      1.364528   152A      1.375318  
     153A      1.382340   154A      1.392451   155A      1.392716  
     156A      1.398063   157A      1.411242   158A      1.435116  
     159A      1.435213   160A      1.445587   161A      1.459920  
     162A      1.481106   163A      1.488615   164A      1.499625  
     165A      1.501534   166A      1.518709   167A      1.533763  
     168A      1.552782   169A      1.567148   170A      1.588925  
     171A      1.604027   172A      1.640878   173A      1.651941  
     174A      1.652287   175A      1.689715   176A      1.695362  
     177A      1.737330   178A      1.744800   179A      1.759945  
     180A      1.780663   181A      1.785697   182A      1.801822  
     183A      1.812353   184A      1.823775   185A      1.854144  
     186A      1.866999   187A      1.891426   188A      1.917645  
     189A      1.925502   190A      1.931356   191A      1.942578  
     192A      1.961508   193A      1.966547   194A      1.979810  
     195A      2.029961   196A      2.033142   197A      2.038866  
     198A      2.042056   199A      2.056094   200A      2.068826  
     201A      2.091023   202A      2.101628   203A      2.119935  
     204A      2.140578   205A      2.160963   206A      2.161708  
     207A      2.173899   208A      2.199262   209A      2.202691  
     210A      2.257038   211A      2.290116   212A      2.302267  
     213A      2.357006   214A      2.363213   215A      2.375702  
     216A      2.403242   217A      2.438127   218A      2.452480  
     219A      2.456354   220A      2.482474   221A      2.482588  
     222A      2.501391   223A      2.510619   224A      2.518307  
     225A      2.520741   226A      2.548950   227A      2.552665  
     228A      2.576412   229A      2.593708   230A      2.600206  
     231A      2.637197   232A      2.678572   233A      2.693106  
     234A      2.705226   235A      2.732553   236A      2.746680  
     237A      2.762816   238A      2.765162   239A      2.788705  
     240A      2.822577   241A      2.834706   242A      2.854168  
     243A      2.860470   244A      2.900511   245A      2.904876  
     246A      2.926532   247A      2.954047   248A      2.969069  
     249A      2.985195   250A      2.995511   251A      3.024391  
     252A      3.055279   253A      3.104296   254A      3.149091  
     255A      3.253036   256A      3.307731   257A      3.340741  
     258A      3.376671   259A      3.510685   260A      3.517065  
     261A      3.619468   262A      3.682934   263A      3.766255  
     264A      3.793190   265A      3.870174   266A      3.872804  
     267A      3.901268   268A      3.925481   269A      3.949200  
     270A      4.010072   271A      4.064200   272A      4.066722  
     273A      4.094047   274A      4.119227   275A      4.142957  
     276A      4.153340   277A      4.182303   278A      4.184571  
     279A      4.216347   280A      4.223498   281A      4.249803  
     282A      4.255014   283A      4.272890   284A      4.276683  
     285A      4.292699   286A      4.309234   287A      4.309258  
     288A      4.364564   289A      4.384699   290A      4.407851  
     291A      4.447461   292A      4.461681   293A      4.477378  
     294A      4.499398   295A      4.510828   296A      4.563811  
     297A      4.572933   298A      4.581199   299A      4.583297  
     300A      4.600394   301A      4.641872   302A      4.648464  
     303A      4.655413   304A      4.676778   305A      4.684561  
     306A      4.698547   307A      4.705644   308A      4.758211  
     309A      4.762820   310A      4.776414   311A      4.819808  
     312A      4.828816   313A      4.887852   314A      4.915907  
     315A      4.918514   316A      4.927479   317A      4.935295  
     318A      4.955047   319A      5.029091   320A      5.042506  
     321A      5.060374   322A      5.112650   323A      5.139471  
     324A      5.165582   325A      5.169796   326A      5.194086  
     327A      5.225623   328A      5.297980   329A      5.298160  
     330A      5.316342   331A      5.330743   332A      5.354877  
     333A      5.377075   334A      5.390654   335A      5.411323  
     336A      5.414558   337A      5.447733   338A      5.504203  
     339A      5.507779   340A      5.532760   341A      5.556696  
     342A      5.594465   343A      5.597626   344A      5.629844  
     345A      5.668815   346A      5.680089   347A      5.745630  
     348A      5.763221   349A      5.784637   350A      5.822415  
     351A      5.846793   352A      5.874462   353A      6.090324  
     354A      6.162675   355A      6.176276   356A      6.231404  
     357A      6.241240   358A      6.272552   359A      6.319655  
     360A      6.325036   361A      6.350354   362A      6.451878  
     363A      6.625745   364A      6.677245   365A      6.729947  
     366A      6.764612   367A      6.791357   368A      6.811203  
     369A      7.001889   370A      7.171978   371A      7.229805  
     372A      7.275875   373A      7.344210   374A      7.349611  
     375A      7.368180   376A      7.463796   377A      7.479703  
     378A      7.552842   379A      7.561376   380A      7.656794  
     381A      7.755329   382A      7.791362   383A      7.825715  
     384A      7.838669   385A      7.858764   386A      7.863876  
     387A      7.896638   388A      7.919699   389A      7.922370  
     390A      7.957996   391A      8.011111   392A      8.028376  
     393A      8.053481   394A      8.218413   395A      8.281048  
     396A      8.304570   397A      8.389456   398A      8.864214  
     399A      9.378160   400A      9.813399   401A      9.847624  
     402A     10.138143   403A     10.181914   404A     10.462665  
     405A     10.477711   406A     10.755744   407A     11.697830  
     408A     11.701363   409A     12.906989   410A     15.972459  
     411A     17.600317   412A     25.054666   413A     25.618500  
     414A     25.784684   415A     52.035505   416A     52.086742  
     417A     59.965099   418A    141.853648  

    Final Occupation by Irrep:
              A 
    DOCC [     5 ]

  @DF-RHF Final Energy:   -76.06043653470442

   => Energetics <=

    Nuclear Repulsion Energy =              9.1672610468959927
    One-Electron Energy =                -122.9935652063302030
    Two-Electron Energy =                  37.7658676247297791
    Total Energy =                        -76.0604365347044364

Computation Completed


Properties will be evaluated at   0.000000,   0.000000,   0.000000 [a0]

Properties computed using the SCF density matrix

  Nuclear Dipole Moment: [e a0]
     X:   -23.9941      Y:    32.9218      Z:    35.7716

  Electronic Dipole Moment: [e a0]
     X:    23.8318      Y:   -32.1843      Z:   -35.9823

  Dipole Moment: [e a0]
     X:    -0.1622      Y:     0.7375      Z:    -0.2107     Total:     0.7840

  Dipole Moment: [D]
     X:    -0.4123      Y:     1.8745      Z:    -0.5356     Total:     1.9926


*** tstop() called on node62.bme.utexas.edu at Sat Apr 11 16:39:09 2020
Module time:
	user time   =      33.07 seconds =       0.55 minutes
	system time =       0.93 seconds =       0.02 minutes
	total time  =          7 seconds =       0.12 minutes
Total time:
	user time   =      54.06 seconds =       0.90 minutes
	system time =       2.04 seconds =       0.03 minutes
	total time  =         12 seconds =       0.20 minutes

*** tstart() called on node62.bme.utexas.edu
*** at Sat Apr 11 16:39:09 2020


  //>>>>>>>>>>>>>>>>>>>>>>>>>>>>>>>>>>>//
  //               DFMP2               //
  //<<<<<<<<<<<<<<<<<<<<<<<<<<<<<<<<<<<//

   => Loading Basis Set <=

    Name: (AUG-CC-PVTZ AUX)
    Role: RIFIT
    Keyword: DF_BASIS_MP2
    atoms 1, 4        entry C          line   148 file /home/liuchw/anaconda3/envs/psi4env/share/psi4/basis/aug-cc-pvtz-ri.gbs 
    atoms 2, 11       entry O          line   264 file /home/liuchw/anaconda3/envs/psi4env/share/psi4/basis/aug-cc-pvtz-ri.gbs 
    atoms 3           entry S          line   666 file /home/liuchw/anaconda3/envs/psi4env/share/psi4/basis/aug-cc-pvtz-ri.gbs 
    atoms 5-10, 12-13 entry H          line    30 file /home/liuchw/anaconda3/envs/psi4env/share/psi4/basis/aug-cc-pvtz-ri.gbs 

	 --------------------------------------------------------
	                          DF-MP2                         
	      2nd-Order Density-Fitted Moller-Plesset Theory     
	              RMP2 Wavefunction,   6 Threads             
	                                                         
	        Rob Parrish, Justin Turney, Andy Simmonett,      
	           Ed Hohenstein, and C. David Sherrill          
	 --------------------------------------------------------

   => Auxiliary Basis Set <=

  Basis Set: (AUG-CC-PVTZ AUX)
    Blend: AUG-CC-PVTZ-RI
    Number of shells: 261
    Number of basis function: 939
    Number of Cartesian functions: 1175
    Spherical Harmonics?: true
    Max angular momentum: 4

	 --------------------------------------------------------
	                 NBF =   418, NAUX =   939
	 --------------------------------------------------------
	   CLASS    FOCC     OCC    AOCC    AVIR     VIR    FVIR
	   PAIRS       0       5       5     413     413       0
	 --------------------------------------------------------

	-----------------------------------------------------------
	 ==================> DF-MP2 Energies <==================== 
	-----------------------------------------------------------
	 Reference Energy          =     -76.0604365347044222 [Eh]
	 Singles Energy            =      -0.0000000000000000 [Eh]
	 Same-Spin Energy          =      -0.0684470720167836 [Eh]
	 Opposite-Spin Energy      =      -0.2157699768131752 [Eh]
	 Correlation Energy        =      -0.2842170488299589 [Eh]
	 Total Energy              =     -76.3446535835343809 [Eh]
	-----------------------------------------------------------
	 ================> DF-SCS-MP2 Energies <================== 
	-----------------------------------------------------------
	 SCS Same-Spin Scale       =       0.3333333333333333 [-]
	 SCS Opposite-Spin Scale   =       1.2000000000000000 [-]
	 SCS Same-Spin Energy      =      -0.0228156906722612 [Eh]
	 SCS Opposite-Spin Energy  =      -0.2589239721758102 [Eh]
	 SCS Correlation Energy    =      -0.2817396628480714 [Eh]
	 SCS Total Energy          =     -76.3421761975524902 [Eh]
	-----------------------------------------------------------


*** tstop() called on node62.bme.utexas.edu at Sat Apr 11 16:39:12 2020
Module time:
	user time   =      15.73 seconds =       0.26 minutes
	system time =       0.46 seconds =       0.01 minutes
	total time  =          3 seconds =       0.05 minutes
Total time:
	user time   =      69.79 seconds =       1.16 minutes
	system time =       2.50 seconds =       0.04 minutes
	total time  =         15 seconds =       0.25 minutes

  //>>>>>>>>>>>>>>>>>>>>>>>>>>>>>>>>>>>>//
  // CBS Computation: MP2 / AUG-CC-PVQZ //
  //<<<<<<<<<<<<<<<<<<<<<<<<<<<<<<<<<<<<//


Scratch directory: /scratch//

*** tstart() called on node62.bme.utexas.edu
*** at Sat Apr 11 16:39:12 2020

   => Loading Basis Set <=

    Name: AUG-CC-PVQZ
    Role: ORBITAL
    Keyword: BASIS
    atoms 1, 4        entry C          line   303 file /home/liuchw/anaconda3/envs/psi4env/share/psi4/basis/aug-cc-pvqz.gbs 
    atoms 2, 11       entry O          line   423 file /home/liuchw/anaconda3/envs/psi4env/share/psi4/basis/aug-cc-pvqz.gbs 
    atoms 3           entry S          line  1126 file /home/liuchw/anaconda3/envs/psi4env/share/psi4/basis/aug-cc-pvqz.gbs 
    atoms 5-10, 12-13 entry H          line    40 file /home/liuchw/anaconda3/envs/psi4env/share/psi4/basis/aug-cc-pvqz.gbs 


         ---------------------------------------------------------
                                   SCF
               by Justin Turney, Rob Parrish, Andy Simmonett
                          and Daniel G. A. Smith
                              RHF Reference
                        6 Threads,  38146 MiB Core
         ---------------------------------------------------------

  ==> Geometry <==

    Molecular point group: c1
    Full point group: C1

    Geometry (in Angstrom), charge = 0, multiplicity = 1:

       Center              X                  Y                   Z               Mass       
    ------------   -----------------  -----------------  -----------------  -----------------
      Gh(C)          -1.088636395056    -1.141877902227    -0.074838386476    12.000000000000
      Gh(O)           0.830478604944    -0.501900902227    -1.798764386476    15.994914619570
      Gh(S)           0.194214604944     0.031130097773    -0.551239386476    31.972071174400
      Gh(C)           1.305213604944    -0.361505902227     0.812628613524    12.000000000000
      Gh(H)          -1.501436395056    -0.853931902227     0.889208613524     1.007825032230
      Gh(H)          -1.854849395056    -1.098819902227    -0.844422386476     1.007825032230
      Gh(H)          -0.645555395056    -2.135666902227    -0.049755386476     1.007825032230
      Gh(H)           0.830560604944    -0.093742902227     1.753749613524     1.007825032230
      Gh(H)           1.541801604944    -1.422609902227     0.761139613524     1.007825032230
      Gh(H)           2.207366604944     0.225430097773     0.661553613524     1.007825032230
         O           -1.245253395056     1.630899097773     1.924776613524    15.994914619570
         H           -1.071710395056     2.057726097773     1.081482613524     1.007825032230
         H           -1.663379395056     2.316562097773     2.449821613524     1.007825032230

  Running in c1 symmetry.

  Rotational constants: A =      0.17487  B =      0.06636  C =      0.06093 [cm^-1]
  Rotational constants: A =   5242.41786  B =   1989.44696  C =   1826.77787 [MHz]
  Nuclear repulsion =    9.167261046895993

  Charge       = 0
  Multiplicity = 1
  Electrons    = 10
  Nalpha       = 5
  Nbeta        = 5

  ==> Algorithm <==

  SCF Algorithm Type is DF.
  DIIS enabled.
  MOM disabled.
  Fractional occupation disabled.
  Guess Type is SAD.
  Energy threshold   = 1.00e-07
  Density threshold  = 1.00e-08
  Integral threshold = 0.00e+00

  ==> Primary Basis <==

  Basis Set: AUG-CC-PVQZ
    Blend: AUG-CC-PVQZ
    Number of shells: 214
    Number of basis function: 772
    Number of Cartesian functions: 969
    Spherical Harmonics?: true
    Max angular momentum: 4

   => Loading Basis Set <=

    Name: (AUG-CC-PVQZ AUX)
    Role: JKFIT
    Keyword: DF_BASIS_SCF
    atoms 1, 4        entry C          line   178 file /home/liuchw/anaconda3/envs/psi4env/share/psi4/basis/aug-cc-pvqz-jkfit.gbs 
    atoms 2, 11       entry O          line   318 file /home/liuchw/anaconda3/envs/psi4env/share/psi4/basis/aug-cc-pvqz-jkfit.gbs 
    atoms 3           entry S          line   810 file /home/liuchw/anaconda3/envs/psi4env/share/psi4/basis/aug-cc-pvqz-jkfit.gbs 
    atoms 5-10, 12-13 entry H          line    70 file /home/liuchw/anaconda3/envs/psi4env/share/psi4/basis/aug-cc-pvqz-jkfit.gbs 

  ==> Pre-Iterations <==

   -------------------------------------------------------
    Irrep   Nso     Nmo     Nalpha   Nbeta   Ndocc  Nsocc
   -------------------------------------------------------
     A        772     772       0       0       0       0
   -------------------------------------------------------
    Total     772     772       5       5       5       0
   -------------------------------------------------------

  ==> Integral Setup <==

  DFHelper Memory: AOs need 5.817 GiB; user supplied 27.940 GiB. Using in-core AOs.

  ==> MemDFJK: Density-Fitted J/K Matrices <==

    J tasked:                   Yes
    K tasked:                   Yes
    wK tasked:                   No
    OpenMP threads:               6
    Memory [MiB]:             28610
    Algorithm:                 Core
    Schwarz Cutoff:           1E-12
    Mask sparsity (%):       6.7666
    Fitting Condition:        1E-10

   => Auxiliary Basis Set <=

  Basis Set: (AUG-CC-PVQZ AUX)
    Blend: AUG-CC-PVQZ-JKFIT
    Number of shells: 326
    Number of basis function: 1360
    Number of Cartesian functions: 1847
    Spherical Harmonics?: true
    Max angular momentum: 5

  Minimum eigenvalue in the overlap matrix is 4.7569678486E-06.
  Using Symmetric Orthogonalization.

  SCF Guess: Superposition of Atomic Densities via on-the-fly atomic UHF.

  ==> Iterations <==

                           Total Energy        Delta E     RMS |[F,P]|

   @DF-RHF iter SAD:   -75.48031164377346   -7.54803e+01   0.00000e+00 
   @DF-RHF iter   1:   -75.98103848604536   -5.00727e-01   6.08079e-04 DIIS
   @DF-RHF iter   2:   -76.03362460684221   -5.25861e-02   4.15937e-04 DIIS
   @DF-RHF iter   3:   -76.06534578471997   -3.17212e-02   2.83456e-05 DIIS
   @DF-RHF iter   4:   -76.06573748328627   -3.91699e-04   6.94695e-06 DIIS
   @DF-RHF iter   5:   -76.06576280744858   -2.53242e-05   1.57331e-06 DIIS
   @DF-RHF iter   6:   -76.06576489000091   -2.08255e-06   3.53858e-07 DIIS
   @DF-RHF iter   7:   -76.06576500688806   -1.16887e-07   6.59289e-08 DIIS
   @DF-RHF iter   8:   -76.06576501045672   -3.56866e-09   1.06322e-08 DIIS
   @DF-RHF iter   9:   -76.06576501053071   -7.39959e-11   2.54539e-09 DIIS
  Energy and wave function converged.


  ==> Post-Iterations <==

    Orbital Energies [Eh]
    ---------------------

    Doubly Occupied:                                                      

       1A    -20.565467     2A     -1.351688     3A     -0.715098  
       4A     -0.585453     5A     -0.510385  

    Virtual:                                                              

       6A      0.018361     7A      0.032155     8A      0.033900  
       9A      0.038464    10A      0.054276    11A      0.058379  
      12A      0.060073    13A      0.062283    14A      0.062940  
      15A      0.083426    16A      0.095700    17A      0.096716  
      18A      0.105713    19A      0.106518    20A      0.118139  
      21A      0.120813    22A      0.123801    23A      0.128163  
      24A      0.134460    25A      0.144732    26A      0.162819  
      27A      0.165604    28A      0.172868    29A      0.175493  
      30A      0.181767    31A      0.187035    32A      0.189067  
      33A      0.200120    34A      0.220523    35A      0.229352  
      36A      0.233208    37A      0.236639    38A      0.239552  
      39A      0.247469    40A      0.252386    41A      0.263395  
      42A      0.264740    43A      0.276592    44A      0.276964  
      45A      0.282791    46A      0.290019    47A      0.290423  
      48A      0.293162    49A      0.302056    50A      0.302246  
      51A      0.315045    52A      0.318253    53A      0.329673  
      54A      0.329783    55A      0.343119    56A      0.348249  
      57A      0.360668    58A      0.361027    59A      0.368648  
      60A      0.375122    61A      0.376478    62A      0.379825  
      63A      0.392410    64A      0.400956    65A      0.401271  
      66A      0.406365    67A      0.416528    68A      0.428406  
      69A      0.435760    70A      0.439481    71A      0.442042  
      72A      0.444354    73A      0.448629    74A      0.453508  
      75A      0.465858    76A      0.474740    77A      0.475138  
      78A      0.489075    79A      0.490432    80A      0.493949  
      81A      0.503322    82A      0.514379    83A      0.515094  
      84A      0.518902    85A      0.523661    86A      0.542780  
      87A      0.546146    88A      0.554839    89A      0.556627  
      90A      0.571851    91A      0.586345    92A      0.590652  
      93A      0.598252    94A      0.600014    95A      0.610394  
      96A      0.631392    97A      0.635464    98A      0.644925  
      99A      0.653100   100A      0.655227   101A      0.662104  
     102A      0.678912   103A      0.687489   104A      0.702565  
     105A      0.721061   106A      0.725191   107A      0.726594  
     108A      0.739588   109A      0.753761   110A      0.758039  
     111A      0.761339   112A      0.771590   113A      0.772072  
     114A      0.780178   115A      0.780997   116A      0.786541  
     117A      0.797654   118A      0.801978   119A      0.808089  
     120A      0.812144   121A      0.813300   122A      0.832002  
     123A      0.832569   124A      0.841916   125A      0.845864  
     126A      0.853281   127A      0.856645   128A      0.869278  
     129A      0.875463   130A      0.880152   131A      0.880783  
     132A      0.888779   133A      0.898274   134A      0.900777  
     135A      0.913586   136A      0.931795   137A      0.936389  
     138A      0.940826   139A      0.945438   140A      0.952504  
     141A      0.961043   142A      0.969840   143A      0.973387  
     144A      0.979152   145A      0.988294   146A      0.990930  
     147A      0.997813   148A      1.006039   149A      1.019792  
     150A      1.032150   151A      1.037961   152A      1.046158  
     153A      1.048708   154A      1.061102   155A      1.064111  
     156A      1.065746   157A      1.078613   158A      1.089414  
     159A      1.104300   160A      1.106531   161A      1.121734  
     162A      1.129341   163A      1.135340   164A      1.139787  
     165A      1.149098   166A      1.151959   167A      1.154863  
     168A      1.168103   169A      1.176383   170A      1.179475  
     171A      1.193736   172A      1.214483   173A      1.228853  
     174A      1.237681   175A      1.244835   176A      1.262520  
     177A      1.278597   178A      1.282311   179A      1.291199  
     180A      1.303044   181A      1.306730   182A      1.326926  
     183A      1.329168   184A      1.336453   185A      1.350042  
     186A      1.358553   187A      1.360641   188A      1.385980  
     189A      1.392215   190A      1.396969   191A      1.402323  
     192A      1.451422   193A      1.454705   194A      1.462643  
     195A      1.488971   196A      1.490954   197A      1.505326  
     198A      1.508361   199A      1.513475   200A      1.522293  
     201A      1.539707   202A      1.548018   203A      1.562848  
     204A      1.581913   205A      1.585525   206A      1.589784  
     207A      1.598943   208A      1.605387   209A      1.610693  
     210A      1.622549   211A      1.628628   212A      1.648490  
     213A      1.652985   214A      1.661891   215A      1.667641  
     216A      1.668180   217A      1.676760   218A      1.689767  
     219A      1.701681   220A      1.721505   221A      1.732515  
     222A      1.739247   223A      1.744572   224A      1.747906  
     225A      1.761175   226A      1.768375   227A      1.785138  
     228A      1.792927   229A      1.807165   230A      1.809652  
     231A      1.814610   232A      1.814720   233A      1.822414  
     234A      1.840337   235A      1.845242   236A      1.853985  
     237A      1.865981   238A      1.872050   239A      1.875173  
     240A      1.876875   241A      1.891329   242A      1.898277  
     243A      1.902565   244A      1.914045   245A      1.929578  
     246A      1.933088   247A      1.936397   248A      1.941908  
     249A      1.942718   250A      1.970209   251A      1.970617  
     252A      1.976923   253A      1.979051   254A      1.984670  
     255A      2.015371   256A      2.025713   257A      2.037918  
     258A      2.043085   259A      2.055093   260A      2.061384  
     261A      2.073995   262A      2.084067   263A      2.087938  
     264A      2.093524   265A      2.096176   266A      2.114603  
     267A      2.119327   268A      2.134887   269A      2.148409  
     270A      2.152161   271A      2.159143   272A      2.166854  
     273A      2.168094   274A      2.182408   275A      2.191905  
     276A      2.200531   277A      2.205651   278A      2.211059  
     279A      2.223506   280A      2.238182   281A      2.244210  
     282A      2.265093   283A      2.267795   284A      2.279141  
     285A      2.282678   286A      2.292437   287A      2.294656  
     288A      2.294749   289A      2.306913   290A      2.335675  
     291A      2.340981   292A      2.363905   293A      2.371508  
     294A      2.372505   295A      2.375490   296A      2.399374  
     297A      2.404495   298A      2.408008   299A      2.422763  
     300A      2.436812   301A      2.440267   302A      2.448623  
     303A      2.478152   304A      2.481711   305A      2.488553  
     306A      2.496121   307A      2.505178   308A      2.511318  
     309A      2.537447   310A      2.543881   311A      2.551372  
     312A      2.564414   313A      2.574115   314A      2.583167  
     315A      2.594706   316A      2.595378   317A      2.615732  
     318A      2.635015   319A      2.643674   320A      2.653983  
     321A      2.656186   322A      2.669986   323A      2.682218  
     324A      2.694483   325A      2.737348   326A      2.750037  
     327A      2.766322   328A      2.777771   329A      2.796864  
     330A      2.798261   331A      2.819389   332A      2.830321  
     333A      2.833628   334A      2.835312   335A      2.868229  
     336A      2.874713   337A      2.887541   338A      2.891662  
     339A      2.906639   340A      2.928579   341A      2.952633  
     342A      2.968055   343A      2.991414   344A      3.001795  
     345A      3.009756   346A      3.016202   347A      3.042984  
     348A      3.068792   349A      3.075914   350A      3.084281  
     351A      3.105832   352A      3.112738   353A      3.132218  
     354A      3.146747   355A      3.150965   356A      3.156851  
     357A      3.174527   358A      3.186056   359A      3.211248  
     360A      3.217153   361A      3.223766   362A      3.248692  
     363A      3.260807   364A      3.280473   365A      3.293031  
     366A      3.306819   367A      3.313746   368A      3.345203  
     369A      3.351498   370A      3.354896   371A      3.369255  
     372A      3.375218   373A      3.388786   374A      3.404185  
     375A      3.413479   376A      3.417797   377A      3.440228  
     378A      3.454069   379A      3.469704   380A      3.483272  
     381A      3.512943   382A      3.513601   383A      3.525909  
     384A      3.555517   385A      3.555560   386A      3.572535  
     387A      3.582566   388A      3.608852   389A      3.622939  
     390A      3.647052   391A      3.654743   392A      3.668452  
     393A      3.684505   394A      3.689162   395A      3.723890  
     396A      3.743581   397A      3.756901   398A      3.767539  
     399A      3.810515   400A      3.812915   401A      3.839772  
     402A      3.846351   403A      3.874044   404A      3.888546  
     405A      3.889327   406A      3.915395   407A      3.920014  
     408A      3.936533   409A      3.940199   410A      3.960456  
     411A      3.975484   412A      4.013570   413A      4.015906  
     414A      4.031824   415A      4.053922   416A      4.075914  
     417A      4.093317   418A      4.106454   419A      4.131473  
     420A      4.134893   421A      4.142357   422A      4.178288  
     423A      4.180504   424A      4.198394   425A      4.200176  
     426A      4.231886   427A      4.247190   428A      4.247507  
     429A      4.266482   430A      4.275732   431A      4.278020  
     432A      4.304589   433A      4.312455   434A      4.339411  
     435A      4.341980   436A      4.359996   437A      4.363280  
     438A      4.377114   439A      4.416115   440A      4.420650  
     441A      4.433749   442A      4.468028   443A      4.505723  
     444A      4.513911   445A      4.531286   446A      4.535321  
     447A      4.568011   448A      4.590872   449A      4.594616  
     450A      4.604311   451A      4.638876   452A      4.658016  
     453A      4.662997   454A      4.695307   455A      4.714092  
     456A      4.716341   457A      4.740189   458A      4.749305  
     459A      4.794272   460A      4.811214   461A      4.822605  
     462A      4.835669   463A      4.843349   464A      4.847651  
     465A      4.867651   466A      4.899910   467A      4.920129  
     468A      4.924047   469A      4.952240   470A      4.956620  
     471A      4.967618   472A      4.969635   473A      4.977344  
     474A      5.025234   475A      5.036187   476A      5.055442  
     477A      5.084260   478A      5.102226   479A      5.108192  
     480A      5.120431   481A      5.143742   482A      5.158390  
     483A      5.249835   484A      5.269914   485A      5.298364  
     486A      5.335187   487A      5.347007   488A      5.356494  
     489A      5.372392   490A      5.390438   491A      5.459899  
     492A      5.475656   493A      5.481900   494A      5.510570  
     495A      5.521031   496A      5.569753   497A      5.585174  
     498A      5.601821   499A      5.607125   500A      5.621550  
     501A      5.643076   502A      5.654227   503A      5.699712  
     504A      5.726796   505A      5.774353   506A      5.787888  
     507A      5.825065   508A      5.847847   509A      5.925990  
     510A      5.952275   511A      5.999653   512A      6.021373  
     513A      6.026635   514A      6.148327   515A      6.152891  
     516A      6.161393   517A      6.221715   518A      6.298977  
     519A      6.379206   520A      6.440946   521A      6.474092  
     522A      6.530438   523A      6.552696   524A      6.764174  
     525A      6.765806   526A      6.814942   527A      6.826825  
     528A      6.868408   529A      6.871652   530A      6.931325  
     531A      6.933298   532A      6.942417   533A      6.958726  
     534A      6.970625   535A      6.977088   536A      6.999037  
     537A      7.011386   538A      7.040070   539A      7.071156  
     540A      7.073936   541A      7.139643   542A      7.173679  
     543A      7.177993   544A      7.199696   545A      7.221596  
     546A      7.248986   547A      7.254452   548A      7.310299  
     549A      7.310965   550A      7.319254   551A      7.352002  
     552A      7.358054   553A      7.371682   554A      7.406074  
     555A      7.418978   556A      7.447123   557A      7.466285  
     558A      7.485902   559A      7.541953   560A      7.546311  
     561A      7.576105   562A      7.613261   563A      7.658889  
     564A      7.697855   565A      7.700406   566A      7.723067  
     567A      7.748519   568A      7.776253   569A      7.793334  
     570A      7.811893   571A      7.828075   572A      7.829391  
     573A      7.833675   574A      7.859810   575A      7.873603  
     576A      7.888802   577A      7.902333   578A      7.966287  
     579A      7.989537   580A      8.007043   581A      8.007094  
     582A      8.022354   583A      8.024572   584A      8.084112  
     585A      8.086533   586A      8.097454   587A      8.102103  
     588A      8.104828   589A      8.131389   590A      8.158364  
     591A      8.177028   592A      8.217935   593A      8.241310  
     594A      8.251572   595A      8.271999   596A      8.381259  
     597A      8.392434   598A      8.452916   599A      8.564497  
     600A      8.595348   601A      8.608581   602A      8.637744  
     603A      8.641620   604A      8.690842   605A      8.697054  
     606A      8.758769   607A      8.793016   608A      8.819964  
     609A      8.837224   610A      8.851421   611A      8.869696  
     612A      8.892859   613A      8.917698   614A      8.930675  
     615A      8.945942   616A      8.967031   617A      9.004497  
     618A      9.008293   619A      9.064895   620A      9.107023  
     621A      9.166928   622A      9.185551   623A      9.250700  
     624A      9.309692   625A      9.390220   626A      9.425506  
     627A      9.441061   628A      9.486245   629A      9.509281  
     630A      9.576555   631A      9.598453   632A      9.652842  
     633A      9.671034   634A      9.705232   635A      9.716651  
     636A      9.728341   637A      9.748509   638A      9.751444  
     639A      9.770101   640A      9.778489   641A      9.851167  
     642A      9.864133   643A      9.869697   644A      9.874362  
     645A      9.883605   646A      9.900857   647A      9.901113  
     648A      9.942759   649A      9.958251   650A      9.964653  
     651A      9.998141   652A     10.014532   653A     10.022577  
     654A     10.056333   655A     10.156153   656A     10.162204  
     657A     10.187996   658A     10.204149   659A     10.237351  
     660A     10.374924   661A     10.401977   662A     10.424742  
     663A     10.468365   664A     10.483458   665A     10.531503  
     666A     10.581733   667A     10.582128   668A     10.684436  
     669A     10.712846   670A     10.732331   671A     10.767617  
     672A     10.796394   673A     10.821628   674A     10.841287  
     675A     10.858073   676A     10.867515   677A     10.889982  
     678A     10.898708   679A     10.908792   680A     10.950459  
     681A     10.981088   682A     10.997000   683A     11.092711  
     684A     11.113011   685A     11.183939   686A     11.251837  
     687A     11.276489   688A     11.290162   689A     11.335659  
     690A     11.349653   691A     11.359606   692A     11.389138  
     693A     11.408984   694A     11.470966   695A     11.510207  
     696A     11.524371   697A     11.550821   698A     11.646344  
     699A     11.663585   700A     11.786039   701A     11.908587  
     702A     11.908603   703A     11.918011   704A     11.924386  
     705A     12.048726   706A     12.062181   707A     12.065007  
     708A     12.078580   709A     12.104240   710A     12.110951  
     711A     12.122324   712A     12.199718   713A     12.211133  
     714A     12.287622   715A     12.292091   716A     12.309894  
     717A     12.311379   718A     12.399480   719A     12.447208  
     720A     12.463417   721A     12.730517   722A     12.805205  
     723A     12.878842   724A     13.003712   725A     13.219872  
     726A     13.302699   727A     13.317407   728A     13.422570  
     729A     13.447797   730A     13.740811   731A     13.829524  
     732A     14.014196   733A     14.115810   734A     14.144261  
     735A     14.217416   736A     14.357142   737A     14.467659  
     738A     14.516917   739A     14.712989   740A     14.727622  
     741A     14.816935   742A     14.860254   743A     14.918699  
     744A     15.017534   745A     15.044990   746A     15.330477  
     747A     16.562978   748A     16.732690   749A     17.089732  
     750A     17.431776   751A     17.459171   752A     17.506497  
     753A     17.522381   754A     17.528950   755A     17.570068  
     756A     17.658104   757A     17.764188   758A     17.796960  
     759A     18.128782   760A     20.646872   761A     22.803740  
     762A     22.836354   763A     23.873867   764A     25.837071  
     765A     25.875607   766A     25.959964   767A     38.679210  
     768A     45.943263   769A     71.880110   770A     71.881162  
     771A    122.673095   772A    141.860945  

    Final Occupation by Irrep:
              A 
    DOCC [     5 ]

  @DF-RHF Final Energy:   -76.06576501053071

   => Energetics <=

    Nuclear Repulsion Energy =              9.1672610468959927
    One-Electron Energy =                -123.0098683472509151
    Two-Electron Energy =                  37.7768422898242164
    Total Energy =                        -76.0657650105307113

Computation Completed


Properties will be evaluated at   0.000000,   0.000000,   0.000000 [a0]

Properties computed using the SCF density matrix

  Nuclear Dipole Moment: [e a0]
     X:   -23.9941      Y:    32.9218      Z:    35.7716

  Electronic Dipole Moment: [e a0]
     X:    23.8319      Y:   -32.1848      Z:   -35.9822

  Dipole Moment: [e a0]
     X:    -0.1621      Y:     0.7370      Z:    -0.2106     Total:     0.7835

  Dipole Moment: [D]
     X:    -0.4121      Y:     1.8733      Z:    -0.5352     Total:     1.9914


[...]
     321A      2.338106   322A      2.342674   323A      2.348403  
     324A      2.354311   325A      2.382450   326A      2.386958  
     327A      2.391569   328A      2.403920   329A      2.417180  
     330A      2.422696   331A      2.434154   332A      2.441780  
     333A      2.452929   334A      2.465451   335A      2.472856  
     336A      2.505797   337A      2.515709   338A      2.527002  
     339A      2.531140   340A      2.562844   341A      2.568443  
     342A      2.574427   343A      2.585119   344A      2.589690  
     345A      2.594038   346A      2.604781   347A      2.614932  
     348A      2.626952   349A      2.631011   350A      2.664925  
     351A      2.704954   352A      2.709136   353A      2.722196  
     354A      2.747229   355A      2.761532   356A      2.763036  
     357A      2.776416   358A      2.784588   359A      2.792692  
     360A      2.806916   361A      2.820042   362A      2.830949  
     363A      2.846119   364A      2.870852   365A      2.875351  
     366A      2.890706   367A      2.897818   368A      2.909249  
     369A      2.914054   370A      2.944049   371A      2.953180  
     372A      2.961098   373A      2.982297   374A      2.987148  
     375A      3.005170   376A      3.033187   377A      3.044132  
     378A      3.052715   379A      3.078646   380A      3.085511  
     381A      3.089730   382A      3.110457   383A      3.111177  
     384A      3.127066   385A      3.142184   386A      3.156670  
     387A      3.164845   388A      3.169769   389A      3.178509  
     390A      3.189999   391A      3.205125   392A      3.215796  
     393A      3.218141   394A      3.239540   395A      3.256739  
     396A      3.273607   397A      3.278834   398A      3.292592  
     399A      3.299204   400A      3.318643   401A      3.336613  
     402A      3.362749   403A      3.379387   404A      3.391575  
     405A      3.416063   406A      3.437298   407A      3.437571  
     408A      3.442773   409A      3.466491   410A      3.470963  
     411A      3.533649   412A      3.557034   413A      3.565383  
     414A      3.600115   415A      3.623804   416A      3.642252  
     417A      3.646051   418A      3.694843   419A      3.710409  
     420A      3.734064   421A      3.742446   422A      3.754689  
     423A      3.764834   424A      3.783031   425A      3.811614  
     426A      3.813442   427A      3.836588   428A      3.876185  
     429A      3.890497   430A      3.890880   431A      3.897489  
     432A      3.921631   433A      3.928575   434A      3.943975  
     435A      3.949671   436A      3.955585   437A      3.959241  
     438A      3.970426   439A      3.985038   440A      3.998483  
     441A      4.028190   442A      4.032001   443A      4.048526  
     444A      4.060141   445A      4.081949   446A      4.083730  
     447A      4.103360   448A      4.123464   449A      4.135070  
     450A      4.167730   451A      4.172611   452A      4.183469  
     453A      4.196493   454A      4.200385   455A      4.205283  
     456A      4.217554   457A      4.226967   458A      4.230507  
     459A      4.239969   460A      4.259346   461A      4.275151  
     462A      4.287427   463A      4.298657   464A      4.303558  
     465A      4.305871   466A      4.328571   467A      4.345882  
     468A      4.367657   469A      4.367957   470A      4.376607  
     471A      4.379346   472A      4.383260   473A      4.440774  
     474A      4.449938   475A      4.456270   476A      4.463359  
     477A      4.468981   478A      4.493145   479A      4.500650  
     480A      4.502634   481A      4.521365   482A      4.551156  
     483A      4.561780   484A      4.574370   485A      4.585242  
     486A      4.593791   487A      4.609018   488A      4.640123  
     489A      4.648304   490A      4.673277   491A      4.688948  
     492A      4.698540   493A      4.712392   494A      4.728503  
     495A      4.734821   496A      4.753014   497A      4.780435  
     498A      4.789090   499A      4.790141   500A      4.811501  
     501A      4.840658   502A      4.865306   503A      4.873392  
     504A      4.895845   505A      4.935702   506A      4.940644  
     507A      4.950181   508A      4.981643   509A      4.982891  
     510A      4.985937   511A      5.062245   512A      5.067250  
     513A      5.069826   514A      5.102716   515A      5.133162  
     516A      5.152020   517A      5.156669   518A      5.216348  
     519A      5.241435   520A      5.249611   521A      5.255071  
     522A      5.318972   523A      5.333125   524A      5.346957  
     525A      5.377960   526A      5.426204   527A      5.459388  
     528A      5.484194   529A      5.563710   530A      5.581271  
     531A      5.620736   532A      5.672510   533A      5.841002  
     534A      5.957484   535A      6.018900   536A      6.051314  
     537A      6.088412   538A      6.159402   539A      6.181188  
     540A      6.256980   541A      6.266374   542A      6.282843  
     543A      6.299197   544A      6.340411   545A      6.369907  
     546A      6.408738   547A      6.452941   548A      6.508599  
     549A      6.568306   550A      6.576108   551A      6.587096  
     552A      6.671739   553A      6.687356   554A      6.712582  
     555A      6.720497   556A      6.732409   557A      6.776664  
     558A      6.801458   559A      6.817324   560A      6.820503  
     561A      6.834457   562A      6.855903   563A      6.876042  
     564A      6.903154   565A      6.907394   566A      6.924236  
     567A      6.943653   568A      6.980701   569A      6.989918  
     570A      7.014231   571A      7.015486   572A      7.040511  
     573A      7.062449   574A      7.086502   575A      7.105404  
     576A      7.125277   577A      7.132048   578A      7.167750  
     579A      7.178681   580A      7.192742   581A      7.203000  
     582A      7.231112   583A      7.250425   584A      7.260200  
     585A      7.296675   586A      7.357942   587A      7.364771  
     588A      7.388508   589A      7.420729   590A      7.424190  
     591A      7.463353   592A      7.514127   593A      7.549680  
     594A      7.670728   595A      7.701835   596A      7.730039  
     597A      7.735359   598A      7.767843   599A      7.786758  
     600A      7.790215   601A      7.794579   602A      7.814033  
     603A      7.826714   604A      7.832603   605A      7.834629  
     606A      7.858523   607A      7.871128   608A      7.881704  
     609A      7.912110   610A      7.913362   611A      7.938077  
     612A      7.960486   613A      7.964260   614A      8.016370  
     615A      8.038223   616A      8.049245   617A      8.074473  
     618A      8.090037   619A      8.101511   620A      8.116352  
     621A      8.219885   622A      8.244150   623A      8.327923  
     624A      8.383897   625A      8.396853   626A      8.397434  
     627A      8.431431   628A      8.467286   629A      8.560661  
     630A      8.601133   631A      8.609056   632A      8.636529  
     633A      8.649087   634A      8.654025   635A      8.676657  
     636A      8.705484   637A      8.705739   638A      8.718371  
     639A      8.768502   640A      8.791267   641A      8.796399  
     642A      8.834497   643A      8.839516   644A      8.896957  
     645A      8.951610   646A      8.985160   647A      9.021132  
     648A      9.027314   649A      9.086610   650A      9.111756  
     651A      9.119736   652A      9.138825   653A      9.145021  
     654A      9.203415   655A      9.215201   656A      9.239123  
     657A      9.257538   658A      9.295267   659A      9.300429  
     660A      9.316615   661A      9.344180   662A      9.385742  
     663A      9.410474   664A      9.428721   665A      9.514207  
     666A      9.530640   667A      9.548941   668A      9.610634  
     669A      9.657953   670A      9.678181   671A      9.700714  
     672A      9.704977   673A      9.709854   674A      9.763381  
     675A      9.769456   676A      9.874013   677A      9.888269  
     678A      9.901772   679A      9.929286   680A      9.993619  
     681A     10.004855   682A     10.035866   683A     10.069139  
     684A     10.097196   685A     10.135564   686A     10.165472  
     687A     10.209690   688A     10.245804   689A     10.258057  
     690A     10.276508   691A     10.305797   692A     10.377863  
     693A     10.409514   694A     10.422564   695A     10.429967  
     696A     10.462238   697A     10.475764   698A     10.476391  
     699A     10.551319   700A     10.850398   701A     10.851800  
     702A     10.888848   703A     10.929188   704A     10.933526  
     705A     10.944333   706A     10.953862   707A     10.955185  
     708A     10.999397   709A     11.026495   710A     11.041149  
     711A     11.063815   712A     11.069596   713A     11.093874  
     714A     11.104871   715A     11.114757   716A     11.134676  
     717A     11.158629   718A     11.166236   719A     11.190122  
     720A     11.206215   721A     11.293287   722A     11.313766  
     723A     11.320219   724A     11.361458   725A     11.511702  
     726A     11.520970   727A     11.574001   728A     11.602714  
     729A     11.617407   730A     11.767119   731A     11.899880  
     732A     11.901816   733A     12.069769   734A     12.082281  
     735A     12.137061   736A     12.168748   737A     12.267948  
     738A     12.284973   739A     12.330861   740A     12.420711  
     741A     12.697820   742A     12.780583   743A     12.792419  
     744A     12.838342   745A     12.863022   746A     12.979115  
     747A     13.188723   748A     13.202690   749A     13.230404  
     750A     13.245521   751A     13.291955   752A     13.306114  
     753A     13.339547   754A     13.414082   755A     13.486793  
     756A     13.555244   757A     13.558491   758A     13.700624  
     759A     13.997327   760A     14.074922   761A     14.206509  
     762A     14.499800   763A     14.800026   764A     14.908274  
     765A     15.313613   766A     17.073638   767A     17.457176  
     768A     24.381495   769A     28.828803   770A     28.830465  
     771A     44.057575   772A     45.927913  

    Final Occupation by Irrep:
              A 
    DOCC [    26 ]

  @DF-RHF Final Energy:  -627.74044976014056

   => Energetics <=

    Nuclear Repulsion Energy =            255.0991324246247416
    One-Electron Energy =               -1371.4696625543042501
    Two-Electron Energy =                 488.6300803695390300
    Total Energy =                       -627.7404497601405637

Computation Completed


Properties will be evaluated at   0.000000,   0.000000,   0.000000 [a0]

Properties computed using the SCF density matrix

  Nuclear Dipole Moment: [e a0]
     X:    -2.0192      Y:    -0.9360      Z:     6.2697

  Electronic Dipole Moment: [e a0]
     X:     1.1995      Y:     1.5803      Z:    -4.6253

  Dipole Moment: [e a0]
     X:    -0.8197      Y:     0.6444      Z:     1.6444     Total:     1.9471

  Dipole Moment: [D]
     X:    -2.0834      Y:     1.6379      Z:     4.1798     Total:     4.9491


*** tstop() called on node62.bme.utexas.edu at Sat Apr 11 16:42:22 2020
Module time:
	user time   =     179.76 seconds =       3.00 minutes
	system time =       4.06 seconds =       0.07 minutes
	total time  =         33 seconds =       0.55 minutes
Total time:
	user time   =    1021.60 seconds =      17.03 minutes
	system time =      29.76 seconds =       0.50 minutes
	total time  =        205 seconds =       3.42 minutes

*** tstart() called on node62.bme.utexas.edu
*** at Sat Apr 11 16:42:22 2020


  //>>>>>>>>>>>>>>>>>>>>>>>>>>>>>>>>>>>//
  //               DFMP2               //
  //<<<<<<<<<<<<<<<<<<<<<<<<<<<<<<<<<<<//

   => Loading Basis Set <=

    Name: (AUG-CC-PVQZ AUX)
    Role: RIFIT
    Keyword: DF_BASIS_MP2
    atoms 1, 4        entry C          line   184 file /home/liuchw/anaconda3/envs/psi4env/share/psi4/basis/aug-cc-pvqz-ri.gbs 
    atoms 2, 11       entry O          line   332 file /home/liuchw/anaconda3/envs/psi4env/share/psi4/basis/aug-cc-pvqz-ri.gbs 
    atoms 3           entry S          line   824 file /home/liuchw/anaconda3/envs/psi4env/share/psi4/basis/aug-cc-pvqz-ri.gbs 
    atoms 5-10, 12-13 entry H          line    30 file /home/liuchw/anaconda3/envs/psi4env/share/psi4/basis/aug-cc-pvqz-ri.gbs 

	 --------------------------------------------------------
	                          DF-MP2                         
	      2nd-Order Density-Fitted Moller-Plesset Theory     
	              RMP2 Wavefunction,   6 Threads             
	                                                         
	        Rob Parrish, Justin Turney, Andy Simmonett,      
	           Ed Hohenstein, and C. David Sherrill          
	 --------------------------------------------------------

   => Auxiliary Basis Set <=

  Basis Set: (AUG-CC-PVQZ AUX)
    Blend: AUG-CC-PVQZ-RI
    Number of shells: 348
    Number of basis function: 1506
    Number of Cartesian functions: 2056
    Spherical Harmonics?: true
    Max angular momentum: 5

	 --------------------------------------------------------
	                 NBF =   772, NAUX =  1506
	 --------------------------------------------------------
	   CLASS    FOCC     OCC    AOCC    AVIR     VIR    FVIR
	   PAIRS       0      26      26     746     746       0
	 --------------------------------------------------------

	-----------------------------------------------------------
	 ==================> DF-MP2 Energies <==================== 
	-----------------------------------------------------------
	 Reference Energy          =    -627.7404497601405637 [Eh]
	 Singles Energy            =      -0.0000000000000000 [Eh]
	 Same-Spin Energy          =      -0.3012061493190856 [Eh]
	 Opposite-Spin Energy      =      -1.0173513159969867 [Eh]
	 Correlation Energy        =      -1.3185574653160723 [Eh]
	 Total Energy              =    -629.0590072254566394 [Eh]
	-----------------------------------------------------------
	 ================> DF-SCS-MP2 Energies <================== 
	-----------------------------------------------------------
	 SCS Same-Spin Scale       =       0.3333333333333333 [-]
	 SCS Opposite-Spin Scale   =       1.2000000000000000 [-]
	 SCS Same-Spin Energy      =      -0.1004020497730285 [Eh]
	 SCS Opposite-Spin Energy  =      -1.2208215791963839 [Eh]
	 SCS Correlation Energy    =      -1.3212236289694124 [Eh]
	 SCS Total Energy          =    -629.0616733891099557 [Eh]
	-----------------------------------------------------------


*** tstop() called on node62.bme.utexas.edu at Sat Apr 11 16:42:44 2020
Module time:
	user time   =      96.94 seconds =       1.62 minutes
	system time =       2.97 seconds =       0.05 minutes
	total time  =         22 seconds =       0.37 minutes
Total time:
	user time   =    1118.55 seconds =      18.64 minutes
	system time =      32.73 seconds =       0.55 minutes
	total time  =        227 seconds =       3.78 minutes

  //>>>>>>>>>>>>>>>>>>>>>>>>>>>>>>>>>>>//
  //  CBS Results: mp2/aug-cc-pv[tq]z  //
  //<<<<<<<<<<<<<<<<<<<<<<<<<<<<<<<<<<<//


   ==> HF <==

   HI-zeta (4) Energy:               -627.740449760141


   ==> Helgaker 2-point correlated extrapolation for method: MP2 <==

   LO-zeta (3) Energy:               -628.897997358228
   HI-zeta (4) Energy:               -629.059007225457
   Alpha (exponent) Value:             3.000000000000
   Extrapolated Energy:              -629.176500912354

   @Extrapolated MP2/(T,Q):          -629.176500912354



   ==> Helgaker 2-point correlated extrapolation for method: HF <==

   LO-zeta (3) Energy:               -627.717353508059
   HI-zeta (4) Energy:               -627.740449760141
   Alpha (exponent) Value:             3.000000000000
   Extrapolated Energy:              -627.757303781930

   @Extrapolated HF/(T,Q):           -627.757303781930


   ==> Components <==

  ---------------------------------------------------------------------------------------------------------
                          Method / Basis                      Rqd      Energy [Eh]   Variable
  ---------------------------------------------------------------------------------------------------------
                              hf / aug-cc-pvtz                  *    -627.71735351   HF TOTAL ENERGY
                             mp2 / aug-cc-pvtz                  *    -628.89799736   MP2 TOTAL ENERGY
                              hf / aug-cc-pvqz                  *    -627.74044976   HF TOTAL ENERGY
                             mp2 / aug-cc-pvqz                  *    -629.05900723   MP2 TOTAL ENERGY
  ---------------------------------------------------------------------------------------------------------

   ==> Stages <==

  ---------------------------------------------------------------------------------------------------------
      Stage               Method / Basis                       Wt      Energy [Eh]   Scheme
  ---------------------------------------------------------------------------------------------------------
        scf                   hf / aug-cc-pvqz                  1    -627.74044976   xtpl_highest_1
       corl                  mp2 / aug-cc-pv[tq]z               1    -629.17650091   corl_xtpl_helgaker_2
       corl                   hf / aug-cc-pv[tq]z              -1    -627.75730378   corl_xtpl_helgaker_2
  ---------------------------------------------------------------------------------------------------------

   ==> CBS <==

  ---------------------------------------------------------------------------------------------------------
      Stage               Method / Basis                               Energy [Eh]   Scheme
  ---------------------------------------------------------------------------------------------------------
        scf                   hf / aug-cc-pvqz                       -627.74044976   xtpl_highest_1
       corl                  mp2 / aug-cc-pv[tq]z                      -1.41919713   corl_xtpl_helgaker_2
      total                  CBS                                     -629.15964689   
  ---------------------------------------------------------------------------------------------------------
   => Loading Basis Set <=

    Name: DEF2-SVP
    Role: ORBITAL
    Keyword: BASIS
    atoms 1, 4        entry C          line    90 file /home/liuchw/anaconda3/envs/psi4env/share/psi4/basis/def2-svp.gbs 
    atoms 2, 11       entry O          line   130 file /home/liuchw/anaconda3/envs/psi4env/share/psi4/basis/def2-svp.gbs 
    atoms 3           entry S          line   328 file /home/liuchw/anaconda3/envs/psi4env/share/psi4/basis/def2-svp.gbs 
    atoms 5-10, 12-13 entry H          line    15 file /home/liuchw/anaconda3/envs/psi4env/share/psi4/basis/def2-svp.gbs 


       N-Body: Complex Energy (fragments = (1, 2), basis = (1, 2):  -629.15964689056443)

   ==> N-Body: Counterpoise Corrected (CP) energies <==

   n-Body     Total Energy [Eh]       I.E. [kcal/mol]      Delta [kcal/mol]
        1     -629.152880658507        0.000000000000        0.000000000000
        2     -629.159578270291       -4.202814846522       -4.202814846522

   => Loading Basis Set <=

    Name: DEF2-SVP
    Role: ORBITAL
    Keyword: BASIS
    atoms 1, 4        entry C          line    90 file /home/liuchw/anaconda3/envs/psi4env/share/psi4/basis/def2-svp.gbs 
    atoms 2, 11       entry O          line   130 file /home/liuchw/anaconda3/envs/psi4env/share/psi4/basis/def2-svp.gbs 
    atoms 3           entry S          line   328 file /home/liuchw/anaconda3/envs/psi4env/share/psi4/basis/def2-svp.gbs 
    atoms 5-10, 12-13 entry H          line    15 file /home/liuchw/anaconda3/envs/psi4env/share/psi4/basis/def2-svp.gbs 


    Psi4 stopped on: Saturday, 11 April 2020 04:42PM
    Psi4 wall time for execution: 0:03:47.01

*** Psi4 exiting successfully. Buy a developer a beer!
