
    -----------------------------------------------------------------------
          Psi4: An Open-Source Ab Initio Electronic Structure Package
                               Psi4 1.4a2.dev224 

                         Git: Rev {master} e453b16 


    R. M. Parrish, L. A. Burns, D. G. A. Smith, A. C. Simmonett,
    A. E. DePrince III, E. G. Hohenstein, U. Bozkaya, A. Yu. Sokolov,
    R. Di Remigio, R. M. Richard, J. F. Gonthier, A. M. James,
    H. R. McAlexander, A. Kumar, M. Saitow, X. Wang, B. P. Pritchard,
    P. Verma, H. F. Schaefer III, K. Patkowski, R. A. King, E. F. Valeev,
    F. A. Evangelista, J. M. Turney, T. D. Crawford, and C. D. Sherrill,
    J. Chem. Theory Comput. 13(7) pp 3185--3197 (2017).
    (doi: 10.1021/acs.jctc.7b00174)


                         Additional Contributions by
    P. Kraus, H. Kruse, M. H. Lechner, M. C. Schieber, R. A. Shaw,
    A. Alenaizan, R. Galvelis, Z. L. Glick, S. Lehtola, and J. P. Misiewicz

    -----------------------------------------------------------------------


    Psi4 started on: Thursday, 23 April 2020 06:44PM

    Process ID: 46206
    Host:       node84.bme.utexas.edu
    PSIDATADIR: /home/liuchw/anaconda3/envs/psi4env/share/psi4
    Memory:     500.0 MiB
    Threads:    8
    
  ==> Input File <==

--------------------------------------------------------------------------
#Generated by lconvert.py for cbs job

memory 20 GB

molecule  {
0 1
  C      -3.228950   -0.562410    0.903880
  O      -1.614570    1.539640    0.825440
  S      -2.022170    0.445430    1.779810
  C      -0.684770   -0.757880    1.728830
  H      -3.489850   -1.426690    1.511490
  H      -4.097340    0.069480    0.736340
  H      -2.798720   -0.860590   -0.050250
  H      -0.966690   -1.647620    2.288310
  H      -0.479520   -0.990640    0.685940
  H       0.182770   -0.287970    2.183830
--
0 1
  O      -4.619800    2.561780   -0.442800
  H      -3.688600    2.489490   -0.180490
  H      -4.761650    3.503560   -0.546770
units angstrom
no_reorient
symmetry c1
}

set {
scf_type DF
mp2_type DF
e_convergence 7
reference rhf
}

energy('mp2/aug-cc-pv[tq]z', bsse_type='cp')
--------------------------------------------------------------------------

  Memory set to  18.626 GiB by Python driver.

Scratch directory: /scratch/liuchw/


   ===> N-Body Interaction Abacus <===
        BSSE Treatment:                     cp
        Number of 1-body computations:     4
        Number of 2-body computations:     1

   ==> N-Body: Now computing 1-body complexes <==


       N-Body: Computing complex (1/4) with fragments (2,) in the basis of fragments (2,).


Scratch directory: /scratch/liuchw/

  //>>>>>>>>>>>>>>>>>>>>>>>>>>>>>>>>>>>//
  //   CBS Setup: mp2/aug-cc-pv[tq]z   //
  //<<<<<<<<<<<<<<<<<<<<<<<<<<<<<<<<<<<//

    Naive listing of computations required.
             hf / aug-cc-pvqz              for  HF TOTAL ENERGY
            mp2 / aug-cc-pvtz              for  MP2 TOTAL ENERGY
            mp2 / aug-cc-pvqz              for  MP2 TOTAL ENERGY
             hf / aug-cc-pvtz              for  HF TOTAL ENERGY
             hf / aug-cc-pvqz              for  HF TOTAL ENERGY

    Enlightened listing of computations required.
            mp2 / aug-cc-pvtz              for  MP2 TOTAL ENERGY
            mp2 / aug-cc-pvqz              for  MP2 TOTAL ENERGY

    Full listing of computations to be obtained (required and bonus).
             hf / aug-cc-pvtz              for  HF TOTAL ENERGY
            mp2 / aug-cc-pvtz              for  MP2 TOTAL ENERGY
             hf / aug-cc-pvqz              for  HF TOTAL ENERGY
            mp2 / aug-cc-pvqz              for  MP2 TOTAL ENERGY

  //>>>>>>>>>>>>>>>>>>>>>>>>>>>>>>>>>>>>//
  // CBS Computation: MP2 / AUG-CC-PVTZ //
  //<<<<<<<<<<<<<<<<<<<<<<<<<<<<<<<<<<<<//


Scratch directory: /scratch/liuchw/

*** tstart() called on node84.bme.utexas.edu
*** at Thu Apr 23 18:44:27 2020

   => Loading Basis Set <=

    Name: AUG-CC-PVTZ
    Role: ORBITAL
    Keyword: BASIS
    atoms 1   entry O          line   331 file /home/liuchw/anaconda3/envs/psi4env/share/psi4/basis/aug-cc-pvtz.gbs 
    atoms 2-3 entry H          line    40 file /home/liuchw/anaconda3/envs/psi4env/share/psi4/basis/aug-cc-pvtz.gbs 


         ---------------------------------------------------------
                                   SCF
               by Justin Turney, Rob Parrish, Andy Simmonett
                          and Daniel G. A. Smith
                              RHF Reference
                        8 Threads,  19073 MiB Core
         ---------------------------------------------------------

  ==> Geometry <==

    Molecular point group: c1
    Full point group: C1

    Geometry (in Angstrom), charge = 0, multiplicity = 1:

       Center              X                  Y                   Z               Mass       
    ------------   -----------------  -----------------  -----------------  -----------------
         O           -2.207991582126     1.886375644470    -1.497710911927    15.994914619570
         H           -1.276791582126     1.814085644470    -1.235400911927     1.007825032230
         H           -2.349841582126     2.828155644470    -1.601680911927     1.007825032230

  Running in c1 symmetry.

  Rotational constants: A =     24.54156  B =      0.08741  C =      0.08715 [cm^-1]
  Rotational constants: A = 735737.56242  B =   2620.52275  C =   2612.78230 [MHz]
  Nuclear repulsion =    9.130343927711897

  Charge       = 0
  Multiplicity = 1
  Electrons    = 10
  Nalpha       = 5
  Nbeta        = 5

  ==> Algorithm <==

  SCF Algorithm Type is DF.
  DIIS enabled.
  MOM disabled.
  Fractional occupation disabled.
  Guess Type is SAD.
  Energy threshold   = 1.00e-07
  Density threshold  = 1.00e-08
  Integral threshold = 0.00e+00

  ==> Primary Basis <==

  Basis Set: AUG-CC-PVTZ
    Blend: AUG-CC-PVTZ
    Number of shells: 32
    Number of basis function: 92
    Number of Cartesian functions: 105
    Spherical Harmonics?: true
    Max angular momentum: 3

   => Loading Basis Set <=

    Name: (AUG-CC-PVTZ AUX)
    Role: JKFIT
    Keyword: DF_BASIS_SCF
    atoms 1   entry O          line   286 file /home/liuchw/anaconda3/envs/psi4env/share/psi4/basis/aug-cc-pvtz-jkfit.gbs 
    atoms 2-3 entry H          line    70 file /home/liuchw/anaconda3/envs/psi4env/share/psi4/basis/aug-cc-pvtz-jkfit.gbs 

  ==> Pre-Iterations <==

   -------------------------------------------------------
    Irrep   Nso     Nmo     Nalpha   Nbeta   Ndocc  Nsocc
   -------------------------------------------------------
     A         92      92       0       0       0       0
   -------------------------------------------------------
    Total      92      92       5       5       5       0
   -------------------------------------------------------

  ==> Integral Setup <==

  DFHelper Memory: AOs need 0.015 GiB; user supplied 13.970 GiB. Using in-core AOs.

  ==> MemDFJK: Density-Fitted J/K Matrices <==

    J tasked:                   Yes
    K tasked:                   Yes
    wK tasked:                   No
    OpenMP threads:               8
    Memory [MiB]:             14305
    Algorithm:                 Core
    Schwarz Cutoff:           1E-12
    Mask sparsity (%):       0.0000
    Fitting Condition:        1E-10

   => Auxiliary Basis Set <=

  Basis Set: (AUG-CC-PVTZ AUX)
    Blend: AUG-CC-PVTZ-JKFIT
    Number of shells: 58
    Number of basis function: 196
    Number of Cartesian functions: 241
    Spherical Harmonics?: true
    Max angular momentum: 4

  Minimum eigenvalue in the overlap matrix is 3.8974555939E-04.
  Using Symmetric Orthogonalization.

  SCF Guess: Superposition of Atomic Densities via on-the-fly atomic UHF.

  ==> Iterations <==

                           Total Energy        Delta E     RMS |[F,P]|

   @DF-RHF iter SAD:   -75.47046125061132   -7.54705e+01   0.00000e+00 
   @DF-RHF iter   1:   -75.97539485129603   -5.04934e-01   5.08793e-03 DIIS
   @DF-RHF iter   2:   -76.02774648267568   -5.23516e-02   3.48700e-03 DIIS
   @DF-RHF iter   3:   -76.05955308839104   -3.18066e-02   2.37100e-04 DIIS
   @DF-RHF iter   4:   -76.05994851111097   -3.95423e-04   5.73478e-05 DIIS
   @DF-RHF iter   5:   -76.05997381474607   -2.53036e-05   1.30832e-05 DIIS
   @DF-RHF iter   6:   -76.05997590157614   -2.08683e-06   2.86873e-06 DIIS
   @DF-RHF iter   7:   -76.05997601162599   -1.10050e-07   5.14633e-07 DIIS
   @DF-RHF iter   8:   -76.05997601472998   -3.10399e-09   8.67543e-08 DIIS
   @DF-RHF iter   9:   -76.05997601479936   -6.93774e-11   2.15078e-08 DIIS
   @DF-RHF iter  10:   -76.05997601480348   -4.12115e-12   3.17372e-09 DIIS
  Energy and wave function converged.


  ==> Post-Iterations <==

    Orbital Energies [Eh]
    ---------------------

    Doubly Occupied:                                                      

       1A    -20.568555     2A     -1.350368     3A     -0.713438  
       4A     -0.584301     5A     -0.509902  

    Virtual:                                                              

       6A      0.029327     7A      0.047679     8A      0.135871  
       9A      0.158909    10A      0.175035    11A      0.183075  
      12A      0.226870    13A      0.244791    14A      0.265367  
      15A      0.299941    16A      0.310070    17A      0.365676  
      18A      0.436687    19A      0.465592    20A      0.599061  
      21A      0.658161    22A      0.707924    23A      0.722709  
      24A      0.731845    25A      0.829582    26A      0.846043  
      27A      0.892704    28A      0.911908    29A      0.918746  
      30A      0.922083    31A      0.930482    32A      0.961350  
      33A      1.019479    34A      1.042511    35A      1.082203  
      36A      1.107888    37A      1.175536    38A      1.180781  
      39A      1.262161    40A      1.509137    41A      1.536055  
      42A      1.581302    43A      1.806448    44A      1.817645  
      45A      1.979923    46A      2.115095    47A      2.262497  
      48A      2.315297    49A      2.327299    50A      2.417769  
      51A      2.420213    52A      2.442597    53A      2.480807  
      54A      2.679832    55A      2.699058    56A      2.767744  
      57A      2.815659    58A      2.882468    59A      3.646794  
      60A      3.738057    61A      4.015605    62A      4.079947  
      63A      4.162892    64A      4.243290    65A      4.286863  
      66A      4.374917    67A      4.376000    68A      4.402283  
      69A      4.514729    70A      4.720495    71A      4.833666  
      72A      5.140722    73A      5.140841    74A      5.245304  
      75A      5.313434    76A      5.513428    77A      5.659177  
      78A      6.173603    79A      6.517628    80A      6.713541  
      81A      6.895704    82A      7.132257    83A      7.253836  
      84A      7.296303    85A      7.311624    86A      7.334638  
      87A      7.360452    88A      7.526781    89A      7.893829  
      90A      7.919132    91A      8.789222    92A     15.624160  

    Final Occupation by Irrep:
              A 
    DOCC [     5 ]

  @DF-RHF Final Energy:   -76.05997601480348

   => Energetics <=

    Nuclear Repulsion Energy =              9.1303439277118965
    One-Electron Energy =                -122.9275135385440478
    Two-Electron Energy =                  37.7371935960286891
    Total Energy =                        -76.0599760148034676

Computation Completed


Properties will be evaluated at   0.000000,   0.000000,   0.000000 [a0]

Properties computed using the SCF density matrix

  Nuclear Dipole Moment: [e a0]
     X:   -40.2333      Y:    37.2904      Z:   -28.0034

  Electronic Dipole Moment: [e a0]
     X:    40.7545      Y:   -36.7134      Z:    28.1077

  Dipole Moment: [e a0]
     X:     0.5211      Y:     0.5771      Z:     0.1043     Total:     0.7845

  Dipole Moment: [D]
     X:     1.3245      Y:     1.4668      Z:     0.2652     Total:     1.9940


*** tstop() called on node84.bme.utexas.edu at Thu Apr 23 18:44:28 2020
Module time:
	user time   =       7.77 seconds =       0.13 minutes
	system time =       0.28 seconds =       0.00 minutes
	total time  =          1 seconds =       0.02 minutes
Total time:
	user time   =       7.77 seconds =       0.13 minutes
	system time =       0.28 seconds =       0.00 minutes
	total time  =          1 seconds =       0.02 minutes

*** tstart() called on node84.bme.utexas.edu
*** at Thu Apr 23 18:44:28 2020


  //>>>>>>>>>>>>>>>>>>>>>>>>>>>>>>>>>>>//
  //               DFMP2               //
  //<<<<<<<<<<<<<<<<<<<<<<<<<<<<<<<<<<<//

   => Loading Basis Set <=

    Name: (AUG-CC-PVTZ AUX)
    Role: RIFIT
    Keyword: DF_BASIS_MP2
    atoms 1   entry O          line   264 file /home/liuchw/anaconda3/envs/psi4env/share/psi4/basis/aug-cc-pvtz-ri.gbs 
    atoms 2-3 entry H          line    30 file /home/liuchw/anaconda3/envs/psi4env/share/psi4/basis/aug-cc-pvtz-ri.gbs 

	 --------------------------------------------------------
	                          DF-MP2                         
	      2nd-Order Density-Fitted Moller-Plesset Theory     
	              RMP2 Wavefunction,   8 Threads             
	                                                         
	        Rob Parrish, Justin Turney, Andy Simmonett,      
	           Ed Hohenstein, and C. David Sherrill          
	 --------------------------------------------------------

   => Auxiliary Basis Set <=

  Basis Set: (AUG-CC-PVTZ AUX)
    Blend: AUG-CC-PVTZ-RI
    Number of shells: 56
    Number of basis function: 198
    Number of Cartesian functions: 246
    Spherical Harmonics?: true
    Max angular momentum: 4

	 --------------------------------------------------------
	                 NBF =    92, NAUX =   198
	 --------------------------------------------------------
	   CLASS    FOCC     OCC    AOCC    AVIR     VIR    FVIR
	   PAIRS       0       5       5      87      87       0
	 --------------------------------------------------------

	-----------------------------------------------------------
	 ==================> DF-MP2 Energies <==================== 
	-----------------------------------------------------------
	 Reference Energy          =     -76.0599760148034818 [Eh]
	 Singles Energy            =      -0.0000000000000000 [Eh]
	 Same-Spin Energy          =      -0.0684605330897793 [Eh]
	 Opposite-Spin Energy      =      -0.2155326332353351 [Eh]
	 Correlation Energy        =      -0.2839931663251144 [Eh]
	 Total Energy              =     -76.3439691811285996 [Eh]
	-----------------------------------------------------------
	 ================> DF-SCS-MP2 Energies <================== 
	-----------------------------------------------------------
	 SCS Same-Spin Scale       =       0.3333333333333333 [-]
	 SCS Opposite-Spin Scale   =       1.2000000000000000 [-]
	 SCS Same-Spin Energy      =      -0.0228201776965931 [Eh]
	 SCS Opposite-Spin Energy  =      -0.2586391598824020 [Eh]
	 SCS Correlation Energy    =      -0.2814593375789952 [Eh]
	 SCS Total Energy          =     -76.3414353523824758 [Eh]
	-----------------------------------------------------------


*** tstop() called on node84.bme.utexas.edu at Thu Apr 23 18:44:29 2020
Module time:
	user time   =       3.63 seconds =       0.06 minutes
	system time =       0.15 seconds =       0.00 minutes
	total time  =          1 seconds =       0.02 minutes
Total time:
	user time   =      11.40 seconds =       0.19 minutes
	system time =       0.43 seconds =       0.01 minutes
	total time  =          2 seconds =       0.03 minutes

  //>>>>>>>>>>>>>>>>>>>>>>>>>>>>>>>>>>>>//
  // CBS Computation: MP2 / AUG-CC-PVQZ //
  //<<<<<<<<<<<<<<<<<<<<<<<<<<<<<<<<<<<<//


Scratch directory: /scratch/liuchw/

*** tstart() called on node84.bme.utexas.edu
*** at Thu Apr 23 18:44:29 2020

   => Loading Basis Set <=

    Name: AUG-CC-PVQZ
    Role: ORBITAL
    Keyword: BASIS
    atoms 1   entry O          line   423 file /home/liuchw/anaconda3/envs/psi4env/share/psi4/basis/aug-cc-pvqz.gbs 
    atoms 2-3 entry H          line    40 file /home/liuchw/anaconda3/envs/psi4env/share/psi4/basis/aug-cc-pvqz.gbs 


         ---------------------------------------------------------
                                   SCF
               by Justin Turney, Rob Parrish, Andy Simmonett
                          and Daniel G. A. Smith
                              RHF Reference
                        8 Threads,  19073 MiB Core
         ---------------------------------------------------------

  ==> Geometry <==

    Molecular point group: c1
    Full point group: C1

    Geometry (in Angstrom), charge = 0, multiplicity = 1:

       Center              X                  Y                   Z               Mass       
    ------------   -----------------  -----------------  -----------------  -----------------
         O           -2.207991582126     1.886375644470    -1.497710911927    15.994914619570
         H           -1.276791582126     1.814085644470    -1.235400911927     1.007825032230
         H           -2.349841582126     2.828155644470    -1.601680911927     1.007825032230

  Running in c1 symmetry.

  Rotational constants: A =     24.54156  B =      0.08741  C =      0.08715 [cm^-1]
  Rotational constants: A = 735737.56242  B =   2620.52275  C =   2612.78230 [MHz]
  Nuclear repulsion =    9.130343927711897

  Charge       = 0
  Multiplicity = 1
  Electrons    = 10
  Nalpha       = 5
  Nbeta        = 5

  ==> Algorithm <==

  SCF Algorithm Type is DF.
  DIIS enabled.
  MOM disabled.
  Fractional occupation disabled.
  Guess Type is SAD.
  Energy threshold   = 1.00e-07
  Density threshold  = 1.00e-08
  Integral threshold = 0.00e+00

  ==> Primary Basis <==

  Basis Set: AUG-CC-PVQZ
    Blend: AUG-CC-PVQZ
    Number of shells: 48
    Number of basis function: 172
    Number of Cartesian functions: 215
    Spherical Harmonics?: true
    Max angular momentum: 4

   => Loading Basis Set <=

    Name: (AUG-CC-PVQZ AUX)
    Role: JKFIT
    Keyword: DF_BASIS_SCF
    atoms 1   entry O          line   318 file /home/liuchw/anaconda3/envs/psi4env/share/psi4/basis/aug-cc-pvqz-jkfit.gbs 
    atoms 2-3 entry H          line    70 file /home/liuchw/anaconda3/envs/psi4env/share/psi4/basis/aug-cc-pvqz-jkfit.gbs 

  ==> Pre-Iterations <==

   -------------------------------------------------------
    Irrep   Nso     Nmo     Nalpha   Nbeta   Ndocc  Nsocc
   -------------------------------------------------------
     A        172     172       0       0       0       0
   -------------------------------------------------------
    Total     172     172       5       5       5       0
   -------------------------------------------------------

  ==> Integral Setup <==

  DFHelper Memory: AOs need 0.074 GiB; user supplied 13.970 GiB. Using in-core AOs.

  ==> MemDFJK: Density-Fitted J/K Matrices <==

    J tasked:                   Yes
    K tasked:                   Yes
    wK tasked:                   No
    OpenMP threads:               8
    Memory [MiB]:             14305
    Algorithm:                 Core
    Schwarz Cutoff:           1E-12
    Mask sparsity (%):       0.0000
    Fitting Condition:        1E-10

   => Auxiliary Basis Set <=

  Basis Set: (AUG-CC-PVQZ AUX)
    Blend: AUG-CC-PVQZ-JKFIT
    Number of shells: 70
    Number of basis function: 294
    Number of Cartesian functions: 400
    Spherical Harmonics?: true
    Max angular momentum: 5

  Minimum eigenvalue in the overlap matrix is 8.8340059271E-05.
  Using Symmetric Orthogonalization.

  SCF Guess: Superposition of Atomic Densities via on-the-fly atomic UHF.

  ==> Iterations <==

                           Total Energy        Delta E     RMS |[F,P]|

   @DF-RHF iter SAD:   -75.47559598019377   -7.54756e+01   0.00000e+00 
   @DF-RHF iter   1:   -75.98045369602139   -5.04858e-01   2.72735e-03 DIIS
   @DF-RHF iter   2:   -76.03290364631455   -5.24500e-02   1.87331e-03 DIIS
   @DF-RHF iter   3:   -76.06490922365711   -3.20056e-02   1.27787e-04 DIIS
   @DF-RHF iter   4:   -76.06530677416845   -3.97551e-04   3.15992e-05 DIIS
   @DF-RHF iter   5:   -76.06533300856753   -2.62344e-05   7.18335e-06 DIIS
   @DF-RHF iter   6:   -76.06533518076584   -2.17220e-06   1.61873e-06 DIIS
   @DF-RHF iter   7:   -76.06533530284035   -1.22075e-07   3.00251e-07 DIIS
   @DF-RHF iter   8:   -76.06533530652014   -3.67979e-09   4.86300e-08 DIIS
   @DF-RHF iter   9:   -76.06533530659884   -7.86997e-11   1.17741e-08 DIIS
   @DF-RHF iter  10:   -76.06533530660305   -4.20641e-12   1.77257e-09 DIIS
  Energy and wave function converged.


  ==> Post-Iterations <==

    Orbital Energies [Eh]
    ---------------------

    Doubly Occupied:                                                      

       1A    -20.566095     2A     -1.349636     3A     -0.713403  
       4A     -0.584348     5A     -0.510036  

    Virtual:                                                              

       6A      0.026853     7A      0.043076     8A      0.114112  
       9A      0.133620    10A      0.150984    11A      0.158640  
      12A      0.184830    13A      0.196967    14A      0.209255  
      15A      0.237390    16A      0.257122    17A      0.291413  
      18A      0.356840    19A      0.389304    20A      0.469722  
      21A      0.508514    22A      0.542062    23A      0.547311  
      24A      0.556282    25A      0.614090    26A      0.632840  
      27A      0.647286    28A      0.663468    29A      0.666230  
      30A      0.685009    31A      0.706546    32A      0.718278  
      33A      0.769301    34A      0.786807    35A      0.801902  
      36A      0.802757    37A      0.843537    38A      0.854518  
      39A      0.968699    40A      1.124832    41A      1.135752  
      42A      1.207736    43A      1.331395    44A      1.436835  
      45A      1.480505    46A      1.509060    47A      1.511871  
      48A      1.527092    49A      1.553969    50A      1.591886  
      51A      1.619924    52A      1.636042    53A      1.662981  
      54A      1.664356    55A      1.689511    56A      1.702812  
      57A      1.735102    58A      1.753190    59A      1.767575  
      60A      1.776284    61A      1.840713    62A      1.865319  
      63A      1.892563    64A      1.913886    65A      1.978473  
      66A      2.009794    67A      2.034263    68A      2.038362  
      69A      2.101797    70A      2.206426    71A      2.217775  
      72A      2.311237    73A      2.438724    74A      2.622884  
      75A      2.628066    76A      2.882146    77A      2.952992  
      78A      2.993415    79A      3.038263    80A      3.053342  
      81A      3.082536    82A      3.267553    83A      3.292489  
      84A      3.305008    85A      3.490907    86A      3.588556  
      87A      3.641753    88A      3.687300    89A      3.716160  
      90A      3.768445    91A      3.924054    92A      4.077838  
      93A      4.166157    94A      4.169501    95A      4.177803  
      96A      4.179952    97A      4.236914    98A      4.328118  
      99A      4.432741   100A      4.573984   101A      4.714215  
     102A      4.743348   103A      4.779879   104A      4.782018  
     105A      4.806787   106A      4.873928   107A      4.994223  
     108A      5.237945   109A      5.313271   110A      5.512796  
     111A      5.520555   112A      5.849546   113A      5.878498  
     114A      6.067307   115A      6.222160   116A      6.823424  
     117A      6.875479   118A      6.876354   119A      6.910207  
     120A      7.714477   121A      7.767290   122A      7.784413  
     123A      7.819274   124A      7.823323   125A      7.896618  
     126A      7.923910   127A      8.017346   128A      8.184916  
     129A      8.193713   130A      8.522616   131A      8.628590  
     132A      8.642665   133A      8.702955   134A      8.770785  
     135A      8.840361   136A      8.988738   137A      9.036185  
     138A      9.202312   139A      9.651837   140A      9.878550  
     141A      9.894981   142A      9.913588   143A      9.985352  
     144A     10.318572   145A     10.442057   146A     10.697728  
     147A     11.012515   148A     11.075752   149A     11.097433  
     150A     11.269428   151A     11.309187   152A     11.409336  
     153A     11.704955   154A     11.788020   155A     11.834035  
     156A     11.983656   157A     12.188663   158A     12.199379  
     159A     12.598055   160A     12.717614   161A     12.806411  
     162A     12.896250   163A     13.181675   164A     13.951301  
     165A     13.998958   166A     14.463409   167A     14.780695  
     168A     14.865489   169A     15.212921   170A     16.808627  
     171A     17.256197   172A     45.452249  

    Final Occupation by Irrep:
              A 
    DOCC [     5 ]

  @DF-RHF Final Energy:   -76.06533530660305

   => Energetics <=

    Nuclear Repulsion Energy =              9.1303439277118965
    One-Electron Energy =                -122.9443240738615941
    Two-Electron Energy =                  37.7486448395466567
    Total Energy =                        -76.0653353066030462

Computation Completed


Properties will be evaluated at   0.000000,   0.000000,   0.000000 [a0]

Properties computed using the SCF density matrix

  Nuclear Dipole Moment: [e a0]
     X:   -40.2333      Y:    37.2904      Z:   -28.0034

  Electronic Dipole Moment: [e a0]
     X:    40.7539      Y:   -36.7140      Z:    28.1076

  Dipole Moment: [e a0]
     X:     0.5206      Y:     0.5764      Z:     0.1042     Total:     0.7837

  Dipole Moment: [D]
     X:     1.3231      Y:     1.4652      Z:     0.2649     Total:     1.9919


*** tstop() called on node84.bme.utexas.edu at Thu Apr 23 18:44:31 2020
Module time:
	user time   =      11.54 seconds =       0.19 minutes
	system time =       0.35 seconds =       0.01 minutes
	total time  =          2 seconds =       0.03 minutes
Total time:
	user time   =      22.98 seconds =       0.38 minutes
	system time =       0.78 seconds =       0.01 minutes
	total time  =          4 seconds =       0.07 minutes

*** tstart() called on node84.bme.utexas.edu
*** at Thu Apr 23 18:44:31 2020


  //>>>>>>>>>>>>>>>>>>>>>>>>>>>>>>>>>>>//
  //               DFMP2               //
  //<<<<<<<<<<<<<<<<<<<<<<<<<<<<<<<<<<<//

   => Loading Basis Set <=

    Name: (AUG-CC-PVQZ AUX)
    Role: RIFIT
    Keyword: DF_BASIS_MP2
    atoms 1   entry O          line   332 file /home/liuchw/anaconda3/envs/psi4env/share/psi4/basis/aug-cc-pvqz-ri.gbs 
    atoms 2-3 entry H          line    30 file /home/liuchw/anaconda3/envs/psi4env/share/psi4/basis/aug-cc-pvqz-ri.gbs 

	 --------------------------------------------------------
	                          DF-MP2                         
	      2nd-Order Density-Fitted Moller-Plesset Theory     
	              RMP2 Wavefunction,   8 Threads             
	                                                         
	        Rob Parrish, Justin Turney, Andy Simmonett,      
	           Ed Hohenstein, and C. David Sherrill          
	 --------------------------------------------------------

   => Auxiliary Basis Set <=

  Basis Set: (AUG-CC-PVQZ AUX)
    Blend: AUG-CC-PVQZ-RI
    Number of shells: 76
    Number of basis function: 328
    Number of Cartesian functions: 447
    Spherical Harmonics?: true
    Max angular momentum: 5

	 --------------------------------------------------------
	                 NBF =   172, NAUX =   328
	 --------------------------------------------------------
	   CLASS    FOCC     OCC    AOCC    AVIR     VIR    FVIR
	   PAIRS       0       5       5     167     167       0
	 --------------------------------------------------------

	-----------------------------------------------------------
	 ==================> DF-MP2 Energies <==================== 
	-----------------------------------------------------------
	 Reference Energy          =     -76.0653353066030462 [Eh]
	 Singles Energy            =      -0.0000000000000000 [Eh]
	 Same-Spin Energy          =      -0.0727816833630001 [Eh]
	 Opposite-Spin Energy      =      -0.2444799194751742 [Eh]
	 Correlation Energy        =      -0.3172616028381744 [Eh]
	 Total Energy              =     -76.3825969094412187 [Eh]
	-----------------------------------------------------------
	 ================> DF-SCS-MP2 Energies <================== 
	-----------------------------------------------------------
	 SCS Same-Spin Scale       =       0.3333333333333333 [-]
	 SCS Opposite-Spin Scale   =       1.2000000000000000 [-]
	 SCS Same-Spin Energy      =      -0.0242605611210000 [Eh]
	 SCS Opposite-Spin Energy  =      -0.2933759033702091 [Eh]
	 SCS Correlation Energy    =      -0.3176364644912091 [Eh]
	 SCS Total Energy          =     -76.3829717710942617 [Eh]
	-----------------------------------------------------------


*** tstop() called on node84.bme.utexas.edu at Thu Apr 23 18:44:31 2020
Module time:
	user time   =       4.57 seconds =       0.08 minutes
	system time =       0.16 seconds =       0.00 minutes
	total time  =          0 seconds =       0.00 minutes
Total time:
	user time   =      27.56 seconds =       0.46 minutes
	system time =       0.95 seconds =       0.02 minutes
	total time  =          4 seconds =       0.07 minutes

  //>>>>>>>>>>>>>>>>>>>>>>>>>>>>>>>>>>>//
  //  CBS Results: mp2/aug-cc-pv[tq]z  //
  //<<<<<<<<<<<<<<<<<<<<<<<<<<<<<<<<<<<//


   ==> HF <==

   HI-zeta (4) Energy:               -76.065335306603


   ==> Helgaker 2-point correlated extrapolation for method: MP2 <==

   LO-zeta (3) Energy:               -76.343969181129
   HI-zeta (4) Energy:               -76.382596909441
   Alpha (exponent) Value:             3.000000000000
   Extrapolated Energy:              -76.410784711183

   @Extrapolated MP2/(T,Q):          -76.410784711183



   ==> Helgaker 2-point correlated extrapolation for method: HF <==

   LO-zeta (3) Energy:               -76.059976014803
   HI-zeta (4) Energy:               -76.065335306603
   Alpha (exponent) Value:             3.000000000000
   Extrapolated Energy:              -76.069246141159

   @Extrapolated HF/(T,Q):           -76.069246141159


   ==> Components <==

  ---------------------------------------------------------------------------------------------------------
                          Method / Basis                      Rqd      Energy [Eh]   Variable
  ---------------------------------------------------------------------------------------------------------
                              hf / aug-cc-pvtz                  *     -76.05997601   HF TOTAL ENERGY
                             mp2 / aug-cc-pvtz                  *     -76.34396918   MP2 TOTAL ENERGY
                              hf / aug-cc-pvqz                  *     -76.06533531   HF TOTAL ENERGY
                             mp2 / aug-cc-pvqz                  *     -76.38259691   MP2 TOTAL ENERGY
  ---------------------------------------------------------------------------------------------------------

   ==> Stages <==

  ---------------------------------------------------------------------------------------------------------
      Stage               Method / Basis                       Wt      Energy [Eh]   Scheme
  ---------------------------------------------------------------------------------------------------------
        scf                   hf / aug-cc-pvqz                  1     -76.06533531   xtpl_highest_1
       corl                  mp2 / aug-cc-pv[tq]z               1     -76.41078471   corl_xtpl_helgaker_2
       corl                   hf / aug-cc-pv[tq]z              -1     -76.06924614   corl_xtpl_helgaker_2
  ---------------------------------------------------------------------------------------------------------

   ==> CBS <==

  ---------------------------------------------------------------------------------------------------------
      Stage               Method / Basis                               Energy [Eh]   Scheme
  ---------------------------------------------------------------------------------------------------------
        scf                   hf / aug-cc-pvqz                        -76.06533531   xtpl_highest_1
       corl                  mp2 / aug-cc-pv[tq]z                      -0.34153857   corl_xtpl_helgaker_2
      total                  CBS                                      -76.40687388   
  ---------------------------------------------------------------------------------------------------------
   => Loading Basis Set <=

    Name: DEF2-SVP
    Role: ORBITAL
    Keyword: BASIS
    atoms 1   entry O          line   130 file /home/liuchw/anaconda3/envs/psi4env/share/psi4/basis/def2-svp.gbs 
    atoms 2-3 entry H          line    15 file /home/liuchw/anaconda3/envs/psi4env/share/psi4/basis/def2-svp.gbs 


       N-Body: Complex Energy (fragments = (2,), basis = (2,):   -76.40687387662639)

       N-Body: Computing complex (2/4) with fragments (2,) in the basis of fragments (1, 2).


Scratch directory: /scratch/liuchw/

  //>>>>>>>>>>>>>>>>>>>>>>>>>>>>>>>>>>>//
  //   CBS Setup: mp2/aug-cc-pv[tq]z   //
  //<<<<<<<<<<<<<<<<<<<<<<<<<<<<<<<<<<<//

    Naive listing of computations required.
             hf / aug-cc-pvqz              for  HF TOTAL ENERGY
            mp2 / aug-cc-pvtz              for  MP2 TOTAL ENERGY
            mp2 / aug-cc-pvqz              for  MP2 TOTAL ENERGY
             hf / aug-cc-pvtz              for  HF TOTAL ENERGY
             hf / aug-cc-pvqz              for  HF TOTAL ENERGY

    Enlightened listing of computations required.
            mp2 / aug-cc-pvtz              for  MP2 TOTAL ENERGY
            mp2 / aug-cc-pvqz              for  MP2 TOTAL ENERGY

    Full listing of computations to be obtained (required and bonus).
             hf / aug-cc-pvtz              for  HF TOTAL ENERGY
            mp2 / aug-cc-pvtz              for  MP2 TOTAL ENERGY
             hf / aug-cc-pvqz              for  HF TOTAL ENERGY
            mp2 / aug-cc-pvqz              for  MP2 TOTAL ENERGY

  //>>>>>>>>>>>>>>>>>>>>>>>>>>>>>>>>>>>>//
  // CBS Computation: MP2 / AUG-CC-PVTZ //
  //<<<<<<<<<<<<<<<<<<<<<<<<<<<<<<<<<<<<//


Scratch directory: /scratch/liuchw/

*** tstart() called on node84.bme.utexas.edu
*** at Thu Apr 23 18:44:33 2020

   => Loading Basis Set <=

    Name: AUG-CC-PVTZ
    Role: ORBITAL
    Keyword: BASIS
    atoms 1, 4        entry C          line   239 file /home/liuchw/anaconda3/envs/psi4env/share/psi4/basis/aug-cc-pvtz.gbs 
    atoms 2, 11       entry O          line   331 file /home/liuchw/anaconda3/envs/psi4env/share/psi4/basis/aug-cc-pvtz.gbs 
    atoms 3           entry S          line   906 file /home/liuchw/anaconda3/envs/psi4env/share/psi4/basis/aug-cc-pvtz.gbs 
    atoms 5-10, 12-13 entry H          line    40 file /home/liuchw/anaconda3/envs/psi4env/share/psi4/basis/aug-cc-pvtz.gbs 


         ---------------------------------------------------------
                                   SCF
               by Justin Turney, Rob Parrish, Andy Simmonett
                          and Daniel G. A. Smith
                              RHF Reference
                        8 Threads,  19073 MiB Core
         ---------------------------------------------------------

  ==> Geometry <==

    Molecular point group: c1
    Full point group: C1

    Geometry (in Angstrom), charge = 0, multiplicity = 1:

       Center              X                  Y                   Z               Mass       
    ------------   -----------------  -----------------  -----------------  -----------------
      Gh(C)          -0.817141582126    -1.237814355530    -0.151030911927    12.000000000000
      Gh(O)           0.797238417874     0.864235644470    -0.229470911927    15.994914619570
      Gh(S)           0.389638417874    -0.229974355530     0.724899088073    31.972071174400
      Gh(C)           1.727038417874    -1.433284355530     0.673919088073    12.000000000000
      Gh(H)          -1.078041582126    -2.102094355530     0.456579088073     1.007825032230
      Gh(H)          -1.685531582126    -0.605924355530    -0.318570911927     1.007825032230
      Gh(H)          -0.386911582126    -1.535994355530    -1.105160911927     1.007825032230
      Gh(H)           1.445118417874    -2.323024355530     1.233399088073     1.007825032230
      Gh(H)           1.932288417874    -1.666044355530    -0.368970911927     1.007825032230
      Gh(H)           2.594578417874    -0.963374355530     1.128919088073     1.007825032230
         O           -2.207991582126     1.886375644470    -1.497710911927    15.994914619570
         H           -1.276791582126     1.814085644470    -1.235400911927     1.007825032230
         H           -2.349841582126     2.828155644470    -1.601680911927     1.007825032230

  Running in c1 symmetry.

  Rotational constants: A =      0.22758  B =      0.05444  C =      0.04730 [cm^-1]
  Rotational constants: A =   6822.55565  B =   1631.94719  C =   1418.15535 [MHz]
  Nuclear repulsion =    9.130343927711897

  Charge       = 0
  Multiplicity = 1
  Electrons    = 10
  Nalpha       = 5
  Nbeta        = 5

  ==> Algorithm <==

  SCF Algorithm Type is DF.
  DIIS enabled.
  MOM disabled.
  Fractional occupation disabled.
  Guess Type is SAD.
  Energy threshold   = 1.00e-07
  Density threshold  = 1.00e-08
  Integral threshold = 0.00e+00

  ==> Primary Basis <==

  Basis Set: AUG-CC-PVTZ
    Blend: AUG-CC-PVTZ
    Number of shells: 144
    Number of basis function: 418
    Number of Cartesian functions: 479
    Spherical Harmonics?: true
    Max angular momentum: 3

   => Loading Basis Set <=

    Name: (AUG-CC-PVTZ AUX)
    Role: JKFIT
    Keyword: DF_BASIS_SCF
    atoms 1, 4        entry C          line   162 file /home/liuchw/anaconda3/envs/psi4env/share/psi4/basis/aug-cc-pvtz-jkfit.gbs 
    atoms 2, 11       entry O          line   286 file /home/liuchw/anaconda3/envs/psi4env/share/psi4/basis/aug-cc-pvtz-jkfit.gbs 
    atoms 3           entry S          line   730 file /home/liuchw/anaconda3/envs/psi4env/share/psi4/basis/aug-cc-pvtz-jkfit.gbs 
    atoms 5-10, 12-13 entry H          line    70 file /home/liuchw/anaconda3/envs/psi4env/share/psi4/basis/aug-cc-pvtz-jkfit.gbs 

  ==> Pre-Iterations <==

   -------------------------------------------------------
    Irrep   Nso     Nmo     Nalpha   Nbeta   Ndocc  Nsocc
   -------------------------------------------------------
     A        418     418       0       0       0       0
   -------------------------------------------------------
    Total     418     418       5       5       5       0
   -------------------------------------------------------

  ==> Integral Setup <==

  DFHelper Memory: AOs need 1.199 GiB; user supplied 13.970 GiB. Using in-core AOs.

  ==> MemDFJK: Density-Fitted J/K Matrices <==

    J tasked:                   Yes
    K tasked:                   Yes
    wK tasked:                   No
    OpenMP threads:               8
    Memory [MiB]:             14305
    Algorithm:                 Core
    Schwarz Cutoff:           1E-12
    Mask sparsity (%):       5.2883
    Fitting Condition:        1E-10

   => Auxiliary Basis Set <=

  Basis Set: (AUG-CC-PVTZ AUX)
    Blend: AUG-CC-PVTZ-JKFIT
    Number of shells: 274
    Number of basis function: 930
    Number of Cartesian functions: 1144
    Spherical Harmonics?: true
    Max angular momentum: 4

  Minimum eigenvalue in the overlap matrix is 1.6988963379E-05.
  Using Symmetric Orthogonalization.

  SCF Guess: Superposition of Atomic Densities via on-the-fly atomic UHF.

  ==> Iterations <==

                           Total Energy        Delta E     RMS |[F,P]|

   @DF-RHF iter SAD:   -75.47046123155870   -7.54705e+01   0.00000e+00 
   @DF-RHF iter   1:   -75.97543005946014   -5.04969e-01   1.11992e-03 DIIS
   @DF-RHF iter   2:   -76.02779042421861   -5.23604e-02   7.67611e-04 DIIS
   @DF-RHF iter   3:   -76.05960267794650   -3.18123e-02   5.21937e-05 DIIS
   @DF-RHF iter   4:   -76.05999821634600   -3.95538e-04   1.26281e-05 DIIS
   @DF-RHF iter   5:   -76.06002354575833   -2.53294e-05   2.88139e-06 DIIS
   @DF-RHF iter   6:   -76.06002563587828   -2.09012e-06   6.32228e-07 DIIS
   @DF-RHF iter   7:   -76.06002574634584   -1.10468e-07   1.13666e-07 DIIS
   @DF-RHF iter   8:   -76.06002574947516   -3.12932e-09   1.91441e-08 DIIS
   @DF-RHF iter   9:   -76.06002574954491   -6.97469e-11   4.74692e-09 DIIS
  Energy and wave function converged.


  ==> Post-Iterations <==

    Orbital Energies [Eh]
    ---------------------

    Doubly Occupied:                                                      

       1A    -20.568525     2A     -1.350333     3A     -0.713410  
       4A     -0.584272     5A     -0.509881  

    Virtual:                                                              

       6A      0.018703     7A      0.032745     8A      0.038513  
       9A      0.043368    10A      0.052033    11A      0.060715  
      12A      0.066858    13A      0.072019    14A      0.081772  
      15A      0.089457    16A      0.101647    17A      0.105973  
      18A      0.114067    19A      0.125177    20A      0.132136  
      21A      0.136990    22A      0.143653    23A      0.148017  
      24A      0.162932    25A      0.167980    26A      0.180608  
      27A      0.182849    28A      0.191874    29A      0.201740  
      30A      0.208030    31A      0.212216    32A      0.224753  
      33A      0.232887    34A      0.240411    35A      0.253745  
      36A      0.265233    37A      0.279215    38A      0.289009  
      39A      0.291859    40A      0.302031    41A      0.307034  
      42A      0.308102    43A      0.322063    44A      0.324823  
      45A      0.330171    46A      0.337811    47A      0.346351  
      48A      0.353754    49A      0.361331    50A      0.368601  
      51A      0.372371    52A      0.377439    53A      0.387153  
      54A      0.392461    55A      0.398885    56A      0.408059  
      57A      0.424124    58A      0.428777    59A      0.438309  
      60A      0.451368    61A      0.453535    62A      0.458897  
      63A      0.463782    64A      0.473366    65A      0.480552  
      66A      0.497272    67A      0.500868    68A      0.515466  
      69A      0.517168    70A      0.521913    71A      0.535234  
      72A      0.542990    73A      0.556290    74A      0.571164  
      75A      0.575166    76A      0.578823    77A      0.586899  
      78A      0.602432    79A      0.611772    80A      0.621355  
      81A      0.629647    82A      0.631797    83A      0.644589  
      84A      0.664006    85A      0.674835    86A      0.684407  
      87A      0.697983    88A      0.704375    89A      0.711712  
      90A      0.725607    91A      0.738403    92A      0.742422  
      93A      0.755859    94A      0.757540    95A      0.770278  
      96A      0.780480    97A      0.798264    98A      0.803826  
      99A      0.825084   100A      0.864060   101A      0.879353  
     102A      0.892960   103A      0.915312   104A      0.917378  
     105A      0.929897   106A      0.937187   107A      0.949457  
     108A      0.965927   109A      0.967901   110A      0.978354  
     111A      0.992584   112A      0.996199   113A      1.004580  
     114A      1.014451   115A      1.018308   116A      1.024324  
     117A      1.029042   118A      1.036332   119A      1.053006  
     120A      1.056260   121A      1.074064   122A      1.076399  
     123A      1.079957   124A      1.090726   125A      1.102862  
     126A      1.107120   127A      1.113904   128A      1.122283  
     129A      1.127281   130A      1.134721   131A      1.145452  
     132A      1.150901   133A      1.165067   134A      1.177026  
     135A      1.181507   136A      1.191579   137A      1.198101  
     138A      1.206819   139A      1.214874   140A      1.219101  
     141A      1.234023   142A      1.249630   143A      1.251593  
     144A      1.263872   145A      1.266210   146A      1.275052  
     147A      1.286107   148A      1.286680   149A      1.305446  
     150A      1.318793   151A      1.330450   152A      1.338294  
     153A      1.346799   154A      1.358660   155A      1.363503  
     156A      1.384784   157A      1.391042   158A      1.407874  
     159A      1.417004   160A      1.429660   161A      1.445845  
     162A      1.456283   163A      1.471559   164A      1.483672  
     165A      1.501163   166A      1.505731   167A      1.514592  
     168A      1.535336   169A      1.540821   170A      1.566689  
     171A      1.589155   172A      1.601010   173A      1.605165  
     174A      1.628580   175A      1.638693   176A      1.655182  
     177A      1.674348   178A      1.681304   179A      1.695347  
     180A      1.716327   181A      1.722122   182A      1.760365  
     183A      1.773876   184A      1.807115   185A      1.832228  
     186A      1.833599   187A      1.871586   188A      1.877932  
     189A      1.908447   190A      1.921480   191A      1.926986  
     192A      1.941845   193A      1.942710   194A      1.967856  
     195A      1.982256   196A      1.996431   197A      2.000923  
     198A      2.009539   199A      2.049526   200A      2.063869  
     201A      2.065057   202A      2.080345   203A      2.094366  
     204A      2.122707   205A      2.139362   206A      2.145299  
     207A      2.174785   208A      2.181497   209A      2.197642  
     210A      2.259356   211A      2.279278   212A      2.324854  
     213A      2.332511   214A      2.354027   215A      2.383550  
     216A      2.402706   217A      2.418616   218A      2.438596  
     219A      2.449074   220A      2.451569   221A      2.458375  
     222A      2.470130   223A      2.475494   224A      2.502000  
     225A      2.504381   226A      2.522007   227A      2.533366  
     228A      2.550709   229A      2.569086   230A      2.575738  
     231A      2.589898   232A      2.608743   233A      2.620209  
     234A      2.650952   235A      2.713082   236A      2.727162  
     237A      2.749775   238A      2.752887   239A      2.768537  
     240A      2.838893   241A      2.852235   242A      2.861977  
     243A      2.882761   244A      2.897884   245A      2.911675  
     246A      2.925844   247A      2.940048   248A      2.975265  
     249A      2.994356   250A      3.006379   251A      3.018970  
     252A      3.032557   253A      3.099687   254A      3.137157  
     255A      3.195248   256A      3.253065   257A      3.301244  
     258A      3.377235   259A      3.508266   260A      3.525161  
     261A      3.610077   262A      3.620311   263A      3.748240  
     264A      3.813941   265A      3.844499   266A      3.867377  
     267A      3.891107   268A      3.914237   269A      3.973850  
     270A      4.001464   271A      4.029107   272A      4.071091  
     273A      4.081876   274A      4.118982   275A      4.124919  
     276A      4.138462   277A      4.159888   278A      4.193447  
     279A      4.199593   280A      4.210107   281A      4.228436  
     282A      4.233040   283A      4.241380   284A      4.250457  
     285A      4.259996   286A      4.275185   287A      4.292876  
     288A      4.331825   289A      4.339686   290A      4.378806  
     291A      4.407095   292A      4.419724   293A      4.452555  
     294A      4.461888   295A      4.481854   296A      4.500522  
     297A      4.516879   298A      4.537284   299A      4.563715  
     300A      4.572658   301A      4.598815   302A      4.612598  
     303A      4.633986   304A      4.641639   305A      4.642875  
     306A      4.657522   307A      4.696267   308A      4.730103  
     309A      4.742137   310A      4.767827   311A      4.811227  
     312A      4.836299   313A      4.859051   314A      4.872322  
     315A      4.886848   316A      4.912019   317A      4.927782  
     318A      4.953438   319A      4.958043   320A      4.986224  
     321A      5.030686   322A      5.089021   323A      5.129397  
     324A      5.135571   325A      5.165028   326A      5.172073  
     327A      5.185959   328A      5.278740   329A      5.284373  
     330A      5.295126   331A      5.314556   332A      5.334074  
     333A      5.347614   334A      5.380624   335A      5.393562  
     336A      5.405084   337A      5.423502   338A      5.469633  
     339A      5.489090   340A      5.507555   341A      5.538584  
     342A      5.560667   343A      5.587985   344A      5.603666  
     345A      5.614686   346A      5.685657   347A      5.711767  
     348A      5.729987   349A      5.746367   350A      5.753395  
     351A      5.803599   352A      5.844937   353A      6.072704  
     354A      6.156932   355A      6.173057   356A      6.190978  
     357A      6.223851   358A      6.241367   359A      6.293567  
     360A      6.305645   361A      6.330207   362A      6.360285  
     363A      6.578128   364A      6.658861   365A      6.688348  
     366A      6.717389   367A      6.764591   368A      6.783368  
     369A      6.959924   370A      7.151533   371A      7.202553  
     372A      7.265869   373A      7.310021   374A      7.324661  
     375A      7.327910   376A      7.414228   377A      7.426380  
     378A      7.602000   379A      7.626996   380A      7.650955  
     381A      7.747156   382A      7.771784   383A      7.798475  
     384A      7.811011   385A      7.826791   386A      7.852116  
     387A      7.891698   388A      7.908536   389A      7.931859  
     390A      7.956553   391A      7.978541   392A      8.039925  
     393A      8.092314   394A      8.206595   395A      8.233718  
     396A      8.299370   397A      8.387010   398A      8.827282  
     399A      9.416355   400A      9.852760   401A      9.887459  
     402A     10.097836   403A     10.183130   404A     10.446271  
     405A     10.484939   406A     10.714651   407A     11.597388  
     408A     11.800829   409A     12.826016   410A     16.030981  
     411A     17.192270   412A     24.980397   413A     25.620455  
     414A     25.682691   415A     51.832619   416A     52.130261  
     417A     60.201378   418A    141.839447  

    Final Occupation by Irrep:
              A 
    DOCC [     5 ]

  @DF-RHF Final Energy:   -76.06002574954491

   => Energetics <=

    Nuclear Repulsion Energy =              9.1303439277118965
    One-Electron Energy =                -122.9278932481932145
    Two-Electron Energy =                  37.7375235709364176
    Total Energy =                        -76.0600257495449057

Computation Completed


Properties will be evaluated at   0.000000,   0.000000,   0.000000 [a0]

Properties computed using the SCF density matrix

  Nuclear Dipole Moment: [e a0]
     X:   -40.2333      Y:    37.2904      Z:   -28.0034

  Electronic Dipole Moment: [e a0]
     X:    40.7546      Y:   -36.7134      Z:    28.1077

  Dipole Moment: [e a0]
     X:     0.5213      Y:     0.5770      Z:     0.1043     Total:     0.7846

  Dipole Moment: [D]
     X:     1.3250      Y:     1.4666      Z:     0.2650     Total:     1.9942


*** tstop() called on node84.bme.utexas.edu at Thu Apr 23 18:44:39 2020
Module time:
	user time   =      37.50 seconds =       0.63 minutes
	system time =       0.89 seconds =       0.01 minutes
	total time  =          6 seconds =       0.10 minutes
Total time:
	user time   =      67.29 seconds =       1.12 minutes
	system time =       1.89 seconds =       0.03 minutes
	total time  =         12 seconds =       0.20 minutes

*** tstart() called on node84.bme.utexas.edu
*** at Thu Apr 23 18:44:39 2020


  //>>>>>>>>>>>>>>>>>>>>>>>>>>>>>>>>>>>//
  //               DFMP2               //
  //<<<<<<<<<<<<<<<<<<<<<<<<<<<<<<<<<<<//

   => Loading Basis Set <=

    Name: (AUG-CC-PVTZ AUX)
    Role: RIFIT
    Keyword: DF_BASIS_MP2
    atoms 1, 4        entry C          line   148 file /home/liuchw/anaconda3/envs/psi4env/share/psi4/basis/aug-cc-pvtz-ri.gbs 
    atoms 2, 11       entry O          line   264 file /home/liuchw/anaconda3/envs/psi4env/share/psi4/basis/aug-cc-pvtz-ri.gbs 
    atoms 3           entry S          line   666 file /home/liuchw/anaconda3/envs/psi4env/share/psi4/basis/aug-cc-pvtz-ri.gbs 
    atoms 5-10, 12-13 entry H          line    30 file /home/liuchw/anaconda3/envs/psi4env/share/psi4/basis/aug-cc-pvtz-ri.gbs 

	 --------------------------------------------------------
	                          DF-MP2                         
	      2nd-Order Density-Fitted Moller-Plesset Theory     
	              RMP2 Wavefunction,   8 Threads             
	                                                         
	        Rob Parrish, Justin Turney, Andy Simmonett,      
	           Ed Hohenstein, and C. David Sherrill          
	 --------------------------------------------------------

   => Auxiliary Basis Set <=

  Basis Set: (AUG-CC-PVTZ AUX)
    Blend: AUG-CC-PVTZ-RI
    Number of shells: 261
    Number of basis function: 939
    Number of Cartesian functions: 1175
    Spherical Harmonics?: true
    Max angular momentum: 4

	 --------------------------------------------------------
	                 NBF =   418, NAUX =   939
	 --------------------------------------------------------
	   CLASS    FOCC     OCC    AOCC    AVIR     VIR    FVIR
	   PAIRS       0       5       5     413     413       0
	 --------------------------------------------------------

	-----------------------------------------------------------
	 ==================> DF-MP2 Energies <==================== 
	-----------------------------------------------------------
	 Reference Energy          =     -76.0600257495449057 [Eh]
	 Singles Energy            =      -0.0000000000000000 [Eh]
	 Same-Spin Energy          =      -0.0685056173742956 [Eh]
	 Opposite-Spin Energy      =      -0.2159800825734176 [Eh]
	 Correlation Energy        =      -0.2844856999477132 [Eh]
	 Total Energy              =     -76.3445114494926145 [Eh]
	-----------------------------------------------------------
	 ================> DF-SCS-MP2 Energies <================== 
	-----------------------------------------------------------
	 SCS Same-Spin Scale       =       0.3333333333333333 [-]
	 SCS Opposite-Spin Scale   =       1.2000000000000000 [-]
	 SCS Same-Spin Energy      =      -0.0228352057914319 [Eh]
	 SCS Opposite-Spin Energy  =      -0.2591760990881011 [Eh]
	 SCS Correlation Energy    =      -0.2820113048795330 [Eh]
	 SCS Total Energy          =     -76.3420370544244378 [Eh]
	-----------------------------------------------------------


*** tstop() called on node84.bme.utexas.edu at Thu Apr 23 18:44:42 2020
Module time:
	user time   =      18.43 seconds =       0.31 minutes
	system time =       0.43 seconds =       0.01 minutes
	total time  =          3 seconds =       0.05 minutes
Total time:
	user time   =      85.72 seconds =       1.43 minutes
	system time =       2.32 seconds =       0.04 minutes
	total time  =         15 seconds =       0.25 minutes

  //>>>>>>>>>>>>>>>>>>>>>>>>>>>>>>>>>>>>//
  // CBS Computation: MP2 / AUG-CC-PVQZ //
  //<<<<<<<<<<<<<<<<<<<<<<<<<<<<<<<<<<<<//


Scratch directory: /scratch/liuchw/

*** tstart() called on node84.bme.utexas.edu
*** at Thu Apr 23 18:44:42 2020

   => Loading Basis Set <=

    Name: AUG-CC-PVQZ
    Role: ORBITAL
    Keyword: BASIS
    atoms 1, 4        entry C          line   303 file /home/liuchw/anaconda3/envs/psi4env/share/psi4/basis/aug-cc-pvqz.gbs 
    atoms 2, 11       entry O          line   423 file /home/liuchw/anaconda3/envs/psi4env/share/psi4/basis/aug-cc-pvqz.gbs 
    atoms 3           entry S          line  1126 file /home/liuchw/anaconda3/envs/psi4env/share/psi4/basis/aug-cc-pvqz.gbs 
    atoms 5-10, 12-13 entry H          line    40 file /home/liuchw/anaconda3/envs/psi4env/share/psi4/basis/aug-cc-pvqz.gbs 


         ---------------------------------------------------------
                                   SCF
               by Justin Turney, Rob Parrish, Andy Simmonett
                          and Daniel G. A. Smith
                              RHF Reference
                        8 Threads,  19073 MiB Core
         ---------------------------------------------------------

  ==> Geometry <==

    Molecular point group: c1
    Full point group: C1

    Geometry (in Angstrom), charge = 0, multiplicity = 1:

       Center              X                  Y                   Z               Mass       
    ------------   -----------------  -----------------  -----------------  -----------------
      Gh(C)          -0.817141582126    -1.237814355530    -0.151030911927    12.000000000000
      Gh(O)           0.797238417874     0.864235644470    -0.229470911927    15.994914619570
      Gh(S)           0.389638417874    -0.229974355530     0.724899088073    31.972071174400
      Gh(C)           1.727038417874    -1.433284355530     0.673919088073    12.000000000000
      Gh(H)          -1.078041582126    -2.102094355530     0.456579088073     1.007825032230
      Gh(H)          -1.685531582126    -0.605924355530    -0.318570911927     1.007825032230
      Gh(H)          -0.386911582126    -1.535994355530    -1.105160911927     1.007825032230
      Gh(H)           1.445118417874    -2.323024355530     1.233399088073     1.007825032230
      Gh(H)           1.932288417874    -1.666044355530    -0.368970911927     1.007825032230
      Gh(H)           2.594578417874    -0.963374355530     1.128919088073     1.007825032230
         O           -2.207991582126     1.886375644470    -1.497710911927    15.994914619570
         H           -1.276791582126     1.814085644470    -1.235400911927     1.007825032230
         H           -2.349841582126     2.828155644470    -1.601680911927     1.007825032230

  Running in c1 symmetry.

  Rotational constants: A =      0.22758  B =      0.05444  C =      0.04730 [cm^-1]
  Rotational constants: A =   6822.55565  B =   1631.94719  C =   1418.15535 [MHz]
  Nuclear repulsion =    9.130343927711897

  Charge       = 0
  Multiplicity = 1
  Electrons    = 10
  Nalpha       = 5
  Nbeta        = 5

  ==> Algorithm <==

  SCF Algorithm Type is DF.
  DIIS enabled.
  MOM disabled.
  Fractional occupation disabled.
  Guess Type is SAD.
  Energy threshold   = 1.00e-07
  Density threshold  = 1.00e-08
  Integral threshold = 0.00e+00

  ==> Primary Basis <==

  Basis Set: AUG-CC-PVQZ
    Blend: AUG-CC-PVQZ
    Number of shells: 214
    Number of basis function: 772
    Number of Cartesian functions: 969
    Spherical Harmonics?: true
    Max angular momentum: 4

   => Loading Basis Set <=

    Name: (AUG-CC-PVQZ AUX)
    Role: JKFIT
    Keyword: DF_BASIS_SCF
    atoms 1, 4        entry C          line   178 file /home/liuchw/anaconda3/envs/psi4env/share/psi4/basis/aug-cc-pvqz-jkfit.gbs 
    atoms 2, 11       entry O          line   318 file /home/liuchw/anaconda3/envs/psi4env/share/psi4/basis/aug-cc-pvqz-jkfit.gbs 
    atoms 3           entry S          line   810 file /home/liuchw/anaconda3/envs/psi4env/share/psi4/basis/aug-cc-pvqz-jkfit.gbs 
    atoms 5-10, 12-13 entry H          line    70 file /home/liuchw/anaconda3/envs/psi4env/share/psi4/basis/aug-cc-pvqz-jkfit.gbs 

  ==> Pre-Iterations <==

   -------------------------------------------------------
    Irrep   Nso     Nmo     Nalpha   Nbeta   Ndocc  Nsocc
   -------------------------------------------------------
     A        772     772       0       0       0       0
   -------------------------------------------------------
    Total     772     772       5       5       5       0
   -------------------------------------------------------

  ==> Integral Setup <==

  DFHelper Memory: AOs need 5.657 GiB; user supplied 13.970 GiB. Using in-core AOs.

  ==> MemDFJK: Density-Fitted J/K Matrices <==

    J tasked:                   Yes
    K tasked:                   Yes
    wK tasked:                   No
    OpenMP threads:               8
    Memory [MiB]:             14305
    Algorithm:                 Core
    Schwarz Cutoff:           1E-12
    Mask sparsity (%):       9.5640
    Fitting Condition:        1E-10

   => Auxiliary Basis Set <=

  Basis Set: (AUG-CC-PVQZ AUX)
    Blend: AUG-CC-PVQZ-JKFIT
    Number of shells: 326
    Number of basis function: 1360
    Number of Cartesian functions: 1847
    Spherical Harmonics?: true
    Max angular momentum: 5

  Minimum eigenvalue in the overlap matrix is 4.0342766189E-06.
  Using Symmetric Orthogonalization.

  SCF Guess: Superposition of Atomic Densities via on-the-fly atomic UHF.

  ==> Iterations <==

                           Total Energy        Delta E     RMS |[F,P]|

   @DF-RHF iter SAD:   -75.47559597018865   -7.54756e+01   0.00000e+00 
   @DF-RHF iter   1:   -75.98047062979616   -5.04875e-01   6.07661e-04 DIIS
   @DF-RHF iter   2:   -76.03292344523072   -5.24528e-02   4.17390e-04 DIIS
   @DF-RHF iter   3:   -76.06492931726095   -3.20059e-02   2.84730e-05 DIIS
   @DF-RHF iter   4:   -76.06532690464979   -3.97587e-04   7.04031e-06 DIIS
   @DF-RHF iter   5:   -76.06535313917306   -2.62345e-05   1.60076e-06 DIIS
   @DF-RHF iter   6:   -76.06535531223658   -2.17306e-06   3.60699e-07 DIIS
   @DF-RHF iter   7:   -76.06535543439151   -1.22155e-07   6.69911e-08 DIIS
   @DF-RHF iter   8:   -76.06535543808631   -3.69481e-09   1.08551e-08 DIIS
   @DF-RHF iter   9:   -76.06535543816591   -7.95950e-11   2.62735e-09 DIIS
  Energy and wave function converged.


  ==> Post-Iterations <==

    Orbital Energies [Eh]
    ---------------------

    Doubly Occupied:                                                      

       1A    -20.566074     2A     -1.349617     3A     -0.713387  
       4A     -0.584333     5A     -0.510025  

    Virtual:                                                              

       6A      0.016715     7A      0.029528     8A      0.034713  
       9A      0.038881    10A      0.047380    11A      0.054949  
      12A      0.060615    13A      0.064760    14A      0.072366  
      15A      0.079963    16A      0.086563    17A      0.093740  
      18A      0.100656    19A      0.108992    20A      0.115379  
      21A      0.118059    22A      0.125099    23A      0.128848  
      24A      0.141856    25A      0.143726    26A      0.150263  
      27A      0.158935    28A      0.165756    29A      0.170333  
      30A      0.177747    31A      0.184580    32A      0.191970  
      33A      0.192858    34A      0.205932    35A      0.215162  
      36A      0.227024    37A      0.237169    38A      0.243272  
      39A      0.247460    40A      0.249724    41A      0.258313  
      42A      0.260319    43A      0.271134    44A      0.272672  
      45A      0.280922    46A      0.281709    47A      0.291197  
      48A      0.293522    49A      0.299603    50A      0.304106  
      51A      0.307592    52A      0.309239    53A      0.319543  
      54A      0.323539    55A      0.327122    56A      0.339220  
      57A      0.344268    58A      0.355961    59A      0.359311  
      60A      0.370049    61A      0.375256    62A      0.376946  
      63A      0.380842    64A      0.386175    65A      0.393245  
      66A      0.399753    67A      0.408025    68A      0.411863  
      69A      0.416674    70A      0.420873    71A      0.430206  
      72A      0.436765    73A      0.444068    74A      0.452893  
      75A      0.464127    76A      0.472109    77A      0.475618  
      78A      0.481975    79A      0.497856    80A      0.499430  
      81A      0.505155    82A      0.513897    83A      0.517185  
      84A      0.523869    85A      0.531587    86A      0.542034  
      87A      0.549785    88A      0.552494    89A      0.560974  
      90A      0.565664    91A      0.573787    92A      0.579553  
      93A      0.598034    94A      0.603994    95A      0.609039  
      96A      0.618410    97A      0.625112    98A      0.633544  
      99A      0.643110   100A      0.651340   101A      0.654577  
     102A      0.675909   103A      0.677816   104A      0.682822  
     105A      0.693952   106A      0.699921   107A      0.710143  
     108A      0.715594   109A      0.730558   110A      0.738326  
     111A      0.747330   112A      0.756468   113A      0.759361  
     114A      0.768314   115A      0.770596   116A      0.776277  
     117A      0.783682   118A      0.787743   119A      0.796060  
     120A      0.798019   121A      0.804230   122A      0.811412  
     123A      0.822200   124A      0.833650   125A      0.839921  
     126A      0.843526   127A      0.846285   128A      0.856604  
     129A      0.866167   130A      0.872097   131A      0.878670  
     132A      0.879886   133A      0.881456   134A      0.890611  
     135A      0.895523   136A      0.897348   137A      0.911139  
     138A      0.916715   139A      0.928754   140A      0.934688  
     141A      0.944065   142A      0.950647   143A      0.952305  
     144A      0.963829   145A      0.967665   146A      0.976341  
     147A      0.981709   148A      0.986282   149A      1.005557  
     150A      1.011500   151A      1.014301   152A      1.025021  
     153A      1.028097   154A      1.041763   155A      1.045101  
     156A      1.045715   157A      1.053335   158A      1.060314  
     159A      1.082262   160A      1.089822   161A      1.093504  
     162A      1.098345   163A      1.112620   164A      1.117423  
     165A      1.119085   166A      1.124980   167A      1.133368  
     168A      1.143955   169A      1.164295   170A      1.167049  
     171A      1.176628   172A      1.185919   173A      1.212765  
     174A      1.216470   175A      1.222004   176A      1.230995  
     177A      1.249574   178A      1.253476   179A      1.272673  
     180A      1.278808   181A      1.285327   182A      1.292586  
     183A      1.306321   184A      1.313227   185A      1.324731  
     186A      1.339251   187A      1.352481   188A      1.366975  
     189A      1.377861   190A      1.393577   191A      1.396194  
     192A      1.417947   193A      1.432657   194A      1.447420  
     195A      1.458111   196A      1.471482   197A      1.473430  
     198A      1.489096   199A      1.496470   200A      1.521650  
     201A      1.532834   202A      1.546201   203A      1.550737  
     204A      1.559984   205A      1.566257   206A      1.575732  
     207A      1.587711   208A      1.595231   209A      1.595958  
     210A      1.609473   211A      1.624170   212A      1.631338  
     213A      1.639449   214A      1.643069   215A      1.650314  
     216A      1.656985   217A      1.664506   218A      1.665985  
     219A      1.681543   220A      1.695146   221A      1.705029  
     222A      1.713669   223A      1.717780   224A      1.727085  
     225A      1.738756   226A      1.743592   227A      1.760285  
     228A      1.761339   229A      1.772879   230A      1.780560  
     231A      1.792524   232A      1.800079   233A      1.815337  
     234A      1.824777   235A      1.833265   236A      1.835744  
     237A      1.840330   238A      1.843346   239A      1.852612  
     240A      1.857327   241A      1.870329   242A      1.880512  
     243A      1.884952   244A      1.887489   245A      1.893849  
     246A      1.899944   247A      1.905063   248A      1.919381  
     249A      1.924344   250A      1.929887   251A      1.941192  
     252A      1.950146   253A      1.968651   254A      1.977317  
     255A      1.983400   256A      1.990119   257A      1.993213  
     258A      2.008375   259A      2.020624   260A      2.030678  
     261A      2.051484   262A      2.057694   263A      2.068543  
     264A      2.070227   265A      2.082711   266A      2.090944  
     267A      2.098315   268A      2.103972   269A      2.112833  
     270A      2.119486   271A      2.124782   272A      2.128894  
     273A      2.146987   274A      2.155029   275A      2.159545  
     276A      2.168993   277A      2.172400   278A      2.175084  
     279A      2.196596   280A      2.202823   281A      2.209531  
     282A      2.225922   283A      2.232629   284A      2.244159  
     285A      2.248020   286A      2.249272   287A      2.260903  
     288A      2.268272   289A      2.280791   290A      2.300039  
     291A      2.304970   292A      2.314200   293A      2.325612  
     294A      2.337446   295A      2.355711   296A      2.363577  
     297A      2.370533   298A      2.390739   299A      2.391477  
     300A      2.398745   301A      2.415432   302A      2.424594  
     303A      2.435337   304A      2.438915   305A      2.452210  
     306A      2.455299   307A      2.466439   308A      2.481732  
     309A      2.491802   310A      2.500896   311A      2.518680  
     312A      2.526676   313A      2.535832   314A      2.546303  
     315A      2.556800   316A      2.561758   317A      2.595325  
     318A      2.606930   319A      2.612111   320A      2.618350  
     321A      2.627489   322A      2.642742   323A      2.663650  
     324A      2.684788   325A      2.703572   326A      2.725134  
     327A      2.741029   328A      2.745950   329A      2.755052  
     330A      2.764091   331A      2.785351   332A      2.798519  
     333A      2.801423   334A      2.816358   335A      2.841311  
     336A      2.854075   337A      2.864532   338A      2.884382  
     339A      2.902110   340A      2.911522   341A      2.926252  
     342A      2.933902   343A      2.949664   344A      2.974355  
     345A      2.985965   346A      3.012981   347A      3.023947  
     348A      3.033871   349A      3.047100   350A      3.051216  
     351A      3.068628   352A      3.090471   353A      3.092136  
     354A      3.110724   355A      3.122801   356A      3.127267  
     357A      3.138591   358A      3.166989   359A      3.180757  
     360A      3.205885   361A      3.211246   362A      3.220333  
     363A      3.220933   364A      3.245857   365A      3.254915  
     366A      3.267307   367A      3.276503   368A      3.296467  
     369A      3.313828   370A      3.315454   371A      3.334411  
     372A      3.350081   373A      3.356835   374A      3.362016  
     375A      3.378653   376A      3.388489   377A      3.396857  
     378A      3.418586   379A      3.432016   380A      3.439865  
     381A      3.464038   382A      3.474044   383A      3.477626  
     384A      3.506058   385A      3.510997   386A      3.548787  
     387A      3.561054   388A      3.571382   389A      3.589507  
     390A      3.608105   391A      3.628466   392A      3.635228  
     393A      3.645756   394A      3.672043   395A      3.684346  
     396A      3.701059   397A      3.712411   398A      3.730623  
     399A      3.752655   400A      3.769864   401A      3.784697  
     402A      3.805295   403A      3.812652   404A      3.828642  
     405A      3.847001   406A      3.875848   407A      3.890168  
     408A      3.901685   409A      3.916497   410A      3.928991  
     411A      3.952163   412A      3.980822   413A      3.984640  
     414A      4.013384   415A      4.047402   416A      4.056798  
     417A      4.068340   418A      4.100375   419A      4.102534  
     420A      4.115910   421A      4.135143   422A      4.147969  
     423A      4.171262   424A      4.175242   425A      4.190213  
     426A      4.204161   427A      4.206922   428A      4.209505  
     429A      4.227278   430A      4.239272   431A      4.255871  
     432A      4.269701   433A      4.272900   434A      4.283422  
     435A      4.303308   436A      4.323691   437A      4.337488  
     438A      4.347071   439A      4.362370   440A      4.390661  
     441A      4.410494   442A      4.417995   443A      4.460550  
     444A      4.492973   445A      4.505511   446A      4.513956  
     447A      4.539448   448A      4.553563   449A      4.577165  
     450A      4.611719   451A      4.614764   452A      4.646671  
     453A      4.664339   454A      4.693988   455A      4.712731  
     456A      4.723520   457A      4.725799   458A      4.767765  
     459A      4.773816   460A      4.802930   461A      4.813661  
     462A      4.840798   463A      4.843086   464A      4.855552  
     465A      4.857395   466A      4.884333   467A      4.898844  
     468A      4.907758   469A      4.929546   470A      4.961505  
     471A      4.974133   472A      4.987166   473A      4.999068  
     474A      5.016652   475A      5.021420   476A      5.047019  
     477A      5.070746   478A      5.082836   479A      5.105823  
     480A      5.111095   481A      5.176314   482A      5.187222  
     483A      5.206607   484A      5.235012   485A      5.247533  
     486A      5.288053   487A      5.321293   488A      5.335039  
     489A      5.368704   490A      5.417961   491A      5.438819  
     492A      5.446163   493A      5.488886   494A      5.495094  
     495A      5.505613   496A      5.527943   497A      5.551381  
     498A      5.573861   499A      5.584800   500A      5.609483  
     501A      5.618411   502A      5.644746   503A      5.672048  
     504A      5.695062   505A      5.729837   506A      5.747384  
     507A      5.771833   508A      5.841115   509A      5.847603  
     510A      5.927720   511A      5.956597   512A      5.979496  
     513A      5.984288   514A      6.066117   515A      6.143683  
     516A      6.183201   517A      6.241709   518A      6.286041  
     519A      6.294054   520A      6.411329   521A      6.460707  
     522A      6.499554   523A      6.558008   524A      6.735808  
     525A      6.753029   526A      6.774729   527A      6.805691  
     528A      6.826373   529A      6.874798   530A      6.890389  
     531A      6.915592   532A      6.922663   533A      6.935871  
     534A      6.948667   535A      6.962143   536A      6.969661  
     537A      6.990042   538A      6.998580   539A      7.010268  
     540A      7.046381   541A      7.053830   542A      7.081494  
     543A      7.168885   544A      7.191372   545A      7.196854  
     546A      7.235544   547A      7.243858   548A      7.270795  
     549A      7.286412   550A      7.297224   551A      7.320507  
     552A      7.348022   553A      7.350412   554A      7.379973  
     555A      7.392673   556A      7.415739   557A      7.443779  
     558A      7.471253   559A      7.509670   560A      7.551454  
     561A      7.568485   562A      7.580309   563A      7.631327  
     564A      7.675246   565A      7.690388   566A      7.704998  
     567A      7.719511   568A      7.726752   569A      7.763024  
     570A      7.778798   571A      7.779721   572A      7.799835  
     573A      7.827187   574A      7.840622   575A      7.850936  
     576A      7.873579   577A      7.879833   578A      7.903920  
     579A      7.939937   580A      7.964364   581A      7.981839  
     582A      7.988769   583A      8.017464   584A      8.046788  
     585A      8.057303   586A      8.080251   587A      8.083901  
     588A      8.088926   589A      8.111433   590A      8.124446  
     591A      8.161516   592A      8.187797   593A      8.210847  
     594A      8.219074   595A      8.261798   596A      8.343937  
     597A      8.367350   598A      8.395014   599A      8.533379  
     600A      8.553081   601A      8.568350   602A      8.628352  
     603A      8.638280   604A      8.689885   605A      8.712211  
     606A      8.723625   607A      8.743093   608A      8.775426  
     609A      8.805272   610A      8.828739   611A      8.859692  
     612A      8.881811   613A      8.885549   614A      8.888725  
     615A      8.918951   616A      8.930940   617A      8.961021  
     618A      9.008450   619A      9.014623   620A      9.057058  
     621A      9.095575   622A      9.134080   623A      9.167286  
     624A      9.292121   625A      9.346265   626A      9.412912  
     627A      9.422350   628A      9.445596   629A      9.508684  
     630A      9.553393   631A      9.560609   632A      9.590530  
     633A      9.621478   634A      9.679418   635A      9.694353  
     636A      9.725614   637A      9.727436   638A      9.741968  
     639A      9.752579   640A      9.783053   641A      9.801077  
     642A      9.830816   643A      9.844784   644A      9.849298  
     645A      9.862579   646A      9.868909   647A      9.893603  
     648A      9.915079   649A      9.937548   650A      9.946146  
     651A      9.968991   652A      9.988109   653A     10.003824  
     654A     10.025056   655A     10.051898   656A     10.109362  
     657A     10.151781   658A     10.208267   659A     10.232452  
     660A     10.342011   661A     10.360550   662A     10.387009  
     663A     10.418110   664A     10.438275   665A     10.467766  
     666A     10.517598   667A     10.575313   668A     10.614599  
     669A     10.701035   670A     10.710416   671A     10.729570  
     672A     10.767212   673A     10.770914   674A     10.807359  
     675A     10.821388   676A     10.849917   677A     10.859210  
     678A     10.870012   679A     10.874208   680A     10.909850  
     681A     10.939393   682A     10.960854   683A     11.029335  
     684A     11.069196   685A     11.111646   686A     11.227339  
     687A     11.243684   688A     11.258010   689A     11.282101  
     690A     11.330611   691A     11.338332   692A     11.366765  
     693A     11.395210   694A     11.428152   695A     11.468062  
     696A     11.493131   697A     11.513335   698A     11.701373  
     699A     11.706868   700A     11.783213   701A     11.879054  
     702A     11.902928   703A     11.916713   704A     11.936776  
     705A     12.023879   706A     12.041951   707A     12.065867  
     708A     12.068116   709A     12.094233   710A     12.103794  
     711A     12.187730   712A     12.198571   713A     12.219079  
     714A     12.254093   715A     12.276571   716A     12.293011  
     717A     12.301618   718A     12.352578   719A     12.397424  
     720A     12.443325   721A     12.708755   722A     12.760988  
     723A     12.853721   724A     12.963497   725A     13.236002  
     726A     13.265632   727A     13.290696   728A     13.404151  
     729A     13.456029   730A     13.734504   731A     13.821661  
     732A     13.973480   733A     14.144297   734A     14.176571  
     735A     14.215315   736A     14.387886   737A     14.443976  
     738A     14.486120   739A     14.667065   740A     14.772270  
     741A     14.793774   742A     14.810879   743A     14.895986  
     744A     14.936127   745A     15.008208   746A     15.262125  
     747A     16.536036   748A     16.724768   749A     16.955638  
     750A     17.371737   751A     17.455472   752A     17.465856  
     753A     17.496733   754A     17.508633   755A     17.532810  
     756A     17.666365   757A     17.730339   758A     17.852023  
     759A     18.061765   760A     20.529782   761A     22.659726  
     762A     22.831692   763A     23.829573   764A     25.825914  
     765A     25.868937   766A     25.935408   767A     38.421545  
     768A     45.723588   769A     71.863371   770A     71.887658  
     771A    122.255567   772A    141.807510  

    Final Occupation by Irrep:
              A 
    DOCC [     5 ]

  @DF-RHF Final Energy:   -76.06535543816591

   => Energetics <=

    Nuclear Repulsion Energy =              9.1303439277118965
    One-Electron Energy =                -122.9445238465480514
    Two-Electron Energy =                  37.7488244806702511
    Total Energy =                        -76.0653554381659092

Computation Completed


Properties will be evaluated at   0.000000,   0.000000,   0.000000 [a0]

Properties computed using the SCF density matrix

  Nuclear Dipole Moment: [e a0]
     X:   -40.2333      Y:    37.2904      Z:   -28.0034

  Electronic Dipole Moment: [e a0]
     X:    40.7539      Y:   -36.7140      Z:    28.1076

  Dipole Moment: [e a0]
     X:     0.5206      Y:     0.5764      Z:     0.1041     Total:     0.7837

  Dipole Moment: [D]
     X:     1.3232      Y:     1.4651      Z:     0.2647     Total:     1.9919


[...]
     321A      2.316410   322A      2.325773   323A      2.331628  
     324A      2.334119   325A      2.343355   326A      2.348815  
     327A      2.371946   328A      2.385511   329A      2.394987  
     330A      2.396130   331A      2.402713   332A      2.405727  
     333A      2.426131   334A      2.435805   335A      2.447691  
     336A      2.464563   337A      2.482067   338A      2.487226  
     339A      2.503493   340A      2.515495   341A      2.532183  
     342A      2.546004   343A      2.555822   344A      2.572964  
     345A      2.580059   346A      2.588715   347A      2.609751  
     348A      2.620304   349A      2.635675   350A      2.646218  
     351A      2.670682   352A      2.682709   353A      2.712863  
     354A      2.723879   355A      2.737273   356A      2.745149  
     357A      2.764008   358A      2.777684   359A      2.789351  
     360A      2.807796   361A      2.813346   362A      2.822897  
     363A      2.834715   364A      2.835230   365A      2.856189  
     366A      2.866085   367A      2.878736   368A      2.880940  
     369A      2.895233   370A      2.909075   371A      2.917742  
     372A      2.943522   373A      2.953222   374A      2.964339  
     375A      2.980838   376A      2.998943   377A      3.016788  
     378A      3.028913   379A      3.035636   380A      3.054924  
     381A      3.062146   382A      3.087537   383A      3.093904  
     384A      3.115564   385A      3.118641   386A      3.126493  
     387A      3.134428   388A      3.151926   389A      3.157923  
     390A      3.159535   391A      3.168993   392A      3.184497  
     393A      3.191629   394A      3.202886   395A      3.207988  
     396A      3.237429   397A      3.243102   398A      3.251905  
     399A      3.276263   400A      3.282213   401A      3.300239  
     402A      3.321981   403A      3.348232   404A      3.367053  
     405A      3.376626   406A      3.398591   407A      3.428891  
     408A      3.446561   409A      3.454704   410A      3.495030  
     411A      3.521075   412A      3.530402   413A      3.553273  
     414A      3.576743   415A      3.593001   416A      3.621781  
     417A      3.637724   418A      3.652432   419A      3.657433  
     420A      3.686687   421A      3.702754   422A      3.720332  
     423A      3.732113   424A      3.745694   425A      3.765036  
     426A      3.781518   427A      3.784998   428A      3.791886  
     429A      3.832857   430A      3.868165   431A      3.874446  
     432A      3.891118   433A      3.895400   434A      3.907587  
     435A      3.917921   436A      3.929511   437A      3.936857  
     438A      3.957892   439A      3.982031   440A      3.998538  
     441A      4.008651   442A      4.014308   443A      4.027351  
     444A      4.053902   445A      4.061107   446A      4.079084  
     447A      4.083831   448A      4.112069   449A      4.130992  
     450A      4.140593   451A      4.142911   452A      4.147895  
     453A      4.170610   454A      4.186281   455A      4.195088  
     456A      4.203546   457A      4.210570   458A      4.220940  
     459A      4.223616   460A      4.237643   461A      4.247622  
     462A      4.258942   463A      4.274409   464A      4.274499  
     465A      4.286306   466A      4.294333   467A      4.305945  
     468A      4.338508   469A      4.339671   470A      4.362578  
     471A      4.392067   472A      4.398580   473A      4.413576  
     474A      4.424538   475A      4.431815   476A      4.442577  
     477A      4.469003   478A      4.484407   479A      4.496208  
     480A      4.519573   481A      4.525224   482A      4.537976  
     483A      4.556382   484A      4.566891   485A      4.596496  
     486A      4.602405   487A      4.609955   488A      4.625534  
     489A      4.636720   490A      4.651928   491A      4.665261  
     492A      4.680186   493A      4.709905   494A      4.720129  
     495A      4.732836   496A      4.754483   497A      4.786691  
     498A      4.791780   499A      4.813500   500A      4.824291  
     501A      4.851254   502A      4.866385   503A      4.883145  
     504A      4.894593   505A      4.923164   506A      4.930711  
     507A      4.942995   508A      4.963740   509A      4.984786  
     510A      5.006876   511A      5.043009   512A      5.060350  
     513A      5.066031   514A      5.087901   515A      5.129792  
     516A      5.147090   517A      5.159924   518A      5.179805  
     519A      5.224159   520A      5.234771   521A      5.260752  
     522A      5.284546   523A      5.326427   524A      5.338671  
     525A      5.398110   526A      5.421718   527A      5.473671  
     528A      5.495747   529A      5.538772   530A      5.571904  
     531A      5.654108   532A      5.669432   533A      5.772745  
     534A      5.963360   535A      5.976601   536A      6.027091  
     537A      6.095396   538A      6.163062   539A      6.188542  
     540A      6.218573   541A      6.248715   542A      6.262000  
     543A      6.272277   544A      6.330980   545A      6.350729  
     546A      6.403283   547A      6.447031   548A      6.453915  
     549A      6.490234   550A      6.559342   551A      6.573185  
     552A      6.626457   553A      6.663808   554A      6.678547  
     555A      6.696524   556A      6.705144   557A      6.736039  
     558A      6.762605   559A      6.777910   560A      6.799689  
     561A      6.827289   562A      6.842135   563A      6.857069  
     564A      6.863133   565A      6.876868   566A      6.911751  
     567A      6.930323   568A      6.964958   569A      6.981410  
     570A      6.991893   571A      7.001114   572A      7.006413  
     573A      7.027513   574A      7.041730   575A      7.062610  
     576A      7.082835   577A      7.109807   578A      7.125615  
     579A      7.147079   580A      7.153036   581A      7.184365  
     582A      7.200917   583A      7.225637   584A      7.236739  
     585A      7.272799   586A      7.341970   587A      7.354874  
     588A      7.372162   589A      7.390166   590A      7.407784  
     591A      7.440279   592A      7.500268   593A      7.530605  
     594A      7.668541   595A      7.690746   596A      7.708272  
     597A      7.717271   598A      7.740333   599A      7.757021  
     600A      7.774712   601A      7.792112   602A      7.800478  
     603A      7.815483   604A      7.825382   605A      7.832053  
     606A      7.863058   607A      7.869740   608A      7.878221  
     609A      7.890561   610A      7.905902   611A      7.914550  
     612A      7.938426   613A      7.945858   614A      7.967304  
     615A      7.981860   616A      8.031486   617A      8.038001  
     618A      8.062823   619A      8.086902   620A      8.124023  
     621A      8.156878   622A      8.240697   623A      8.331269  
     624A      8.344025   625A      8.356157   626A      8.385777  
     627A      8.402503   628A      8.447004   629A      8.500745  
     630A      8.544492   631A      8.604447   632A      8.624982  
     633A      8.649121   634A      8.666232   635A      8.683017  
     636A      8.698341   637A      8.712331   638A      8.716918  
     639A      8.734561   640A      8.751866   641A      8.773676  
     642A      8.788919   643A      8.837969   644A      8.905862  
     645A      8.921593   646A      8.971086   647A      9.009013  
     648A      9.019759   649A      9.026005   650A      9.069677  
     651A      9.082375   652A      9.096042   653A      9.104364  
     654A      9.135135   655A      9.161377   656A      9.226019  
     657A      9.243537   658A      9.259152   659A      9.282071  
     660A      9.303665   661A      9.315095   662A      9.328987  
     663A      9.377525   664A      9.385754   665A      9.480222  
     666A      9.498997   667A      9.520738   668A      9.593916  
     669A      9.641265   670A      9.671460   671A      9.671850  
     672A      9.688793   673A      9.708032   674A      9.742531  
     675A      9.758359   676A      9.824608   677A      9.877629  
     678A      9.892029   679A      9.905386   680A      9.967556  
     681A      9.988980   682A     10.041162   683A     10.043079  
     684A     10.051865   685A     10.076509   686A     10.113005  
     687A     10.151871   688A     10.219768   689A     10.245566  
     690A     10.269903   691A     10.302073   692A     10.359964  
     693A     10.390710   694A     10.401148   695A     10.409575  
     696A     10.435778   697A     10.455945   698A     10.468421  
     699A     10.539522   700A     10.864326   701A     10.874990  
     702A     10.894792   703A     10.907668   704A     10.919416  
     705A     10.925365   706A     10.935967   707A     10.975048  
     708A     10.985251   709A     11.022765   710A     11.048940  
     711A     11.060753   712A     11.072312   713A     11.085099  
     714A     11.096046   715A     11.123573   716A     11.130635  
     717A     11.149984   718A     11.173483   719A     11.187220  
     720A     11.250214   721A     11.275299   722A     11.354298  
     723A     11.362828   724A     11.412430   725A     11.456044  
     726A     11.489656   727A     11.516849   728A     11.555724  
     729A     11.640068   730A     11.780880   731A     11.909043  
     732A     11.937242   733A     12.053995   734A     12.064435  
     735A     12.197091   736A     12.239268   737A     12.270623  
     738A     12.317922   739A     12.397287   740A     12.417919  
     741A     12.721155   742A     12.750559   743A     12.778883  
     744A     12.842918   745A     12.872368   746A     12.976688  
     747A     13.108006   748A     13.220288   749A     13.234395  
     750A     13.252458   751A     13.276227   752A     13.294768  
     753A     13.340219   754A     13.406340   755A     13.471636  
     756A     13.523146   757A     13.607957   758A     13.711753  
     759A     13.993713   760A     14.018131   761A     14.178332  
     762A     14.502681   763A     14.813516   764A     14.912045  
     765A     15.280711   766A     16.978265   767A     17.402864  
     768A     24.179455   769A     28.816753   770A     28.834833  
     771A     43.737758   772A     45.743113  

    Final Occupation by Irrep:
              A 
    DOCC [    26 ]

  @DF-RHF Final Energy:  -627.74437656257737

   => Energetics <=

    Nuclear Repulsion Energy =            248.6499412443814663
    One-Electron Energy =               -1358.4891719636202652
    Two-Electron Energy =                 482.0948541566615404
    Total Energy =                       -627.7443765625773722

Computation Completed


Properties will be evaluated at   0.000000,   0.000000,   0.000000 [a0]

Properties computed using the SCF density matrix

  Nuclear Dipole Moment: [e a0]
     X:    -0.7513      Y:    -4.2623      Z:    -1.6868

  Electronic Dipole Moment: [e a0]
     X:     1.0054      Y:     3.0030      Z:     2.3132

  Dipole Moment: [e a0]
     X:     0.2541      Y:    -1.2593      Z:     0.6264     Total:     1.4292

  Dipole Moment: [D]
     X:     0.6460      Y:    -3.2008      Z:     1.5921     Total:     3.6328


*** tstop() called on node84.bme.utexas.edu at Thu Apr 23 18:47:24 2020
Module time:
	user time   =     190.59 seconds =       3.18 minutes
	system time =       3.60 seconds =       0.06 minutes
	total time  =         27 seconds =       0.45 minutes
Total time:
	user time   =    1120.89 seconds =      18.68 minutes
	system time =      25.41 seconds =       0.42 minutes
	total time  =        177 seconds =       2.95 minutes

*** tstart() called on node84.bme.utexas.edu
*** at Thu Apr 23 18:47:24 2020


  //>>>>>>>>>>>>>>>>>>>>>>>>>>>>>>>>>>>//
  //               DFMP2               //
  //<<<<<<<<<<<<<<<<<<<<<<<<<<<<<<<<<<<//

   => Loading Basis Set <=

    Name: (AUG-CC-PVQZ AUX)
    Role: RIFIT
    Keyword: DF_BASIS_MP2
    atoms 1, 4        entry C          line   184 file /home/liuchw/anaconda3/envs/psi4env/share/psi4/basis/aug-cc-pvqz-ri.gbs 
    atoms 2, 11       entry O          line   332 file /home/liuchw/anaconda3/envs/psi4env/share/psi4/basis/aug-cc-pvqz-ri.gbs 
    atoms 3           entry S          line   824 file /home/liuchw/anaconda3/envs/psi4env/share/psi4/basis/aug-cc-pvqz-ri.gbs 
    atoms 5-10, 12-13 entry H          line    30 file /home/liuchw/anaconda3/envs/psi4env/share/psi4/basis/aug-cc-pvqz-ri.gbs 

	 --------------------------------------------------------
	                          DF-MP2                         
	      2nd-Order Density-Fitted Moller-Plesset Theory     
	              RMP2 Wavefunction,   8 Threads             
	                                                         
	        Rob Parrish, Justin Turney, Andy Simmonett,      
	           Ed Hohenstein, and C. David Sherrill          
	 --------------------------------------------------------

   => Auxiliary Basis Set <=

  Basis Set: (AUG-CC-PVQZ AUX)
    Blend: AUG-CC-PVQZ-RI
    Number of shells: 348
    Number of basis function: 1506
    Number of Cartesian functions: 2056
    Spherical Harmonics?: true
    Max angular momentum: 5

	 --------------------------------------------------------
	                 NBF =   772, NAUX =  1506
	 --------------------------------------------------------
	   CLASS    FOCC     OCC    AOCC    AVIR     VIR    FVIR
	   PAIRS       0      26      26     746     746       0
	 --------------------------------------------------------

	-----------------------------------------------------------
	 ==================> DF-MP2 Energies <==================== 
	-----------------------------------------------------------
	 Reference Energy          =    -627.7443765625773722 [Eh]
	 Singles Energy            =      -0.0000000000000000 [Eh]
	 Same-Spin Energy          =      -0.3003330003203975 [Eh]
	 Opposite-Spin Energy      =      -1.0164412452151512 [Eh]
	 Correlation Energy        =      -1.3167742455355487 [Eh]
	 Total Energy              =    -629.0611508081128704 [Eh]
	-----------------------------------------------------------
	 ================> DF-SCS-MP2 Energies <================== 
	-----------------------------------------------------------
	 SCS Same-Spin Scale       =       0.3333333333333333 [-]
	 SCS Opposite-Spin Scale   =       1.2000000000000000 [-]
	 SCS Same-Spin Energy      =      -0.1001110001067992 [Eh]
	 SCS Opposite-Spin Energy  =      -1.2197294942581813 [Eh]
	 SCS Correlation Energy    =      -1.3198404943649804 [Eh]
	 SCS Total Energy          =    -629.0642170569423115 [Eh]
	-----------------------------------------------------------


*** tstop() called on node84.bme.utexas.edu at Thu Apr 23 18:47:42 2020
Module time:
	user time   =     104.34 seconds =       1.74 minutes
	system time =       2.49 seconds =       0.04 minutes
	total time  =         18 seconds =       0.30 minutes
Total time:
	user time   =    1225.24 seconds =      20.42 minutes
	system time =      27.90 seconds =       0.46 minutes
	total time  =        195 seconds =       3.25 minutes

  //>>>>>>>>>>>>>>>>>>>>>>>>>>>>>>>>>>>//
  //  CBS Results: mp2/aug-cc-pv[tq]z  //
  //<<<<<<<<<<<<<<<<<<<<<<<<<<<<<<<<<<<//


   ==> HF <==

   HI-zeta (4) Energy:               -627.744376562577


   ==> Helgaker 2-point correlated extrapolation for method: MP2 <==

   LO-zeta (3) Energy:               -628.900292234974
   HI-zeta (4) Energy:               -629.061150808113
   Alpha (exponent) Value:             3.000000000000
   Extrapolated Energy:              -629.178534091214

   @Extrapolated MP2/(T,Q):          -629.178534091214



   ==> Helgaker 2-point correlated extrapolation for method: HF <==

   LO-zeta (3) Energy:               -627.721423685349
   HI-zeta (4) Energy:               -627.744376562577
   Alpha (exponent) Value:             3.000000000000
   Extrapolated Energy:              -627.761125959474

   @Extrapolated HF/(T,Q):           -627.761125959474


   ==> Components <==

  ---------------------------------------------------------------------------------------------------------
                          Method / Basis                      Rqd      Energy [Eh]   Variable
  ---------------------------------------------------------------------------------------------------------
                              hf / aug-cc-pvtz                  *    -627.72142369   HF TOTAL ENERGY
                             mp2 / aug-cc-pvtz                  *    -628.90029223   MP2 TOTAL ENERGY
                              hf / aug-cc-pvqz                  *    -627.74437656   HF TOTAL ENERGY
                             mp2 / aug-cc-pvqz                  *    -629.06115081   MP2 TOTAL ENERGY
  ---------------------------------------------------------------------------------------------------------

   ==> Stages <==

  ---------------------------------------------------------------------------------------------------------
      Stage               Method / Basis                       Wt      Energy [Eh]   Scheme
  ---------------------------------------------------------------------------------------------------------
        scf                   hf / aug-cc-pvqz                  1    -627.74437656   xtpl_highest_1
       corl                  mp2 / aug-cc-pv[tq]z               1    -629.17853409   corl_xtpl_helgaker_2
       corl                   hf / aug-cc-pv[tq]z              -1    -627.76112596   corl_xtpl_helgaker_2
  ---------------------------------------------------------------------------------------------------------

   ==> CBS <==

  ---------------------------------------------------------------------------------------------------------
      Stage               Method / Basis                               Energy [Eh]   Scheme
  ---------------------------------------------------------------------------------------------------------
        scf                   hf / aug-cc-pvqz                       -627.74437656   xtpl_highest_1
       corl                  mp2 / aug-cc-pv[tq]z                      -1.41740813   corl_xtpl_helgaker_2
      total                  CBS                                     -629.16178469   
  ---------------------------------------------------------------------------------------------------------
   => Loading Basis Set <=

    Name: DEF2-SVP
    Role: ORBITAL
    Keyword: BASIS
    atoms 1, 4        entry C          line    90 file /home/liuchw/anaconda3/envs/psi4env/share/psi4/basis/def2-svp.gbs 
    atoms 2, 11       entry O          line   130 file /home/liuchw/anaconda3/envs/psi4env/share/psi4/basis/def2-svp.gbs 
    atoms 3           entry S          line   328 file /home/liuchw/anaconda3/envs/psi4env/share/psi4/basis/def2-svp.gbs 
    atoms 5-10, 12-13 entry H          line    15 file /home/liuchw/anaconda3/envs/psi4env/share/psi4/basis/def2-svp.gbs 


       N-Body: Complex Energy (fragments = (1, 2), basis = (1, 2):  -629.16178469431782)

   ==> N-Body: Counterpoise Corrected (CP) energies <==

   n-Body     Total Energy [Eh]       I.E. [kcal/mol]      Delta [kcal/mol]
        1     -629.152499242643        0.000000000000        0.000000000000
        2     -629.161874824570       -5.883266481497       -5.883266481497

   => Loading Basis Set <=

    Name: DEF2-SVP
    Role: ORBITAL
    Keyword: BASIS
    atoms 1, 4        entry C          line    90 file /home/liuchw/anaconda3/envs/psi4env/share/psi4/basis/def2-svp.gbs 
    atoms 2, 11       entry O          line   130 file /home/liuchw/anaconda3/envs/psi4env/share/psi4/basis/def2-svp.gbs 
    atoms 3           entry S          line   328 file /home/liuchw/anaconda3/envs/psi4env/share/psi4/basis/def2-svp.gbs 
    atoms 5-10, 12-13 entry H          line    15 file /home/liuchw/anaconda3/envs/psi4env/share/psi4/basis/def2-svp.gbs 


    Psi4 stopped on: Thursday, 23 April 2020 06:47PM
    Psi4 wall time for execution: 0:03:16.34

*** Psi4 exiting successfully. Buy a developer a beer!
