
    -----------------------------------------------------------------------
          Psi4: An Open-Source Ab Initio Electronic Structure Package
                               Psi4 1.4a2.dev224 

                         Git: Rev {master} e453b16 


    R. M. Parrish, L. A. Burns, D. G. A. Smith, A. C. Simmonett,
    A. E. DePrince III, E. G. Hohenstein, U. Bozkaya, A. Yu. Sokolov,
    R. Di Remigio, R. M. Richard, J. F. Gonthier, A. M. James,
    H. R. McAlexander, A. Kumar, M. Saitow, X. Wang, B. P. Pritchard,
    P. Verma, H. F. Schaefer III, K. Patkowski, R. A. King, E. F. Valeev,
    F. A. Evangelista, J. M. Turney, T. D. Crawford, and C. D. Sherrill,
    J. Chem. Theory Comput. 13(7) pp 3185--3197 (2017).
    (doi: 10.1021/acs.jctc.7b00174)


                         Additional Contributions by
    P. Kraus, H. Kruse, M. H. Lechner, M. C. Schieber, R. A. Shaw,
    A. Alenaizan, R. Galvelis, Z. L. Glick, S. Lehtola, and J. P. Misiewicz

    -----------------------------------------------------------------------


    Psi4 started on: Saturday, 11 April 2020 04:37PM

    Process ID: 30636
    Host:       node43.bme.utexas.edu
    PSIDATADIR: /home/liuchw/anaconda3/envs/psi4env/share/psi4
    Memory:     500.0 MiB
    Threads:    6
    
  ==> Input File <==

--------------------------------------------------------------------------
#Generated by lconvert.py for cbs job

memory 40 GB

molecule  {
0 1
  C       -3.2289460    -0.5624140     0.9038820
  O       -1.6145690     1.5396420     0.8254430
  S       -2.0221710     0.4454340     1.7798090
  C       -0.6847700    -0.7578760     1.7288330
  H       -3.4898540    -1.4266920     1.5114930
  H       -4.0973420     0.0694820     0.7363400
  H       -2.7987240    -0.8605900    -0.0502470
  H       -0.9666940    -1.6476190     2.2883110
  H       -0.4795180    -0.9906350     0.6859440
  H        0.1827710    -0.2879750     2.1838340
--
0 1
  O       -3.6625570     2.1233850     0.0214780
  H       -2.7313570     2.0511000     0.2837890
  H       -3.8044000     3.0651710    -0.0824950
units angstrom
no_reorient
symmetry c1
}

set {
scf_type DF
mp2_type DF
e_convergence 7
reference rhf
}

energy('mp2/aug-cc-pv[tq]z', bsse_type='cp')
--------------------------------------------------------------------------

  Memory set to  37.253 GiB by Python driver.

Scratch directory: /scratch//


   ===> N-Body Interaction Abacus <===
        BSSE Treatment:                     cp
        Number of 1-body computations:     4
        Number of 2-body computations:     1

   ==> N-Body: Now computing 1-body complexes <==


       N-Body: Computing complex (1/4) with fragments (2,) in the basis of fragments (2,).


Scratch directory: /scratch//

  //>>>>>>>>>>>>>>>>>>>>>>>>>>>>>>>>>>>//
  //   CBS Setup: mp2/aug-cc-pv[tq]z   //
  //<<<<<<<<<<<<<<<<<<<<<<<<<<<<<<<<<<<//

    Naive listing of computations required.
             hf / aug-cc-pvqz              for  HF TOTAL ENERGY
            mp2 / aug-cc-pvtz              for  MP2 TOTAL ENERGY
            mp2 / aug-cc-pvqz              for  MP2 TOTAL ENERGY
             hf / aug-cc-pvtz              for  HF TOTAL ENERGY
             hf / aug-cc-pvqz              for  HF TOTAL ENERGY

    Enlightened listing of computations required.
            mp2 / aug-cc-pvtz              for  MP2 TOTAL ENERGY
            mp2 / aug-cc-pvqz              for  MP2 TOTAL ENERGY

    Full listing of computations to be obtained (required and bonus).
             hf / aug-cc-pvtz              for  HF TOTAL ENERGY
            mp2 / aug-cc-pvtz              for  MP2 TOTAL ENERGY
             hf / aug-cc-pvqz              for  HF TOTAL ENERGY
            mp2 / aug-cc-pvqz              for  MP2 TOTAL ENERGY

  //>>>>>>>>>>>>>>>>>>>>>>>>>>>>>>>>>>>>//
  // CBS Computation: MP2 / AUG-CC-PVTZ //
  //<<<<<<<<<<<<<<<<<<<<<<<<<<<<<<<<<<<<//


Scratch directory: /scratch//

*** tstart() called on node43.bme.utexas.edu
*** at Sat Apr 11 16:37:53 2020

   => Loading Basis Set <=

    Name: AUG-CC-PVTZ
    Role: ORBITAL
    Keyword: BASIS
    atoms 1   entry O          line   331 file /home/liuchw/anaconda3/envs/psi4env/share/psi4/basis/aug-cc-pvtz.gbs 
    atoms 2-3 entry H          line    40 file /home/liuchw/anaconda3/envs/psi4env/share/psi4/basis/aug-cc-pvtz.gbs 


         ---------------------------------------------------------
                                   SCF
               by Justin Turney, Rob Parrish, Andy Simmonett
                          and Daniel G. A. Smith
                              RHF Reference
                        6 Threads,  38146 MiB Core
         ---------------------------------------------------------

  ==> Geometry <==

    Molecular point group: c1
    Full point group: C1

    Geometry (in Angstrom), charge = 0, multiplicity = 1:

       Center              X                  Y                   Z               Mass       
    ------------   -----------------  -----------------  -----------------  -----------------
         O           -1.430291457547     1.530205175474    -1.120514833794    15.994914619570
         H           -0.499091457547     1.457920175474    -0.858203833794     1.007825032230
         H           -1.572134457547     2.471991175474    -1.224487833794     1.007825032230

  Running in c1 symmetry.

  Rotational constants: A =     23.98132  B =      0.16379  C =      0.16291 [cm^-1]
  Rotational constants: A = 718941.82250  B =   4910.31932  C =   4883.82809 [MHz]
  Nuclear repulsion =    9.130321219658468

  Charge       = 0
  Multiplicity = 1
  Electrons    = 10
  Nalpha       = 5
  Nbeta        = 5

  ==> Algorithm <==

  SCF Algorithm Type is DF.
  DIIS enabled.
  MOM disabled.
  Fractional occupation disabled.
  Guess Type is SAD.
  Energy threshold   = 1.00e-07
  Density threshold  = 1.00e-08
  Integral threshold = 0.00e+00

  ==> Primary Basis <==

  Basis Set: AUG-CC-PVTZ
    Blend: AUG-CC-PVTZ
    Number of shells: 32
    Number of basis function: 92
    Number of Cartesian functions: 105
    Spherical Harmonics?: true
    Max angular momentum: 3

   => Loading Basis Set <=

    Name: (AUG-CC-PVTZ AUX)
    Role: JKFIT
    Keyword: DF_BASIS_SCF
    atoms 1   entry O          line   286 file /home/liuchw/anaconda3/envs/psi4env/share/psi4/basis/aug-cc-pvtz-jkfit.gbs 
    atoms 2-3 entry H          line    70 file /home/liuchw/anaconda3/envs/psi4env/share/psi4/basis/aug-cc-pvtz-jkfit.gbs 

  ==> Pre-Iterations <==

   -------------------------------------------------------
    Irrep   Nso     Nmo     Nalpha   Nbeta   Ndocc  Nsocc
   -------------------------------------------------------
     A         92      92       0       0       0       0
   -------------------------------------------------------
    Total      92      92       5       5       5       0
   -------------------------------------------------------

  ==> Integral Setup <==

  DFHelper Memory: AOs need 0.015 GiB; user supplied 27.940 GiB. Using in-core AOs.

  ==> MemDFJK: Density-Fitted J/K Matrices <==

    J tasked:                   Yes
    K tasked:                   Yes
    wK tasked:                   No
    OpenMP threads:               6
    Memory [MiB]:             28610
    Algorithm:                 Core
    Schwarz Cutoff:           1E-12
    Mask sparsity (%):       0.0000
    Fitting Condition:        1E-10

   => Auxiliary Basis Set <=

  Basis Set: (AUG-CC-PVTZ AUX)
    Blend: AUG-CC-PVTZ-JKFIT
    Number of shells: 58
    Number of basis function: 196
    Number of Cartesian functions: 241
    Spherical Harmonics?: true
    Max angular momentum: 4

  Minimum eigenvalue in the overlap matrix is 3.8975021931E-04.
  Using Symmetric Orthogonalization.

  SCF Guess: Superposition of Atomic Densities via on-the-fly atomic UHF.

  ==> Iterations <==

                           Total Energy        Delta E     RMS |[F,P]|

   @DF-RHF iter SAD:   -75.47045906401945   -7.54705e+01   0.00000e+00 
   @DF-RHF iter   1:   -75.97539446421032   -5.04935e-01   5.08792e-03 DIIS
   @DF-RHF iter   2:   -76.02774602197132   -5.23516e-02   3.48701e-03 DIIS
   @DF-RHF iter   3:   -76.05955286745983   -3.18068e-02   2.37101e-04 DIIS
   @DF-RHF iter   4:   -76.05994829277806   -3.95425e-04   5.73483e-05 DIIS
   @DF-RHF iter   5:   -76.05997359694976   -2.53042e-05   1.30834e-05 DIIS
   @DF-RHF iter   6:   -76.05997568383245   -2.08688e-06   2.86876e-06 DIIS
   @DF-RHF iter   7:   -76.05997579388433   -1.10052e-07   5.14632e-07 DIIS
   @DF-RHF iter   8:   -76.05997579698803   -3.10369e-09   8.67544e-08 DIIS
   @DF-RHF iter   9:   -76.05997579705740   -6.93774e-11   2.15078e-08 DIIS
   @DF-RHF iter  10:   -76.05997579706151   -4.10694e-12   3.17374e-09 DIIS
  Energy and wave function converged.


  ==> Post-Iterations <==

    Orbital Energies [Eh]
    ---------------------

    Doubly Occupied:                                                      

       1A    -20.568556     2A     -1.350367     3A     -0.713435  
       4A     -0.584301     5A     -0.509902  

    Virtual:                                                              

       6A      0.029327     7A      0.047679     8A      0.135871  
       9A      0.158909    10A      0.175035    11A      0.183075  
      12A      0.226870    13A      0.244790    14A      0.265367  
      15A      0.299940    16A      0.310070    17A      0.365676  
      18A      0.436686    19A      0.465591    20A      0.599061  
      21A      0.658162    22A      0.707924    23A      0.722709  
      24A      0.731845    25A      0.829582    26A      0.846043  
      27A      0.892705    28A      0.911907    29A      0.918745  
      30A      0.922083    31A      0.930483    32A      0.961348  
      33A      1.019478    34A      1.042509    35A      1.082202  
      36A      1.107887    37A      1.175536    38A      1.180781  
      39A      1.262161    40A      1.509135    41A      1.536050  
      42A      1.581298    43A      1.806450    44A      1.817649  
      45A      1.979918    46A      2.115093    47A      2.262497  
      48A      2.315296    49A      2.327301    50A      2.417769  
      51A      2.420213    52A      2.442599    53A      2.480807  
      54A      2.679832    55A      2.699058    56A      2.767743  
      57A      2.815652    58A      2.882467    59A      3.646792  
      60A      3.738048    61A      4.015606    62A      4.079943  
      63A      4.162882    64A      4.243290    65A      4.286853  
      66A      4.374912    67A      4.375999    68A      4.402282  
      69A      4.514731    70A      4.720495    71A      4.833664  
      72A      5.140726    73A      5.140833    74A      5.245293  
      75A      5.313422    76A      5.513423    77A      5.659164  
      78A      6.173606    79A      6.517625    80A      6.713540  
      81A      6.895707    82A      7.132253    83A      7.253836  
      84A      7.296286    85A      7.311618    86A      7.334642  
      87A      7.360450    88A      7.526771    89A      7.893820  
      90A      7.919124    91A      8.789215    92A     15.624076  

    Final Occupation by Irrep:
              A 
    DOCC [     5 ]

  @DF-RHF Final Energy:   -76.05997579706151

   => Energetics <=

    Nuclear Repulsion Energy =              9.1303212196584678
    One-Electron Energy =                -122.9274715020405040
    Two-Electron Energy =                  37.7371744853205229
    Total Energy =                        -76.0599757970615116

Computation Completed


Properties will be evaluated at   0.000000,   0.000000,   0.000000 [a0]

Properties computed using the SCF density matrix

  Nuclear Dipole Moment: [e a0]
     X:   -25.5369      Y:    30.5598      Z:   -20.8754

  Electronic Dipole Moment: [e a0]
     X:    26.0580      Y:   -29.9827      Z:    20.9798

  Dipole Moment: [e a0]
     X:     0.5211      Y:     0.5771      Z:     0.1043     Total:     0.7845

  Dipole Moment: [D]
     X:     1.3245      Y:     1.4668      Z:     0.2652     Total:     1.9941


*** tstop() called on node43.bme.utexas.edu at Sat Apr 11 16:37:55 2020
Module time:
	user time   =       5.28 seconds =       0.09 minutes
	system time =       0.33 seconds =       0.01 minutes
	total time  =          2 seconds =       0.03 minutes
Total time:
	user time   =       5.28 seconds =       0.09 minutes
	system time =       0.33 seconds =       0.01 minutes
	total time  =          2 seconds =       0.03 minutes

*** tstart() called on node43.bme.utexas.edu
*** at Sat Apr 11 16:37:55 2020


  //>>>>>>>>>>>>>>>>>>>>>>>>>>>>>>>>>>>//
  //               DFMP2               //
  //<<<<<<<<<<<<<<<<<<<<<<<<<<<<<<<<<<<//

   => Loading Basis Set <=

    Name: (AUG-CC-PVTZ AUX)
    Role: RIFIT
    Keyword: DF_BASIS_MP2
    atoms 1   entry O          line   264 file /home/liuchw/anaconda3/envs/psi4env/share/psi4/basis/aug-cc-pvtz-ri.gbs 
    atoms 2-3 entry H          line    30 file /home/liuchw/anaconda3/envs/psi4env/share/psi4/basis/aug-cc-pvtz-ri.gbs 

	 --------------------------------------------------------
	                          DF-MP2                         
	      2nd-Order Density-Fitted Moller-Plesset Theory     
	              RMP2 Wavefunction,   6 Threads             
	                                                         
	        Rob Parrish, Justin Turney, Andy Simmonett,      
	           Ed Hohenstein, and C. David Sherrill          
	 --------------------------------------------------------

   => Auxiliary Basis Set <=

  Basis Set: (AUG-CC-PVTZ AUX)
    Blend: AUG-CC-PVTZ-RI
    Number of shells: 56
    Number of basis function: 198
    Number of Cartesian functions: 246
    Spherical Harmonics?: true
    Max angular momentum: 4

	 --------------------------------------------------------
	                 NBF =    92, NAUX =   198
	 --------------------------------------------------------
	   CLASS    FOCC     OCC    AOCC    AVIR     VIR    FVIR
	   PAIRS       0       5       5      87      87       0
	 --------------------------------------------------------

	-----------------------------------------------------------
	 ==================> DF-MP2 Energies <==================== 
	-----------------------------------------------------------
	 Reference Energy          =     -76.0599757970615116 [Eh]
	 Singles Energy            =      -0.0000000000000000 [Eh]
	 Same-Spin Energy          =      -0.0684605921794331 [Eh]
	 Opposite-Spin Energy      =      -0.2155328083286911 [Eh]
	 Correlation Energy        =      -0.2839934005081242 [Eh]
	 Total Energy              =     -76.3439691975696348 [Eh]
	-----------------------------------------------------------
	 ================> DF-SCS-MP2 Energies <================== 
	-----------------------------------------------------------
	 SCS Same-Spin Scale       =       0.3333333333333333 [-]
	 SCS Opposite-Spin Scale   =       1.2000000000000000 [-]
	 SCS Same-Spin Energy      =      -0.0228201973931444 [Eh]
	 SCS Opposite-Spin Energy  =      -0.2586393699944293 [Eh]
	 SCS Correlation Energy    =      -0.2814595673875737 [Eh]
	 SCS Total Energy          =     -76.3414353644490831 [Eh]
	-----------------------------------------------------------


*** tstop() called on node43.bme.utexas.edu at Sat Apr 11 16:37:55 2020
Module time:
	user time   =       2.37 seconds =       0.04 minutes
	system time =       0.14 seconds =       0.00 minutes
	total time  =          0 seconds =       0.00 minutes
Total time:
	user time   =       7.66 seconds =       0.13 minutes
	system time =       0.47 seconds =       0.01 minutes
	total time  =          2 seconds =       0.03 minutes

  //>>>>>>>>>>>>>>>>>>>>>>>>>>>>>>>>>>>>//
  // CBS Computation: MP2 / AUG-CC-PVQZ //
  //<<<<<<<<<<<<<<<<<<<<<<<<<<<<<<<<<<<<//


Scratch directory: /scratch//

*** tstart() called on node43.bme.utexas.edu
*** at Sat Apr 11 16:37:55 2020

   => Loading Basis Set <=

    Name: AUG-CC-PVQZ
    Role: ORBITAL
    Keyword: BASIS
    atoms 1   entry O          line   423 file /home/liuchw/anaconda3/envs/psi4env/share/psi4/basis/aug-cc-pvqz.gbs 
    atoms 2-3 entry H          line    40 file /home/liuchw/anaconda3/envs/psi4env/share/psi4/basis/aug-cc-pvqz.gbs 


         ---------------------------------------------------------
                                   SCF
               by Justin Turney, Rob Parrish, Andy Simmonett
                          and Daniel G. A. Smith
                              RHF Reference
                        6 Threads,  38146 MiB Core
         ---------------------------------------------------------

  ==> Geometry <==

    Molecular point group: c1
    Full point group: C1

    Geometry (in Angstrom), charge = 0, multiplicity = 1:

       Center              X                  Y                   Z               Mass       
    ------------   -----------------  -----------------  -----------------  -----------------
         O           -1.430291457547     1.530205175474    -1.120514833794    15.994914619570
         H           -0.499091457547     1.457920175474    -0.858203833794     1.007825032230
         H           -1.572134457547     2.471991175474    -1.224487833794     1.007825032230

  Running in c1 symmetry.

  Rotational constants: A =     23.98132  B =      0.16379  C =      0.16291 [cm^-1]
  Rotational constants: A = 718941.82250  B =   4910.31932  C =   4883.82809 [MHz]
  Nuclear repulsion =    9.130321219658468

  Charge       = 0
  Multiplicity = 1
  Electrons    = 10
  Nalpha       = 5
  Nbeta        = 5

  ==> Algorithm <==

  SCF Algorithm Type is DF.
  DIIS enabled.
  MOM disabled.
  Fractional occupation disabled.
  Guess Type is SAD.
  Energy threshold   = 1.00e-07
  Density threshold  = 1.00e-08
  Integral threshold = 0.00e+00

  ==> Primary Basis <==

  Basis Set: AUG-CC-PVQZ
    Blend: AUG-CC-PVQZ
    Number of shells: 48
    Number of basis function: 172
    Number of Cartesian functions: 215
    Spherical Harmonics?: true
    Max angular momentum: 4

   => Loading Basis Set <=

    Name: (AUG-CC-PVQZ AUX)
    Role: JKFIT
    Keyword: DF_BASIS_SCF
    atoms 1   entry O          line   318 file /home/liuchw/anaconda3/envs/psi4env/share/psi4/basis/aug-cc-pvqz-jkfit.gbs 
    atoms 2-3 entry H          line    70 file /home/liuchw/anaconda3/envs/psi4env/share/psi4/basis/aug-cc-pvqz-jkfit.gbs 

  ==> Pre-Iterations <==

   -------------------------------------------------------
    Irrep   Nso     Nmo     Nalpha   Nbeta   Ndocc  Nsocc
   -------------------------------------------------------
     A        172     172       0       0       0       0
   -------------------------------------------------------
    Total     172     172       5       5       5       0
   -------------------------------------------------------

  ==> Integral Setup <==

  DFHelper Memory: AOs need 0.074 GiB; user supplied 27.940 GiB. Using in-core AOs.

  ==> MemDFJK: Density-Fitted J/K Matrices <==

    J tasked:                   Yes
    K tasked:                   Yes
    wK tasked:                   No
    OpenMP threads:               6
    Memory [MiB]:             28610
    Algorithm:                 Core
    Schwarz Cutoff:           1E-12
    Mask sparsity (%):       0.0000
    Fitting Condition:        1E-10

   => Auxiliary Basis Set <=

  Basis Set: (AUG-CC-PVQZ AUX)
    Blend: AUG-CC-PVQZ-JKFIT
    Number of shells: 70
    Number of basis function: 294
    Number of Cartesian functions: 400
    Spherical Harmonics?: true
    Max angular momentum: 5

  Minimum eigenvalue in the overlap matrix is 8.8341073625E-05.
  Using Symmetric Orthogonalization.

  SCF Guess: Superposition of Atomic Densities via on-the-fly atomic UHF.

  ==> Iterations <==

                           Total Energy        Delta E     RMS |[F,P]|

   @DF-RHF iter SAD:   -75.47559378696960   -7.54756e+01   0.00000e+00 
   @DF-RHF iter   1:   -75.98045329832290   -5.04860e-01   2.72735e-03 DIIS
   @DF-RHF iter   2:   -76.03290317321753   -5.24499e-02   1.87332e-03 DIIS
   @DF-RHF iter   3:   -76.06490899042629   -3.20058e-02   1.27787e-04 DIIS
   @DF-RHF iter   4:   -76.06530654355934   -3.97553e-04   3.15995e-05 DIIS
   @DF-RHF iter   5:   -76.06533277851099   -2.62350e-05   7.18343e-06 DIIS
   @DF-RHF iter   6:   -76.06533495076410   -2.17225e-06   1.61874e-06 DIIS
   @DF-RHF iter   7:   -76.06533507284036   -1.22076e-07   3.00250e-07 DIIS
   @DF-RHF iter   8:   -76.06533507652040   -3.68004e-09   4.86300e-08 DIIS
   @DF-RHF iter   9:   -76.06533507659852   -7.81171e-11   1.17741e-08 DIIS
   @DF-RHF iter  10:   -76.06533507660323   -4.71800e-12   1.77258e-09 DIIS
  Energy and wave function converged.


  ==> Post-Iterations <==

    Orbital Energies [Eh]
    ---------------------

    Doubly Occupied:                                                      

       1A    -20.566096     2A     -1.349636     3A     -0.713400  
       4A     -0.584349     5A     -0.510036  

    Virtual:                                                              

       6A      0.026853     7A      0.043076     8A      0.114112  
       9A      0.133620    10A      0.150984    11A      0.158640  
      12A      0.184830    13A      0.196967    14A      0.209255  
      15A      0.237389    16A      0.257122    17A      0.291413  
      18A      0.356839    19A      0.389304    20A      0.469722  
      21A      0.508514    22A      0.542062    23A      0.547311  
      24A      0.556283    25A      0.614090    26A      0.632840  
      27A      0.647285    28A      0.663468    29A      0.666230  
      30A      0.685008    31A      0.706546    32A      0.718279  
      33A      0.769301    34A      0.786806    35A      0.801899  
      36A      0.802757    37A      0.843537    38A      0.854518  
      39A      0.968700    40A      1.124829    41A      1.135752  
      42A      1.207733    43A      1.331396    44A      1.436838  
      45A      1.480504    46A      1.509060    47A      1.511868  
      48A      1.527092    49A      1.553969    50A      1.591886  
      51A      1.619924    52A      1.636041    53A      1.662979  
      54A      1.664357    55A      1.689512    56A      1.702811  
      57A      1.735105    58A      1.753189    59A      1.767573  
      60A      1.776281    61A      1.840714    62A      1.865320  
      63A      1.892565    64A      1.913888    65A      1.978477  
      66A      2.009793    67A      2.034264    68A      2.038365  
      69A      2.101798    70A      2.206424    71A      2.217773  
      72A      2.311237    73A      2.438715    74A      2.622878  
      75A      2.628062    76A      2.882143    77A      2.952988  
      78A      2.993411    79A      3.038265    80A      3.053340  
      81A      3.082533    82A      3.267545    83A      3.292493  
      84A      3.305012    85A      3.490900    86A      3.588555  
      87A      3.641750    88A      3.687298    89A      3.716157  
      90A      3.768448    91A      3.924055    92A      4.077840  
      93A      4.166158    94A      4.169501    95A      4.177804  
      96A      4.179951    97A      4.236912    98A      4.328114  
      99A      4.432744   100A      4.573983   101A      4.714220  
     102A      4.743345   103A      4.779872   104A      4.782009  
     105A      4.806788   106A      4.873925   107A      4.994221  
     108A      5.237939   109A      5.313270   110A      5.512786  
     111A      5.520554   112A      5.849537   113A      5.878494  
     114A      6.067302   115A      6.222153   116A      6.823417  
     117A      6.875483   118A      6.876355   119A      6.910195  
     120A      7.714474   121A      7.767270   122A      7.784413  
     123A      7.819270   124A      7.823320   125A      7.896604  
     126A      7.923908   127A      8.017344   128A      8.184891  
     129A      8.193703   130A      8.522613   131A      8.628580  
     132A      8.642674   133A      8.702947   134A      8.770773  
     135A      8.840353   136A      8.988740   137A      9.036178  
     138A      9.202317   139A      9.651848   140A      9.878557  
     141A      9.894964   142A      9.913584   143A      9.985331  
     144A     10.318548   145A     10.442041   146A     10.697748  
     147A     11.012517   148A     11.075758   149A     11.097435  
     150A     11.269430   151A     11.309175   152A     11.409330  
     153A     11.704954   154A     11.788016   155A     11.834034  
     156A     11.983649   157A     12.188650   158A     12.199382  
     159A     12.598051   160A     12.717609   161A     12.806401  
     162A     12.896235   163A     13.181667   164A     13.951278  
     165A     13.998944   166A     14.463401   167A     14.780663  
     168A     14.865474   169A     15.212891   170A     16.808600  
     171A     17.256179   172A     45.452224  

    Final Occupation by Irrep:
              A 
    DOCC [     5 ]

  @DF-RHF Final Energy:   -76.06533507660323

   => Energetics <=

    Nuclear Repulsion Energy =              9.1303212196584678
    One-Electron Energy =                -122.9442820241803815
    Two-Electron Energy =                  37.7486257279186788
    Total Energy =                        -76.0653350766032332

Computation Completed


Properties will be evaluated at   0.000000,   0.000000,   0.000000 [a0]

Properties computed using the SCF density matrix

  Nuclear Dipole Moment: [e a0]
     X:   -25.5369      Y:    30.5598      Z:   -20.8754

  Electronic Dipole Moment: [e a0]
     X:    26.0575      Y:   -29.9834      Z:    20.9797

  Dipole Moment: [e a0]
     X:     0.5206      Y:     0.5765      Z:     0.1042     Total:     0.7837

  Dipole Moment: [D]
     X:     1.3231      Y:     1.4652      Z:     0.2649     Total:     1.9919


*** tstop() called on node43.bme.utexas.edu at Sat Apr 11 16:37:57 2020
Module time:
	user time   =       8.28 seconds =       0.14 minutes
	system time =       0.50 seconds =       0.01 minutes
	total time  =          2 seconds =       0.03 minutes
Total time:
	user time   =      15.98 seconds =       0.27 minutes
	system time =       0.98 seconds =       0.02 minutes
	total time  =          4 seconds =       0.07 minutes

*** tstart() called on node43.bme.utexas.edu
*** at Sat Apr 11 16:37:57 2020


  //>>>>>>>>>>>>>>>>>>>>>>>>>>>>>>>>>>>//
  //               DFMP2               //
  //<<<<<<<<<<<<<<<<<<<<<<<<<<<<<<<<<<<//

   => Loading Basis Set <=

    Name: (AUG-CC-PVQZ AUX)
    Role: RIFIT
    Keyword: DF_BASIS_MP2
    atoms 1   entry O          line   332 file /home/liuchw/anaconda3/envs/psi4env/share/psi4/basis/aug-cc-pvqz-ri.gbs 
    atoms 2-3 entry H          line    30 file /home/liuchw/anaconda3/envs/psi4env/share/psi4/basis/aug-cc-pvqz-ri.gbs 

	 --------------------------------------------------------
	                          DF-MP2                         
	      2nd-Order Density-Fitted Moller-Plesset Theory     
	              RMP2 Wavefunction,   6 Threads             
	                                                         
	        Rob Parrish, Justin Turney, Andy Simmonett,      
	           Ed Hohenstein, and C. David Sherrill          
	 --------------------------------------------------------

   => Auxiliary Basis Set <=

  Basis Set: (AUG-CC-PVQZ AUX)
    Blend: AUG-CC-PVQZ-RI
    Number of shells: 76
    Number of basis function: 328
    Number of Cartesian functions: 447
    Spherical Harmonics?: true
    Max angular momentum: 5

	 --------------------------------------------------------
	                 NBF =   172, NAUX =   328
	 --------------------------------------------------------
	   CLASS    FOCC     OCC    AOCC    AVIR     VIR    FVIR
	   PAIRS       0       5       5     167     167       0
	 --------------------------------------------------------

	-----------------------------------------------------------
	 ==================> DF-MP2 Energies <==================== 
	-----------------------------------------------------------
	 Reference Energy          =     -76.0653350766032332 [Eh]
	 Singles Energy            =      -0.0000000000000000 [Eh]
	 Same-Spin Energy          =      -0.0727817376701185 [Eh]
	 Opposite-Spin Energy      =      -0.2444800966783214 [Eh]
	 Correlation Energy        =      -0.3172618343484399 [Eh]
	 Total Energy              =     -76.3825969109516763 [Eh]
	-----------------------------------------------------------
	 ================> DF-SCS-MP2 Energies <================== 
	-----------------------------------------------------------
	 SCS Same-Spin Scale       =       0.3333333333333333 [-]
	 SCS Opposite-Spin Scale   =       1.2000000000000000 [-]
	 SCS Same-Spin Energy      =      -0.0242605792233728 [Eh]
	 SCS Opposite-Spin Energy  =      -0.2933761160139857 [Eh]
	 SCS Correlation Energy    =      -0.3176366952373585 [Eh]
	 SCS Total Energy          =     -76.3829717718405874 [Eh]
	-----------------------------------------------------------


*** tstop() called on node43.bme.utexas.edu at Sat Apr 11 16:37:57 2020
Module time:
	user time   =       3.22 seconds =       0.05 minutes
	system time =       0.20 seconds =       0.00 minutes
	total time  =          0 seconds =       0.00 minutes
Total time:
	user time   =      19.20 seconds =       0.32 minutes
	system time =       1.18 seconds =       0.02 minutes
	total time  =          4 seconds =       0.07 minutes

  //>>>>>>>>>>>>>>>>>>>>>>>>>>>>>>>>>>>//
  //  CBS Results: mp2/aug-cc-pv[tq]z  //
  //<<<<<<<<<<<<<<<<<<<<<<<<<<<<<<<<<<<//


   ==> HF <==

   HI-zeta (4) Energy:               -76.065335076603


   ==> Helgaker 2-point correlated extrapolation for method: MP2 <==

   LO-zeta (3) Energy:               -76.343969197570
   HI-zeta (4) Energy:               -76.382596910952
   Alpha (exponent) Value:             3.000000000000
   Extrapolated Energy:              -76.410784701798

   @Extrapolated MP2/(T,Q):          -76.410784701798



   ==> Helgaker 2-point correlated extrapolation for method: HF <==

   LO-zeta (3) Energy:               -76.059975797062
   HI-zeta (4) Energy:               -76.065335076603
   Alpha (exponent) Value:             3.000000000000
   Extrapolated Energy:              -76.069245902215

   @Extrapolated HF/(T,Q):           -76.069245902215


   ==> Components <==

  ---------------------------------------------------------------------------------------------------------
                          Method / Basis                      Rqd      Energy [Eh]   Variable
  ---------------------------------------------------------------------------------------------------------
                              hf / aug-cc-pvtz                  *     -76.05997580   HF TOTAL ENERGY
                             mp2 / aug-cc-pvtz                  *     -76.34396920   MP2 TOTAL ENERGY
                              hf / aug-cc-pvqz                  *     -76.06533508   HF TOTAL ENERGY
                             mp2 / aug-cc-pvqz                  *     -76.38259691   MP2 TOTAL ENERGY
  ---------------------------------------------------------------------------------------------------------

   ==> Stages <==

  ---------------------------------------------------------------------------------------------------------
      Stage               Method / Basis                       Wt      Energy [Eh]   Scheme
  ---------------------------------------------------------------------------------------------------------
        scf                   hf / aug-cc-pvqz                  1     -76.06533508   xtpl_highest_1
       corl                  mp2 / aug-cc-pv[tq]z               1     -76.41078470   corl_xtpl_helgaker_2
       corl                   hf / aug-cc-pv[tq]z              -1     -76.06924590   corl_xtpl_helgaker_2
  ---------------------------------------------------------------------------------------------------------

   ==> CBS <==

  ---------------------------------------------------------------------------------------------------------
      Stage               Method / Basis                               Energy [Eh]   Scheme
  ---------------------------------------------------------------------------------------------------------
        scf                   hf / aug-cc-pvqz                        -76.06533508   xtpl_highest_1
       corl                  mp2 / aug-cc-pv[tq]z                      -0.34153880   corl_xtpl_helgaker_2
      total                  CBS                                      -76.40687388   
  ---------------------------------------------------------------------------------------------------------
   => Loading Basis Set <=

    Name: DEF2-SVP
    Role: ORBITAL
    Keyword: BASIS
    atoms 1   entry O          line   130 file /home/liuchw/anaconda3/envs/psi4env/share/psi4/basis/def2-svp.gbs 
    atoms 2-3 entry H          line    15 file /home/liuchw/anaconda3/envs/psi4env/share/psi4/basis/def2-svp.gbs 


       N-Body: Complex Energy (fragments = (2,), basis = (2,):   -76.40687387618649)

       N-Body: Computing complex (2/4) with fragments (2,) in the basis of fragments (1, 2).


Scratch directory: /scratch//

  //>>>>>>>>>>>>>>>>>>>>>>>>>>>>>>>>>>>//
  //   CBS Setup: mp2/aug-cc-pv[tq]z   //
  //<<<<<<<<<<<<<<<<<<<<<<<<<<<<<<<<<<<//

    Naive listing of computations required.
             hf / aug-cc-pvqz              for  HF TOTAL ENERGY
            mp2 / aug-cc-pvtz              for  MP2 TOTAL ENERGY
            mp2 / aug-cc-pvqz              for  MP2 TOTAL ENERGY
             hf / aug-cc-pvtz              for  HF TOTAL ENERGY
             hf / aug-cc-pvqz              for  HF TOTAL ENERGY

    Enlightened listing of computations required.
            mp2 / aug-cc-pvtz              for  MP2 TOTAL ENERGY
            mp2 / aug-cc-pvqz              for  MP2 TOTAL ENERGY

    Full listing of computations to be obtained (required and bonus).
             hf / aug-cc-pvtz              for  HF TOTAL ENERGY
            mp2 / aug-cc-pvtz              for  MP2 TOTAL ENERGY
             hf / aug-cc-pvqz              for  HF TOTAL ENERGY
            mp2 / aug-cc-pvqz              for  MP2 TOTAL ENERGY

  //>>>>>>>>>>>>>>>>>>>>>>>>>>>>>>>>>>>>//
  // CBS Computation: MP2 / AUG-CC-PVTZ //
  //<<<<<<<<<<<<<<<<<<<<<<<<<<<<<<<<<<<<//


Scratch directory: /scratch//

*** tstart() called on node43.bme.utexas.edu
*** at Sat Apr 11 16:37:58 2020

   => Loading Basis Set <=

    Name: AUG-CC-PVTZ
    Role: ORBITAL
    Keyword: BASIS
    atoms 1, 4        entry C          line   239 file /home/liuchw/anaconda3/envs/psi4env/share/psi4/basis/aug-cc-pvtz.gbs 
    atoms 2, 11       entry O          line   331 file /home/liuchw/anaconda3/envs/psi4env/share/psi4/basis/aug-cc-pvtz.gbs 
    atoms 3           entry S          line   906 file /home/liuchw/anaconda3/envs/psi4env/share/psi4/basis/aug-cc-pvtz.gbs 
    atoms 5-10, 12-13 entry H          line    40 file /home/liuchw/anaconda3/envs/psi4env/share/psi4/basis/aug-cc-pvtz.gbs 


         ---------------------------------------------------------
                                   SCF
               by Justin Turney, Rob Parrish, Andy Simmonett
                          and Daniel G. A. Smith
                              RHF Reference
                        6 Threads,  38146 MiB Core
         ---------------------------------------------------------

  ==> Geometry <==

    Molecular point group: c1
    Full point group: C1

    Geometry (in Angstrom), charge = 0, multiplicity = 1:

       Center              X                  Y                   Z               Mass       
    ------------   -----------------  -----------------  -----------------  -----------------
      Gh(C)          -0.996680457547    -1.155593824526    -0.238110833794    12.000000000000
      Gh(O)           0.617696542453     0.946462175474    -0.316549833794    15.994914619570
      Gh(S)           0.210094542453    -0.147745824526     0.637816166206    31.972071174400
      Gh(C)           1.547495542453    -1.351055824526     0.586840166206    12.000000000000
      Gh(H)          -1.257588457547    -2.019871824526     0.369500166206     1.007825032230
      Gh(H)          -1.865076457547    -0.523697824526    -0.405652833794     1.007825032230
      Gh(H)          -0.566458457547    -1.453769824526    -1.192239833794     1.007825032230
      Gh(H)           1.265571542453    -2.240798824526     1.146318166206     1.007825032230
      Gh(H)           1.752747542453    -1.583814824526    -0.456048833794     1.007825032230
      Gh(H)           2.415036542453    -0.881154824526     1.041841166206     1.007825032230
         O           -1.430291457547     1.530205175474    -1.120514833794    15.994914619570
         H           -0.499091457547     1.457920175474    -0.858203833794     1.007825032230
         H           -1.572134457547     2.471991175474    -1.224487833794     1.007825032230

  Running in c1 symmetry.

  Rotational constants: A =      0.22694  B =      0.08476  C =      0.06865 [cm^-1]
  Rotational constants: A =   6803.54809  B =   2541.04956  C =   2058.03595 [MHz]
  Nuclear repulsion =    9.130321219658468

  Charge       = 0
  Multiplicity = 1
  Electrons    = 10
  Nalpha       = 5
  Nbeta        = 5

  ==> Algorithm <==

  SCF Algorithm Type is DF.
  DIIS enabled.
  MOM disabled.
  Fractional occupation disabled.
  Guess Type is SAD.
  Energy threshold   = 1.00e-07
  Density threshold  = 1.00e-08
  Integral threshold = 0.00e+00

  ==> Primary Basis <==

  Basis Set: AUG-CC-PVTZ
    Blend: AUG-CC-PVTZ
    Number of shells: 144
    Number of basis function: 418
    Number of Cartesian functions: 479
    Spherical Harmonics?: true
    Max angular momentum: 3

   => Loading Basis Set <=

    Name: (AUG-CC-PVTZ AUX)
    Role: JKFIT
    Keyword: DF_BASIS_SCF
    atoms 1, 4        entry C          line   162 file /home/liuchw/anaconda3/envs/psi4env/share/psi4/basis/aug-cc-pvtz-jkfit.gbs 
    atoms 2, 11       entry O          line   286 file /home/liuchw/anaconda3/envs/psi4env/share/psi4/basis/aug-cc-pvtz-jkfit.gbs 
    atoms 3           entry S          line   730 file /home/liuchw/anaconda3/envs/psi4env/share/psi4/basis/aug-cc-pvtz-jkfit.gbs 
    atoms 5-10, 12-13 entry H          line    70 file /home/liuchw/anaconda3/envs/psi4env/share/psi4/basis/aug-cc-pvtz-jkfit.gbs 

  ==> Pre-Iterations <==

   -------------------------------------------------------
    Irrep   Nso     Nmo     Nalpha   Nbeta   Ndocc  Nsocc
   -------------------------------------------------------
     A        418     418       0       0       0       0
   -------------------------------------------------------
    Total     418     418       5       5       5       0
   -------------------------------------------------------

  ==> Integral Setup <==

  DFHelper Memory: AOs need 1.229 GiB; user supplied 27.940 GiB. Using in-core AOs.

  ==> MemDFJK: Density-Fitted J/K Matrices <==

    J tasked:                   Yes
    K tasked:                   Yes
    wK tasked:                   No
    OpenMP threads:               6
    Memory [MiB]:             28610
    Algorithm:                 Core
    Schwarz Cutoff:           1E-12
    Mask sparsity (%):       2.5766
    Fitting Condition:        1E-10

   => Auxiliary Basis Set <=

  Basis Set: (AUG-CC-PVTZ AUX)
    Blend: AUG-CC-PVTZ-JKFIT
    Number of shells: 274
    Number of basis function: 930
    Number of Cartesian functions: 1144
    Spherical Harmonics?: true
    Max angular momentum: 4

  Minimum eigenvalue in the overlap matrix is 1.6327554505E-05.
  Using Symmetric Orthogonalization.

  SCF Guess: Superposition of Atomic Densities via on-the-fly atomic UHF.

  ==> Iterations <==

                           Total Energy        Delta E     RMS |[F,P]|

   @DF-RHF iter SAD:   -75.47045901359087   -7.54705e+01   0.00000e+00 
   @DF-RHF iter   1:   -75.97551907628508   -5.05060e-01   1.12002e-03 DIIS
   @DF-RHF iter   2:   -76.02789018541726   -5.23711e-02   7.67653e-04 DIIS
   @DF-RHF iter   3:   -76.05969848894675   -3.18083e-02   5.22063e-05 DIIS
   @DF-RHF iter   4:   -76.06009403464046   -3.95546e-04   1.26354e-05 DIIS
   @DF-RHF iter   5:   -76.06011939966069   -2.53650e-05   2.88354e-06 DIIS
   @DF-RHF iter   6:   -76.06012149276485   -2.09310e-06   6.32758e-07 DIIS
   @DF-RHF iter   7:   -76.06012160352499   -1.10760e-07   1.14120e-07 DIIS
   @DF-RHF iter   8:   -76.06012160668536   -3.16037e-09   1.92055e-08 DIIS
   @DF-RHF iter   9:   -76.06012160675586   -7.05001e-11   4.75770e-09 DIIS
  Energy and wave function converged.


  ==> Post-Iterations <==

    Orbital Energies [Eh]
    ---------------------

    Doubly Occupied:                                                      

       1A    -20.568406     2A     -1.350255     3A     -0.713345  
       4A     -0.584226     5A     -0.509835  

    Virtual:                                                              

       6A      0.018884     7A      0.033684     8A      0.038298  
       9A      0.044382    10A      0.055131    11A      0.060893  
      12A      0.066780    13A      0.071957    14A      0.081423  
      15A      0.090127    16A      0.102930    17A      0.109833  
      18A      0.117176    19A      0.126265    20A      0.132138  
      21A      0.139961    22A      0.143032    23A      0.151326  
      24A      0.167172    25A      0.171266    26A      0.180159  
      27A      0.186203    28A      0.194970    29A      0.200320  
      30A      0.217215    31A      0.222655    32A      0.233872  
      33A      0.237068    34A      0.247779    35A      0.254897  
      36A      0.277485    37A      0.291960    38A      0.293827  
      39A      0.309530    40A      0.313776    41A      0.317125  
      42A      0.322446    43A      0.326230    44A      0.333521  
      45A      0.346751    46A      0.347000    47A      0.359576  
      48A      0.363065    49A      0.366350    50A      0.375209  
      51A      0.383864    52A      0.391214    53A      0.395978  
      54A      0.407802    55A      0.417558    56A      0.432631  
      57A      0.433224    58A      0.439613    59A      0.448182  
      60A      0.454779    61A      0.463086    62A      0.469913  
      63A      0.480935    64A      0.488902    65A      0.495348  
      66A      0.504257    67A      0.513216    68A      0.517823  
      69A      0.526317    70A      0.539286    71A      0.545295  
      72A      0.553664    73A      0.560042    74A      0.580715  
      75A      0.581398    76A      0.596468    77A      0.600642  
      78A      0.609350    79A      0.618389    80A      0.626179  
      81A      0.638799    82A      0.648210    83A      0.656658  
      84A      0.674412    85A      0.685394    86A      0.696952  
      87A      0.704361    88A      0.716666    89A      0.721115  
      90A      0.739826    91A      0.747144    92A      0.759365  
      93A      0.779852    94A      0.782635    95A      0.796799  
      96A      0.817807    97A      0.829380    98A      0.851676  
      99A      0.860690   100A      0.872603   101A      0.892596  
     102A      0.926758   103A      0.950974   104A      0.953615  
     105A      0.962935   106A      0.972884   107A      0.980120  
     108A      0.988894   109A      1.002146   110A      1.009787  
     111A      1.020061   112A      1.025135   113A      1.029321  
     114A      1.045553   115A      1.053021   116A      1.062126  
     117A      1.065676   118A      1.068675   119A      1.077100  
     120A      1.092567   121A      1.099649   122A      1.104015  
     123A      1.115726   124A      1.120560   125A      1.123864  
     126A      1.132851   127A      1.141039   128A      1.153371  
     129A      1.165066   130A      1.167744   131A      1.172156  
     132A      1.191678   133A      1.192943   134A      1.208342  
     135A      1.220184   136A      1.237248   137A      1.239396  
     138A      1.250666   139A      1.258514   140A      1.263654  
     141A      1.273002   142A      1.277660   143A      1.294475  
     144A      1.306931   145A      1.315445   146A      1.322510  
     147A      1.328182   148A      1.342713   149A      1.357389  
     150A      1.375031   151A      1.381605   152A      1.390699  
     153A      1.401613   154A      1.404205   155A      1.427292  
     156A      1.434353   157A      1.437002   158A      1.455264  
     159A      1.460661   160A      1.481204   161A      1.496225  
     162A      1.498419   163A      1.516364   164A      1.534468  
     165A      1.544467   166A      1.557700   167A      1.585612  
     168A      1.596614   169A      1.612607   170A      1.624000  
     171A      1.638319   172A      1.652620   173A      1.671378  
     174A      1.678724   175A      1.700649   176A      1.719498  
     177A      1.732238   178A      1.749324   179A      1.774952  
     180A      1.781642   181A      1.801973   182A      1.812666  
     183A      1.828351   184A      1.840489   185A      1.885896  
     186A      1.903704   187A      1.924842   188A      1.937862  
     189A      1.945135   190A      1.955888   191A      1.964578  
     192A      1.975481   193A      2.002090   194A      2.009637  
     195A      2.018509   196A      2.028098   197A      2.042191  
     198A      2.051841   199A      2.082493   200A      2.093600  
     201A      2.103286   202A      2.113291   203A      2.133266  
     204A      2.146983   205A      2.159911   206A      2.200398  
     207A      2.201765   208A      2.215898   209A      2.239269  
     210A      2.283391   211A      2.351359   212A      2.387798  
     213A      2.399083   214A      2.416442   215A      2.420681  
     216A      2.444556   217A      2.456898   218A      2.470982  
     219A      2.495614   220A      2.503969   221A      2.514551  
     222A      2.520914   223A      2.533566   224A      2.541255  
     225A      2.557927   226A      2.567306   227A      2.592513  
     228A      2.622741   229A      2.631369   230A      2.653649  
     231A      2.662916   232A      2.709510   233A      2.735225  
     234A      2.742434   235A      2.758862   236A      2.769510  
     237A      2.792960   238A      2.819017   239A      2.843808  
     240A      2.854132   241A      2.900634   242A      2.915418  
     243A      2.925497   244A      2.946745   245A      3.006458  
     246A      3.017661   247A      3.025003   248A      3.048118  
     249A      3.087161   250A      3.107555   251A      3.152619  
     252A      3.256654   253A      3.259505   254A      3.297124  
     255A      3.353480   256A      3.393470   257A      3.467631  
     258A      3.508120   259A      3.546719   260A      3.585485  
     261A      3.640891   262A      3.804016   263A      3.832978  
     264A      3.881390   265A      3.905790   266A      3.947476  
     267A      3.975833   268A      4.000356   269A      4.024293  
     270A      4.067856   271A      4.114648   272A      4.119613  
     273A      4.137344   274A      4.167211   275A      4.175931  
     276A      4.184533   277A      4.212933   278A      4.226300  
     279A      4.235857   280A      4.258042   281A      4.272734  
     282A      4.285138   283A      4.300061   284A      4.320706  
     285A      4.348193   286A      4.370978   287A      4.393848  
     288A      4.423792   289A      4.443669   290A      4.451883  
     291A      4.481348   292A      4.521139   293A      4.533385  
     294A      4.544267   295A      4.557556   296A      4.576255  
     297A      4.584005   298A      4.585282   299A      4.621318  
     300A      4.636018   301A      4.648981   302A      4.657982  
     303A      4.680209   304A      4.711636   305A      4.737718  
     306A      4.740935   307A      4.757866   308A      4.778085  
     309A      4.806605   310A      4.857795   311A      4.867731  
     312A      4.886690   313A      4.888277   314A      4.915522  
     315A      4.930351   316A      4.945306   317A      4.965997  
     318A      4.987313   319A      5.056643   320A      5.069837  
     321A      5.123287   322A      5.146180   323A      5.162793  
     324A      5.168451   325A      5.243203   326A      5.284613  
     327A      5.291557   328A      5.304589   329A      5.325357  
     330A      5.333455   331A      5.373543   332A      5.391633  
     333A      5.406530   334A      5.436043   335A      5.448625  
     336A      5.466817   337A      5.496650   338A      5.521335  
     339A      5.547215   340A      5.570489   341A      5.612599  
     342A      5.632507   343A      5.661531   344A      5.700816  
     345A      5.721812   346A      5.747527   347A      5.762380  
     348A      5.785273   349A      5.838838   350A      5.888459  
     351A      5.905733   352A      6.007600   353A      6.100237  
     354A      6.167279   355A      6.191721   356A      6.201053  
     357A      6.243177   358A      6.301115   359A      6.332167  
     360A      6.353764   361A      6.403135   362A      6.453985  
     363A      6.627443   364A      6.688207   365A      6.693638  
     366A      6.730568   367A      6.825947   368A      6.874204  
     369A      7.086726   370A      7.204043   371A      7.240165  
     372A      7.286778   373A      7.394212   374A      7.419270  
     375A      7.439228   376A      7.554208   377A      7.596646  
     378A      7.731527   379A      7.776012   380A      7.797537  
     381A      7.820351   382A      7.827099   383A      7.848370  
     384A      7.865563   385A      7.896739   386A      7.920782  
     387A      7.946792   388A      7.975840   389A      7.995963  
     390A      8.080589   391A      8.138967   392A      8.200285  
     393A      8.220435   394A      8.292261   395A      8.325421  
     396A      8.413490   397A      8.486267   398A      9.133664  
     399A      9.669197   400A      9.948843   401A     10.136086  
     402A     10.190007   403A     10.462952   404A     10.528222  
     405A     10.579969   406A     11.102139   407A     11.614929  
     408A     12.662994   409A     13.085650   410A     17.371092  
     411A     17.481900   412A     25.040519   413A     25.688286  
     414A     25.904219   415A     51.922686   416A     52.231633  
     417A     62.323433   418A    141.857294  

    Final Occupation by Irrep:
              A 
    DOCC [     5 ]

  @DF-RHF Final Energy:   -76.06012160675586

   => Energetics <=

    Nuclear Repulsion Energy =              9.1303212196584678
    One-Electron Energy =                -122.9287471302440338
    Two-Electron Energy =                  37.7383043038297004
    Total Energy =                        -76.0601216067558710

Computation Completed


Properties will be evaluated at   0.000000,   0.000000,   0.000000 [a0]

Properties computed using the SCF density matrix

  Nuclear Dipole Moment: [e a0]
     X:   -25.5369      Y:    30.5598      Z:   -20.8754

  Electronic Dipole Moment: [e a0]
     X:    26.0582      Y:   -29.9831      Z:    20.9796

  Dipole Moment: [e a0]
     X:     0.5213      Y:     0.5767      Z:     0.1041     Total:     0.7843

  Dipole Moment: [D]
     X:     1.3250      Y:     1.4658      Z:     0.2647     Total:     1.9936


*** tstop() called on node43.bme.utexas.edu at Sat Apr 11 16:38:05 2020
Module time:
	user time   =      36.16 seconds =       0.60 minutes
	system time =       0.99 seconds =       0.02 minutes
	total time  =          7 seconds =       0.12 minutes
Total time:
	user time   =      57.20 seconds =       0.95 minutes
	system time =       2.23 seconds =       0.04 minutes
	total time  =         12 seconds =       0.20 minutes

*** tstart() called on node43.bme.utexas.edu
*** at Sat Apr 11 16:38:05 2020


  //>>>>>>>>>>>>>>>>>>>>>>>>>>>>>>>>>>>//
  //               DFMP2               //
  //<<<<<<<<<<<<<<<<<<<<<<<<<<<<<<<<<<<//

   => Loading Basis Set <=

    Name: (AUG-CC-PVTZ AUX)
    Role: RIFIT
    Keyword: DF_BASIS_MP2
    atoms 1, 4        entry C          line   148 file /home/liuchw/anaconda3/envs/psi4env/share/psi4/basis/aug-cc-pvtz-ri.gbs 
    atoms 2, 11       entry O          line   264 file /home/liuchw/anaconda3/envs/psi4env/share/psi4/basis/aug-cc-pvtz-ri.gbs 
    atoms 3           entry S          line   666 file /home/liuchw/anaconda3/envs/psi4env/share/psi4/basis/aug-cc-pvtz-ri.gbs 
    atoms 5-10, 12-13 entry H          line    30 file /home/liuchw/anaconda3/envs/psi4env/share/psi4/basis/aug-cc-pvtz-ri.gbs 

	 --------------------------------------------------------
	                          DF-MP2                         
	      2nd-Order Density-Fitted Moller-Plesset Theory     
	              RMP2 Wavefunction,   6 Threads             
	                                                         
	        Rob Parrish, Justin Turney, Andy Simmonett,      
	           Ed Hohenstein, and C. David Sherrill          
	 --------------------------------------------------------

   => Auxiliary Basis Set <=

  Basis Set: (AUG-CC-PVTZ AUX)
    Blend: AUG-CC-PVTZ-RI
    Number of shells: 261
    Number of basis function: 939
    Number of Cartesian functions: 1175
    Spherical Harmonics?: true
    Max angular momentum: 4

	 --------------------------------------------------------
	                 NBF =   418, NAUX =   939
	 --------------------------------------------------------
	   CLASS    FOCC     OCC    AOCC    AVIR     VIR    FVIR
	   PAIRS       0       5       5     413     413       0
	 --------------------------------------------------------

	-----------------------------------------------------------
	 ==================> DF-MP2 Energies <==================== 
	-----------------------------------------------------------
	 Reference Energy          =     -76.0601216067558568 [Eh]
	 Singles Energy            =      -0.0000000000000000 [Eh]
	 Same-Spin Energy          =      -0.0685809404891316 [Eh]
	 Opposite-Spin Energy      =      -0.2168983159253854 [Eh]
	 Correlation Energy        =      -0.2854792564145170 [Eh]
	 Total Energy              =     -76.3456008631703753 [Eh]
	-----------------------------------------------------------
	 ================> DF-SCS-MP2 Energies <================== 
	-----------------------------------------------------------
	 SCS Same-Spin Scale       =       0.3333333333333333 [-]
	 SCS Opposite-Spin Scale   =       1.2000000000000000 [-]
	 SCS Same-Spin Energy      =      -0.0228603134963772 [Eh]
	 SCS Opposite-Spin Energy  =      -0.2602779791104625 [Eh]
	 SCS Correlation Energy    =      -0.2831382926068396 [Eh]
	 SCS Total Energy          =     -76.3432598993626925 [Eh]
	-----------------------------------------------------------


*** tstop() called on node43.bme.utexas.edu at Sat Apr 11 16:38:09 2020
Module time:
	user time   =      16.01 seconds =       0.27 minutes
	system time =       0.49 seconds =       0.01 minutes
	total time  =          4 seconds =       0.07 minutes
Total time:
	user time   =      73.22 seconds =       1.22 minutes
	system time =       2.72 seconds =       0.05 minutes
	total time  =         16 seconds =       0.27 minutes

  //>>>>>>>>>>>>>>>>>>>>>>>>>>>>>>>>>>>>//
  // CBS Computation: MP2 / AUG-CC-PVQZ //
  //<<<<<<<<<<<<<<<<<<<<<<<<<<<<<<<<<<<<//


Scratch directory: /scratch//

*** tstart() called on node43.bme.utexas.edu
*** at Sat Apr 11 16:38:09 2020

   => Loading Basis Set <=

    Name: AUG-CC-PVQZ
    Role: ORBITAL
    Keyword: BASIS
    atoms 1, 4        entry C          line   303 file /home/liuchw/anaconda3/envs/psi4env/share/psi4/basis/aug-cc-pvqz.gbs 
    atoms 2, 11       entry O          line   423 file /home/liuchw/anaconda3/envs/psi4env/share/psi4/basis/aug-cc-pvqz.gbs 
    atoms 3           entry S          line  1126 file /home/liuchw/anaconda3/envs/psi4env/share/psi4/basis/aug-cc-pvqz.gbs 
    atoms 5-10, 12-13 entry H          line    40 file /home/liuchw/anaconda3/envs/psi4env/share/psi4/basis/aug-cc-pvqz.gbs 


         ---------------------------------------------------------
                                   SCF
               by Justin Turney, Rob Parrish, Andy Simmonett
                          and Daniel G. A. Smith
                              RHF Reference
                        6 Threads,  38146 MiB Core
         ---------------------------------------------------------

  ==> Geometry <==

    Molecular point group: c1
    Full point group: C1

    Geometry (in Angstrom), charge = 0, multiplicity = 1:

       Center              X                  Y                   Z               Mass       
    ------------   -----------------  -----------------  -----------------  -----------------
      Gh(C)          -0.996680457547    -1.155593824526    -0.238110833794    12.000000000000
      Gh(O)           0.617696542453     0.946462175474    -0.316549833794    15.994914619570
      Gh(S)           0.210094542453    -0.147745824526     0.637816166206    31.972071174400
      Gh(C)           1.547495542453    -1.351055824526     0.586840166206    12.000000000000
      Gh(H)          -1.257588457547    -2.019871824526     0.369500166206     1.007825032230
      Gh(H)          -1.865076457547    -0.523697824526    -0.405652833794     1.007825032230
      Gh(H)          -0.566458457547    -1.453769824526    -1.192239833794     1.007825032230
      Gh(H)           1.265571542453    -2.240798824526     1.146318166206     1.007825032230
      Gh(H)           1.752747542453    -1.583814824526    -0.456048833794     1.007825032230
      Gh(H)           2.415036542453    -0.881154824526     1.041841166206     1.007825032230
         O           -1.430291457547     1.530205175474    -1.120514833794    15.994914619570
         H           -0.499091457547     1.457920175474    -0.858203833794     1.007825032230
         H           -1.572134457547     2.471991175474    -1.224487833794     1.007825032230

  Running in c1 symmetry.

  Rotational constants: A =      0.22694  B =      0.08476  C =      0.06865 [cm^-1]
  Rotational constants: A =   6803.54809  B =   2541.04956  C =   2058.03595 [MHz]
  Nuclear repulsion =    9.130321219658468

  Charge       = 0
  Multiplicity = 1
  Electrons    = 10
  Nalpha       = 5
  Nbeta        = 5

  ==> Algorithm <==

  SCF Algorithm Type is DF.
  DIIS enabled.
  MOM disabled.
  Fractional occupation disabled.
  Guess Type is SAD.
  Energy threshold   = 1.00e-07
  Density threshold  = 1.00e-08
  Integral threshold = 0.00e+00

  ==> Primary Basis <==

  Basis Set: AUG-CC-PVQZ
    Blend: AUG-CC-PVQZ
    Number of shells: 214
    Number of basis function: 772
    Number of Cartesian functions: 969
    Spherical Harmonics?: true
    Max angular momentum: 4

   => Loading Basis Set <=

    Name: (AUG-CC-PVQZ AUX)
    Role: JKFIT
    Keyword: DF_BASIS_SCF
    atoms 1, 4        entry C          line   178 file /home/liuchw/anaconda3/envs/psi4env/share/psi4/basis/aug-cc-pvqz-jkfit.gbs 
    atoms 2, 11       entry O          line   318 file /home/liuchw/anaconda3/envs/psi4env/share/psi4/basis/aug-cc-pvqz-jkfit.gbs 
    atoms 3           entry S          line   810 file /home/liuchw/anaconda3/envs/psi4env/share/psi4/basis/aug-cc-pvqz-jkfit.gbs 
    atoms 5-10, 12-13 entry H          line    70 file /home/liuchw/anaconda3/envs/psi4env/share/psi4/basis/aug-cc-pvqz-jkfit.gbs 

  ==> Pre-Iterations <==

   -------------------------------------------------------
    Irrep   Nso     Nmo     Nalpha   Nbeta   Ndocc  Nsocc
   -------------------------------------------------------
     A        772     772       0       0       0       0
   -------------------------------------------------------
    Total     772     772       5       5       5       0
   -------------------------------------------------------

  ==> Integral Setup <==

  DFHelper Memory: AOs need 5.880 GiB; user supplied 27.940 GiB. Using in-core AOs.

  ==> MemDFJK: Density-Fitted J/K Matrices <==

    J tasked:                   Yes
    K tasked:                   Yes
    wK tasked:                   No
    OpenMP threads:               6
    Memory [MiB]:             28610
    Algorithm:                 Core
    Schwarz Cutoff:           1E-12
    Mask sparsity (%):       5.7203
    Fitting Condition:        1E-10

   => Auxiliary Basis Set <=

  Basis Set: (AUG-CC-PVQZ AUX)
    Blend: AUG-CC-PVQZ-JKFIT
    Number of shells: 326
    Number of basis function: 1360
    Number of Cartesian functions: 1847
    Spherical Harmonics?: true
    Max angular momentum: 5

  Minimum eigenvalue in the overlap matrix is 3.3899110205E-06.
  Using Symmetric Orthogonalization.

  SCF Guess: Superposition of Atomic Densities via on-the-fly atomic UHF.

  ==> Iterations <==

                           Total Energy        Delta E     RMS |[F,P]|

   @DF-RHF iter SAD:   -75.47559375316945   -7.54756e+01   0.00000e+00 
   @DF-RHF iter   1:   -75.98049857640906   -5.04905e-01   6.07675e-04 DIIS
   @DF-RHF iter   2:   -76.03295560136461   -5.24570e-02   4.17408e-04 DIIS
   @DF-RHF iter   3:   -76.06496052969128   -3.20049e-02   2.84772e-05 DIIS
   @DF-RHF iter   4:   -76.06535816261571   -3.97633e-04   7.04094e-06 DIIS
   @DF-RHF iter   5:   -76.06538439612238   -2.62335e-05   1.60159e-06 DIIS
   @DF-RHF iter   6:   -76.06538657099502   -2.17487e-06   3.60872e-07 DIIS
   @DF-RHF iter   7:   -76.06538669327009   -1.22275e-07   6.70969e-08 DIIS
   @DF-RHF iter   8:   -76.06538669698018   -3.71010e-09   1.08790e-08 DIIS
   @DF-RHF iter   9:   -76.06538669705932   -7.91402e-11   2.63020e-09 DIIS
  Energy and wave function converged.


  ==> Post-Iterations <==

    Orbital Energies [Eh]
    ---------------------

    Doubly Occupied:                                                      

       1A    -20.566054     2A     -1.349593     3A     -0.713367  
       4A     -0.584321     5A     -0.510011  

    Virtual:                                                              

       6A      0.016797     7A      0.030286     8A      0.034408  
       9A      0.039737    10A      0.050143    11A      0.054986  
      12A      0.060520    13A      0.064249    14A      0.071701  
      15A      0.079779    16A      0.088002    17A      0.096946  
      18A      0.102777    19A      0.109094    20A      0.115122  
      21A      0.119987    22A      0.123202    23A      0.131837  
      24A      0.143007    25A      0.148553    26A      0.150958  
      27A      0.160444    28A      0.165633    29A      0.173567  
      30A      0.184929    31A      0.192255    32A      0.195904  
      33A      0.203190    34A      0.210377    35A      0.218125  
      36A      0.235467    37A      0.244783    38A      0.246996  
      39A      0.259141    40A      0.264044    41A      0.265923  
      42A      0.269724    43A      0.273307    44A      0.282230  
      45A      0.287395    46A      0.288611    47A      0.297209  
      48A      0.301484    49A      0.304802    50A      0.307232  
      51A      0.315855    52A      0.320981    53A      0.325489  
      54A      0.334787    55A      0.340281    56A      0.350480  
      57A      0.356266    58A      0.359074    59A      0.370204  
      60A      0.375104    61A      0.383828    62A      0.384727  
      63A      0.390839    64A      0.401307    65A      0.403271  
      66A      0.408035    67A      0.412333    68A      0.419794  
      69A      0.422899    70A      0.429693    71A      0.432855  
      72A      0.436166    73A      0.451406    74A      0.458485  
      75A      0.470551    76A      0.474203    77A      0.487090  
      78A      0.491517    79A      0.496674    80A      0.499608  
      81A      0.501113    82A      0.505489    83A      0.520534  
      84A      0.532363    85A      0.542261    86A      0.550149  
      87A      0.553446    88A      0.571353    89A      0.575155  
      90A      0.586829    91A      0.596289    92A      0.606869  
      93A      0.613705    94A      0.623344    95A      0.626922  
      96A      0.632496    97A      0.634572    98A      0.652240  
      99A      0.661877   100A      0.671265   101A      0.678276  
     102A      0.681080   103A      0.687073   104A      0.698639  
     105A      0.717895   106A      0.726856   107A      0.734767  
     108A      0.744999   109A      0.751153   110A      0.760039  
     111A      0.762676   112A      0.773156   113A      0.782420  
     114A      0.784324   115A      0.792174   116A      0.793601  
     117A      0.801684   118A      0.818472   119A      0.824040  
     120A      0.826790   121A      0.831587   122A      0.835373  
     123A      0.842039   124A      0.850851   125A      0.854865  
     126A      0.865791   127A      0.872442   128A      0.876657  
     129A      0.879295   130A      0.885964   131A      0.892401  
     132A      0.899183   133A      0.902172   134A      0.915991  
     135A      0.925917   136A      0.930545   137A      0.938361  
     138A      0.945381   139A      0.954397   140A      0.959727  
     141A      0.971294   142A      0.974255   143A      0.977609  
     144A      0.988867   145A      0.998711   146A      1.005656  
     147A      1.015239   148A      1.024820   149A      1.037113  
     150A      1.040287   151A      1.044744   152A      1.054296  
     153A      1.057988   154A      1.075612   155A      1.080722  
     156A      1.083404   157A      1.090208   158A      1.104668  
     159A      1.111809   160A      1.112361   161A      1.129347  
     162A      1.133045   163A      1.146893   164A      1.148725  
     165A      1.158230   166A      1.169169   167A      1.182802  
     168A      1.185746   169A      1.188767   170A      1.209966  
     171A      1.211689   172A      1.223869   173A      1.241752  
     174A      1.245305   175A      1.256112   176A      1.269700  
     177A      1.283503   178A      1.284297   179A      1.306769  
     180A      1.323392   181A      1.324472   182A      1.333895  
     183A      1.346873   184A      1.358168   185A      1.365744  
     186A      1.371549   187A      1.379958   188A      1.394526  
     189A      1.404493   190A      1.408325   191A      1.423528  
     192A      1.436122   193A      1.450746   194A      1.460384  
     195A      1.477760   196A      1.491067   197A      1.498412  
     198A      1.517142   199A      1.526350   200A      1.542725  
     201A      1.556836   202A      1.565541   203A      1.576548  
     204A      1.585157   205A      1.591870   206A      1.601727  
     207A      1.607263   208A      1.615596   209A      1.622919  
     210A      1.641536   211A      1.644218   212A      1.652144  
     213A      1.656519   214A      1.671631   215A      1.688813  
     216A      1.700738   217A      1.705445   218A      1.726270  
     219A      1.732396   220A      1.739694   221A      1.756022  
     222A      1.765100   223A      1.776694   224A      1.781033  
     225A      1.790308   226A      1.796790   227A      1.803258  
     228A      1.816421   229A      1.824701   230A      1.829605  
     231A      1.845575   232A      1.849170   233A      1.852689  
     234A      1.861541   235A      1.868218   236A      1.870994  
     237A      1.885777   238A      1.890500   239A      1.905467  
     240A      1.918764   241A      1.922227   242A      1.934019  
     243A      1.938362   244A      1.951672   245A      1.957344  
     246A      1.968939   247A      1.981179   248A      1.989390  
     249A      2.014153   250A      2.016841   251A      2.018683  
     252A      2.025540   253A      2.046300   254A      2.050483  
     255A      2.059433   256A      2.066916   257A      2.085124  
     258A      2.093192   259A      2.101689   260A      2.105359  
     261A      2.113172   262A      2.124405   263A      2.129389  
     264A      2.135341   265A      2.151171   266A      2.157853  
     267A      2.165544   268A      2.172193   269A      2.181654  
     270A      2.188636   271A      2.195467   272A      2.208870  
     273A      2.221402   274A      2.225418   275A      2.234051  
     276A      2.242056   277A      2.251275   278A      2.271170  
     279A      2.274191   280A      2.280121   281A      2.290323  
     282A      2.296607   283A      2.310215   284A      2.324165  
     285A      2.333984   286A      2.338490   287A      2.346031  
     288A      2.355752   289A      2.367005   290A      2.372627  
     291A      2.386116   292A      2.405714   293A      2.413634  
     294A      2.427984   295A      2.441725   296A      2.446255  
     297A      2.454909   298A      2.460027   299A      2.467851  
     300A      2.480357   301A      2.485862   302A      2.495248  
     303A      2.508177   304A      2.520943   305A      2.530845  
     306A      2.538079   307A      2.550159   308A      2.577733  
     309A      2.590526   310A      2.601317   311A      2.605234  
     312A      2.618521   313A      2.620977   314A      2.636004  
     315A      2.653793   316A      2.665083   317A      2.688392  
     318A      2.696270   319A      2.715488   320A      2.727999  
     321A      2.739332   322A      2.749545   323A      2.760596  
     324A      2.781240   325A      2.791004   326A      2.798091  
     327A      2.806175   328A      2.816080   329A      2.848801  
     330A      2.859536   331A      2.871408   332A      2.890118  
     333A      2.911736   334A      2.923444   335A      2.938486  
     336A      2.949569   337A      2.956802   338A      2.977784  
     339A      2.981320   340A      2.987500   341A      3.010253  
     342A      3.028740   343A      3.046027   344A      3.059244  
     345A      3.075685   346A      3.086770   347A      3.097910  
     348A      3.122341   349A      3.130010   350A      3.135894  
     351A      3.155248   352A      3.163669   353A      3.188246  
     354A      3.206256   355A      3.211056   356A      3.217999  
     357A      3.230397   358A      3.237406   359A      3.249508  
     360A      3.287038   361A      3.289755   362A      3.306867  
     363A      3.320104   364A      3.330437   365A      3.336971  
     366A      3.356936   367A      3.373431   368A      3.377254  
     369A      3.384664   370A      3.394002   371A      3.415418  
     372A      3.432303   373A      3.436576   374A      3.451836  
     375A      3.464996   376A      3.479338   377A      3.487682  
     378A      3.499149   379A      3.504905   380A      3.540080  
     381A      3.557411   382A      3.569909   383A      3.579578  
     384A      3.598397   385A      3.601526   386A      3.626951  
     387A      3.633492   388A      3.666160   389A      3.681247  
     390A      3.705524   391A      3.710176   392A      3.725573  
     393A      3.749626   394A      3.757231   395A      3.784910  
     396A      3.798183   397A      3.808372   398A      3.816388  
     399A      3.830361   400A      3.851254   401A      3.878778  
     402A      3.891441   403A      3.900153   404A      3.922700  
     405A      3.938890   406A      3.956440   407A      3.973759  
     408A      4.011121   409A      4.016403   410A      4.034339  
     411A      4.038505   412A      4.060288   413A      4.086883  
     414A      4.093402   415A      4.107155   416A      4.120535  
     417A      4.127490   418A      4.158692   419A      4.171540  
     420A      4.188356   421A      4.202542   422A      4.216557  
     423A      4.232631   424A      4.238867   425A      4.256009  
     426A      4.267510   427A      4.297312   428A      4.301593  
     429A      4.307019   430A      4.324996   431A      4.330703  
     432A      4.353786   433A      4.368246   434A      4.391228  
     435A      4.412101   436A      4.418687   437A      4.426937  
     438A      4.460686   439A      4.472007   440A      4.494897  
     441A      4.520072   442A      4.541810   443A      4.558339  
     444A      4.568535   445A      4.611878   446A      4.630847  
     447A      4.642649   448A      4.656752   449A      4.684887  
     450A      4.708593   451A      4.734988   452A      4.769052  
     453A      4.791052   454A      4.810011   455A      4.827030  
     456A      4.851350   457A      4.869527   458A      4.876272  
     459A      4.897401   460A      4.910037   461A      4.934466  
     462A      4.937102   463A      4.951757   464A      4.978639  
     465A      4.998477   466A      5.024671   467A      5.040532  
     468A      5.055081   469A      5.066059   470A      5.072763  
     471A      5.097284   472A      5.122339   473A      5.138341  
     474A      5.159087   475A      5.179954   476A      5.194152  
     477A      5.227935   478A      5.252030   479A      5.263098  
     480A      5.291596   481A      5.297944   482A      5.323041  
     483A      5.343586   484A      5.380412   485A      5.405353  
     486A      5.436072   487A      5.477774   488A      5.489488  
     489A      5.516154   490A      5.537795   491A      5.553395  
     492A      5.593382   493A      5.600427   494A      5.623030  
     495A      5.623661   496A      5.660854   497A      5.688825  
     498A      5.712132   499A      5.722096   500A      5.729952  
     501A      5.791862   502A      5.795973   503A      5.841769  
     504A      5.887441   505A      5.914347   506A      5.956519  
     507A      5.963813   508A      5.985984   509A      6.031080  
     510A      6.084688   511A      6.117104   512A      6.192543  
     513A      6.261053   514A      6.304166   515A      6.350045  
     516A      6.406411   517A      6.452292   518A      6.489416  
     519A      6.681503   520A      6.709487   521A      6.762180  
     522A      6.768170   523A      6.807977   524A      6.825228  
     525A      6.843910   526A      6.864489   527A      6.908522  
     528A      6.943912   529A      6.946276   530A      6.965465  
     531A      6.977854   532A      6.989248   533A      7.014211  
     534A      7.031447   535A      7.057707   536A      7.069385  
     537A      7.083070   538A      7.108179   539A      7.129838  
     540A      7.152418   541A      7.214978   542A      7.219036  
     543A      7.237787   544A      7.244343   545A      7.259231  
     546A      7.296656   547A      7.308726   548A      7.327902  
     549A      7.334280   550A      7.338573   551A      7.376302  
     552A      7.400962   553A      7.404583   554A      7.441384  
     555A      7.443957   556A      7.472908   557A      7.502853  
     558A      7.524180   559A      7.581075   560A      7.591385  
     561A      7.609792   562A      7.672196   563A      7.674401  
     564A      7.707676   565A      7.715744   566A      7.731046  
     567A      7.741268   568A      7.785661   569A      7.799389  
     570A      7.848571   571A      7.877647   572A      7.889559  
     573A      7.920869   574A      7.954950   575A      7.975354  
     576A      7.990569   577A      8.004016   578A      8.022342  
     579A      8.033302   580A      8.043212   581A      8.055531  
     582A      8.087205   583A      8.100107   584A      8.110031  
     585A      8.134421   586A      8.146802   587A      8.164870  
     588A      8.204760   589A      8.229075   590A      8.237400  
     591A      8.298053   592A      8.317935   593A      8.368476  
     594A      8.395194   595A      8.407855   596A      8.484206  
     597A      8.554744   598A      8.574746   599A      8.605422  
     600A      8.640556   601A      8.656302   602A      8.677485  
     603A      8.743918   604A      8.802075   605A      8.824766  
     606A      8.835758   607A      8.852806   608A      8.863461  
     609A      8.893770   610A      8.902140   611A      8.939423  
     612A      8.951534   613A      8.992413   614A      9.007757  
     615A      9.042672   616A      9.083564   617A      9.107986  
     618A      9.138423   619A      9.201028   620A      9.222218  
     621A      9.251994   622A      9.355055   623A      9.376597  
     624A      9.432518   625A      9.452215   626A      9.479829  
     627A      9.510280   628A      9.577157   629A      9.582563  
     630A      9.608478   631A      9.620708   632A      9.669686  
     633A      9.699317   634A      9.722277   635A      9.738014  
     636A      9.745762   637A      9.759916   638A      9.779085  
     639A      9.815255   640A      9.815543   641A      9.841700  
     642A      9.852791   643A      9.868676   644A      9.888198  
     645A      9.890586   646A      9.899315   647A      9.939479  
     648A      9.969842   649A      9.986835   650A     10.011238  
     651A     10.067992   652A     10.128310   653A     10.136301  
     654A     10.147426   655A     10.180868   656A     10.190037  
     657A     10.249273   658A     10.330714   659A     10.362224  
     660A     10.388502   661A     10.466355   662A     10.474852  
     663A     10.493960   664A     10.521988   665A     10.569178  
     666A     10.601739   667A     10.663377   668A     10.718481  
     669A     10.731887   670A     10.752296   671A     10.788713  
     672A     10.799964   673A     10.812594   674A     10.837245  
     675A     10.842749   676A     10.865872   677A     10.884046  
     678A     10.917361   679A     10.927281   680A     10.939903  
     681A     10.973875   682A     11.018603   683A     11.185530  
     684A     11.230840   685A     11.253335   686A     11.256822  
     687A     11.292932   688A     11.324052   689A     11.365046  
     690A     11.400581   691A     11.418069   692A     11.477848  
     693A     11.503543   694A     11.561503   695A     11.618323  
     696A     11.686343   697A     11.723892   698A     11.864744  
     699A     11.900597   700A     11.935469   701A     12.011697  
     702A     12.042321   703A     12.074676   704A     12.088139  
     705A     12.113303   706A     12.149680   707A     12.190008  
     708A     12.199974   709A     12.240725   710A     12.290557  
     711A     12.296695   712A     12.307575   713A     12.341587  
     714A     12.381872   715A     12.397723   716A     12.410088  
     717A     12.467415   718A     12.487139   719A     12.693576  
     720A     12.786510   721A     12.930215   722A     13.048879  
     723A     13.186022   724A     13.274899   725A     13.323872  
     726A     13.347250   727A     13.437670   728A     13.445024  
     729A     13.535716   730A     13.790139   731A     13.874198  
     732A     14.176527   733A     14.338630   734A     14.349127  
     735A     14.468287   736A     14.568683   737A     14.626682  
     738A     14.669963   739A     14.904401   740A     14.920520  
     741A     14.989054   742A     15.058653   743A     15.117239  
     744A     15.279992   745A     15.400295   746A     15.642359  
     747A     16.563920   748A     16.782832   749A     17.233899  
     750A     17.475107   751A     17.497573   752A     17.528265  
     753A     17.609713   754A     17.680284   755A     17.693141  
     756A     17.751829   757A     17.977501   758A     18.315334  
     759A     19.026281   760A     21.441384   761A     22.941770  
     762A     23.633609   763A     24.335748   764A     25.826738  
     765A     25.871874   766A     25.950024   767A     38.660590  
     768A     46.055873   769A     71.903386   770A     71.936558  
     771A    124.334636   772A    141.852281  

    Final Occupation by Irrep:
              A 
    DOCC [     5 ]

  @DF-RHF Final Energy:   -76.06538669705932

   => Energetics <=

    Nuclear Repulsion Energy =              9.1303212196584678
    One-Electron Energy =                -122.9447224586492666
    Two-Electron Energy =                  37.7490145419314658
    Total Energy =                        -76.0653866970593242

Computation Completed


Properties will be evaluated at   0.000000,   0.000000,   0.000000 [a0]

Properties computed using the SCF density matrix

  Nuclear Dipole Moment: [e a0]
     X:   -25.5369      Y:    30.5598      Z:   -20.8754

  Electronic Dipole Moment: [e a0]
     X:    26.0574      Y:   -29.9834      Z:    20.9796

  Dipole Moment: [e a0]
     X:     0.5205      Y:     0.5764      Z:     0.1042     Total:     0.7836

  Dipole Moment: [D]
     X:     1.3230      Y:     1.4650      Z:     0.2648     Total:     1.9917


[...]
     321A      2.263486   322A      2.268876   323A      2.280415  
     324A      2.288374   325A      2.303645   326A      2.306316  
     327A      2.318536   328A      2.324732   329A      2.333269  
     330A      2.343135   331A      2.344679   332A      2.363763  
     333A      2.372958   334A      2.388047   335A      2.408411  
     336A      2.415337   337A      2.419514   338A      2.431773  
     339A      2.447977   340A      2.457626   341A      2.469449  
     342A      2.498673   343A      2.509948   344A      2.514371  
     345A      2.523203   346A      2.529721   347A      2.570639  
     348A      2.573154   349A      2.579998   350A      2.585833  
     351A      2.603171   352A      2.623774   353A      2.652591  
     354A      2.666410   355A      2.683779   356A      2.688555  
     357A      2.695648   358A      2.714063   359A      2.733104  
     360A      2.734892   361A      2.759261   362A      2.796533  
     363A      2.798897   364A      2.809335   365A      2.823307  
     366A      2.827974   367A      2.847582   368A      2.859543  
     369A      2.863816   370A      2.880578   371A      2.887547  
     372A      2.913093   373A      2.917739   374A      2.929261  
     375A      2.944055   376A      2.947961   377A      2.970629  
     378A      2.984573   379A      2.989023   380A      3.005011  
     381A      3.019357   382A      3.044244   383A      3.047086  
     384A      3.079992   385A      3.091703   386A      3.095229  
     387A      3.106747   388A      3.124720   389A      3.129364  
     390A      3.138676   391A      3.149222   392A      3.153148  
     393A      3.160226   394A      3.171211   395A      3.180379  
     396A      3.188174   397A      3.204016   398A      3.213598  
     399A      3.240321   400A      3.250912   401A      3.261735  
     402A      3.287507   403A      3.301886   404A      3.320166  
     405A      3.341660   406A      3.347138   407A      3.358294  
     408A      3.416054   409A      3.421966   410A      3.432809  
     411A      3.448330   412A      3.517390   413A      3.528267  
     414A      3.545668   415A      3.561728   416A      3.575679  
     417A      3.611365   418A      3.622857   419A      3.631823  
     420A      3.671755   421A      3.687148   422A      3.689395  
     423A      3.698780   424A      3.719234   425A      3.719880  
     426A      3.744744   427A      3.763212   428A      3.763691  
     429A      3.785645   430A      3.787809   431A      3.820755  
     432A      3.846254   433A      3.868873   434A      3.876303  
     435A      3.888307   436A      3.894639   437A      3.907484  
     438A      3.922037   439A      3.949349   440A      3.962272  
     441A      3.967777   442A      3.992408   443A      3.999148  
     444A      4.000313   445A      4.009216   446A      4.035699  
     447A      4.052113   448A      4.054250   449A      4.082616  
     450A      4.088487   451A      4.113196   452A      4.120070  
     453A      4.140155   454A      4.146502   455A      4.164881  
     456A      4.173453   457A      4.181679   458A      4.183875  
     459A      4.188018   460A      4.195138   461A      4.211421  
     462A      4.219173   463A      4.225152   464A      4.251379  
     465A      4.261760   466A      4.276459   467A      4.278179  
     468A      4.282522   469A      4.299652   470A      4.310593  
     471A      4.338046   472A      4.354300   473A      4.366764  
     474A      4.395539   475A      4.405965   476A      4.411916  
     477A      4.425764   478A      4.447328   479A      4.451499  
     480A      4.483468   481A      4.488783   482A      4.499608  
     483A      4.521283   484A      4.528848   485A      4.548888  
     486A      4.551233   487A      4.577996   488A      4.591850  
     489A      4.596581   490A      4.603930   491A      4.621741  
     492A      4.642964   493A      4.663431   494A      4.679474  
     495A      4.686832   496A      4.721179   497A      4.732875  
     498A      4.748315   499A      4.763506   500A      4.780473  
     501A      4.796337   502A      4.803813   503A      4.808850  
     504A      4.822327   505A      4.827582   506A      4.849186  
     507A      4.873982   508A      4.900198   509A      4.912632  
     510A      4.957112   511A      4.959010   512A      5.015331  
     513A      5.030658   514A      5.039951   515A      5.050182  
     516A      5.099658   517A      5.115427   518A      5.132634  
     519A      5.149400   520A      5.183239   521A      5.189786  
     522A      5.248250   523A      5.264790   524A      5.309699  
     525A      5.325785   526A      5.360943   527A      5.398926  
     528A      5.427322   529A      5.437032   530A      5.551140  
     531A      5.552509   532A      5.573133   533A      5.751671  
     534A      5.882478   535A      5.905730   536A      5.965909  
     537A      6.031695   538A      6.102402   539A      6.140609  
     540A      6.207745   541A      6.225578   542A      6.232985  
     543A      6.253407   544A      6.293540   545A      6.319545  
     546A      6.334984   547A      6.393579   548A      6.440100  
     549A      6.477289   550A      6.539650   551A      6.560501  
     552A      6.613606   553A      6.643198   554A      6.663095  
     555A      6.681487   556A      6.686911   557A      6.729313  
     558A      6.743643   559A      6.765297   560A      6.794334  
     561A      6.808157   562A      6.827100   563A      6.841206  
     564A      6.854906   565A      6.866764   566A      6.873311  
     567A      6.904390   568A      6.914233   569A      6.928263  
     570A      6.948916   571A      6.979558   572A      6.982924  
     573A      7.003465   574A      7.018833   575A      7.046151  
     576A      7.063146   577A      7.093022   578A      7.115955  
     579A      7.135751   580A      7.143012   581A      7.165500  
     582A      7.179116   583A      7.214237   584A      7.229621  
     585A      7.263334   586A      7.334322   587A      7.338070  
     588A      7.362453   589A      7.384222   590A      7.396747  
     591A      7.435642   592A      7.493589   593A      7.501802  
     594A      7.661988   595A      7.682917   596A      7.697455  
     597A      7.705656   598A      7.727278   599A      7.743088  
     600A      7.748274   601A      7.766255   602A      7.778227  
     603A      7.789364   604A      7.803570   605A      7.815041  
     606A      7.821660   607A      7.836906   608A      7.851665  
     609A      7.860429   610A      7.875362   611A      7.881274  
     612A      7.916546   613A      7.920658   614A      7.938313  
     615A      7.968841   616A      7.995077   617A      8.026032  
     618A      8.029642   619A      8.042895   620A      8.054641  
     621A      8.144515   622A      8.208632   623A      8.246442  
     624A      8.317680   625A      8.345253   626A      8.359340  
     627A      8.373700   628A      8.441789   629A      8.488675  
     630A      8.537927   631A      8.578057   632A      8.600021  
     633A      8.618933   634A      8.644783   635A      8.658184  
     636A      8.668033   637A      8.675526   638A      8.678975  
     639A      8.697877   640A      8.719792   641A      8.726189  
     642A      8.740264   643A      8.781555   644A      8.815675  
     645A      8.860628   646A      8.906107   647A      8.960711  
     648A      8.999868   649A      9.010943   650A      9.015888  
     651A      9.060635   652A      9.075647   653A      9.086181  
     654A      9.094136   655A      9.117179   656A      9.216929  
     657A      9.230208   658A      9.237939   659A      9.252068  
     660A      9.270611   661A      9.296944   662A      9.311741  
     663A      9.356222   664A      9.372867   665A      9.471891  
     666A      9.487068   667A      9.510682   668A      9.575774  
     669A      9.634019   670A      9.658483   671A      9.664011  
     672A      9.669793   673A      9.685378   674A      9.695687  
     675A      9.732567   676A      9.811243   677A      9.845047  
     678A      9.877675   679A      9.888367   680A      9.917733  
     681A      9.944680   682A      9.952230   683A     10.013106  
     684A     10.039130   685A     10.043417   686A     10.081961  
     687A     10.133061   688A     10.217750   689A     10.238317  
     690A     10.260308   691A     10.275386   692A     10.351558  
     693A     10.354105   694A     10.386855   695A     10.392347  
     696A     10.411240   697A     10.454671   698A     10.457170  
     699A     10.491322   700A     10.788229   701A     10.840289  
     702A     10.852016   703A     10.862316   704A     10.883515  
     705A     10.911178   706A     10.917934   707A     10.930886  
     708A     10.971410   709A     11.012770   710A     11.032542  
     711A     11.040865   712A     11.044064   713A     11.069543  
     714A     11.088229   715A     11.093536   716A     11.095818  
     717A     11.140694   718A     11.149267   719A     11.156879  
     720A     11.173123   721A     11.197255   722A     11.252927  
     723A     11.299479   724A     11.327783   725A     11.442277  
     726A     11.450818   727A     11.510544   728A     11.539875  
     729A     11.552502   730A     11.730484   731A     11.823767  
     732A     11.874615   733A     12.009271   734A     12.015048  
     735A     12.126700   736A     12.171704   737A     12.210244  
     738A     12.222676   739A     12.319549   740A     12.398826  
     741A     12.633510   742A     12.745719   743A     12.750835  
     744A     12.810262   745A     12.821506   746A     12.914127  
     747A     13.092464   748A     13.191022   749A     13.204496  
     750A     13.218507   751A     13.249132   752A     13.262201  
     753A     13.313669   754A     13.389445   755A     13.442917  
     756A     13.520461   757A     13.558088   758A     13.668687  
     759A     13.967484   760A     13.998603   761A     14.058807  
     762A     14.474732   763A     14.792200   764A     14.883386  
     765A     15.237440   766A     16.884059   767A     17.302273  
     768A     24.151484   769A     28.792486   770A     28.811060  
     771A     43.623538   772A     45.541565  

    Final Occupation by Irrep:
              A 
    DOCC [    26 ]

  @DF-RHF Final Energy:  -627.73938500829661

   => Energetics <=

    Nuclear Repulsion Energy =            236.7961761652951793
    One-Electron Energy =               -1334.7510874654390136
    Two-Electron Energy =                 470.2155262918471408
    Total Energy =                       -627.7393850082966082

Computation Completed


Properties will be evaluated at   0.000000,   0.000000,   0.000000 [a0]

Properties computed using the SCF density matrix

  Nuclear Dipole Moment: [e a0]
     X:    -1.1977      Y:    -4.0579      Z:    -1.9033

  Electronic Dipole Moment: [e a0]
     X:     1.4276      Y:     2.8448      Z:     2.5051

  Dipole Moment: [e a0]
     X:     0.2299      Y:    -1.2131      Z:     0.6017     Total:     1.3735

  Dipole Moment: [D]
     X:     0.5844      Y:    -3.0833      Z:     1.5295     Total:     3.4910


*** tstop() called on node62.bme.utexas.edu at Thu Apr 23 18:42:58 2020
Module time:
	user time   =     200.79 seconds =       3.35 minutes
	system time =      15.01 seconds =       0.25 minutes
	total time  =         31 seconds =       0.52 minutes
Total time:
	user time   =    1182.83 seconds =      19.71 minutes
	system time =     100.92 seconds =       1.68 minutes
	total time  =        206 seconds =       3.43 minutes

*** tstart() called on node62.bme.utexas.edu
*** at Thu Apr 23 18:42:58 2020


  //>>>>>>>>>>>>>>>>>>>>>>>>>>>>>>>>>>>//
  //               DFMP2               //
  //<<<<<<<<<<<<<<<<<<<<<<<<<<<<<<<<<<<//

   => Loading Basis Set <=

    Name: (AUG-CC-PVQZ AUX)
    Role: RIFIT
    Keyword: DF_BASIS_MP2
    atoms 1, 4        entry C          line   184 file /home/liuchw/anaconda3/envs/psi4env/share/psi4/basis/aug-cc-pvqz-ri.gbs 
    atoms 2, 11       entry O          line   332 file /home/liuchw/anaconda3/envs/psi4env/share/psi4/basis/aug-cc-pvqz-ri.gbs 
    atoms 3           entry S          line   824 file /home/liuchw/anaconda3/envs/psi4env/share/psi4/basis/aug-cc-pvqz-ri.gbs 
    atoms 5-10, 12-13 entry H          line    30 file /home/liuchw/anaconda3/envs/psi4env/share/psi4/basis/aug-cc-pvqz-ri.gbs 

	 --------------------------------------------------------
	                          DF-MP2                         
	      2nd-Order Density-Fitted Moller-Plesset Theory     
	              RMP2 Wavefunction,   8 Threads             
	                                                         
	        Rob Parrish, Justin Turney, Andy Simmonett,      
	           Ed Hohenstein, and C. David Sherrill          
	 --------------------------------------------------------

   => Auxiliary Basis Set <=

  Basis Set: (AUG-CC-PVQZ AUX)
    Blend: AUG-CC-PVQZ-RI
    Number of shells: 348
    Number of basis function: 1506
    Number of Cartesian functions: 2056
    Spherical Harmonics?: true
    Max angular momentum: 5

	 --------------------------------------------------------
	                 NBF =   772, NAUX =  1506
	 --------------------------------------------------------
	   CLASS    FOCC     OCC    AOCC    AVIR     VIR    FVIR
	   PAIRS       0      26      26     746     746       0
	 --------------------------------------------------------

	-----------------------------------------------------------
	 ==================> DF-MP2 Energies <==================== 
	-----------------------------------------------------------
	 Reference Energy          =    -627.7393850082966082 [Eh]
	 Singles Energy            =      -0.0000000000000000 [Eh]
	 Same-Spin Energy          =      -0.2995376961894913 [Eh]
	 Opposite-Spin Energy      =      -1.0157881536351883 [Eh]
	 Correlation Energy        =      -1.3153258498246796 [Eh]
	 Total Energy              =    -629.0547108581213251 [Eh]
	-----------------------------------------------------------
	 ================> DF-SCS-MP2 Energies <================== 
	-----------------------------------------------------------
	 SCS Same-Spin Scale       =       0.3333333333333333 [-]
	 SCS Opposite-Spin Scale   =       1.2000000000000000 [-]
	 SCS Same-Spin Energy      =      -0.0998458987298304 [Eh]
	 SCS Opposite-Spin Energy  =      -1.2189457843622258 [Eh]
	 SCS Correlation Energy    =      -1.3187916830920563 [Eh]
	 SCS Total Energy          =    -629.0581766913886668 [Eh]
	-----------------------------------------------------------


*** tstop() called on node62.bme.utexas.edu at Thu Apr 23 18:43:19 2020
Module time:
	user time   =     105.53 seconds =       1.76 minutes
	system time =       7.13 seconds =       0.12 minutes
	total time  =         21 seconds =       0.35 minutes
Total time:
	user time   =    1288.37 seconds =      21.47 minutes
	system time =     108.05 seconds =       1.80 minutes
	total time  =        227 seconds =       3.78 minutes

  //>>>>>>>>>>>>>>>>>>>>>>>>>>>>>>>>>>>//
  //  CBS Results: mp2/aug-cc-pv[tq]z  //
  //<<<<<<<<<<<<<<<<<<<<<<<<<<<<<<<<<<<//


   ==> HF <==

   HI-zeta (4) Energy:               -627.739385008297


   ==> Helgaker 2-point correlated extrapolation for method: MP2 <==

   LO-zeta (3) Energy:               -628.893361341905
   HI-zeta (4) Energy:               -629.054710858121
   Alpha (exponent) Value:             3.000000000000
   Extrapolated Energy:              -629.172452396982

   @Extrapolated MP2/(T,Q):          -629.172452396982



   ==> Helgaker 2-point correlated extrapolation for method: HF <==

   LO-zeta (3) Energy:               -627.716372558537
   HI-zeta (4) Energy:               -627.739385008297
   Alpha (exponent) Value:             3.000000000000
   Extrapolated Energy:              -627.756177877040

   @Extrapolated HF/(T,Q):           -627.756177877040


   ==> Components <==

  ---------------------------------------------------------------------------------------------------------
                          Method / Basis                      Rqd      Energy [Eh]   Variable
  ---------------------------------------------------------------------------------------------------------
                              hf / aug-cc-pvtz                  *    -627.71637256   HF TOTAL ENERGY
                             mp2 / aug-cc-pvtz                  *    -628.89336134   MP2 TOTAL ENERGY
                              hf / aug-cc-pvqz                  *    -627.73938501   HF TOTAL ENERGY
                             mp2 / aug-cc-pvqz                  *    -629.05471086   MP2 TOTAL ENERGY
  ---------------------------------------------------------------------------------------------------------

   ==> Stages <==

  ---------------------------------------------------------------------------------------------------------
      Stage               Method / Basis                       Wt      Energy [Eh]   Scheme
  ---------------------------------------------------------------------------------------------------------
        scf                   hf / aug-cc-pvqz                  1    -627.73938501   xtpl_highest_1
       corl                  mp2 / aug-cc-pv[tq]z               1    -629.17245240   corl_xtpl_helgaker_2
       corl                   hf / aug-cc-pv[tq]z              -1    -627.75617788   corl_xtpl_helgaker_2
  ---------------------------------------------------------------------------------------------------------

   ==> CBS <==

  ---------------------------------------------------------------------------------------------------------
      Stage               Method / Basis                               Energy [Eh]   Scheme
  ---------------------------------------------------------------------------------------------------------
        scf                   hf / aug-cc-pvqz                       -627.73938501   xtpl_highest_1
       corl                  mp2 / aug-cc-pv[tq]z                      -1.41627452   corl_xtpl_helgaker_2
      total                  CBS                                     -629.15565953   
  ---------------------------------------------------------------------------------------------------------
   => Loading Basis Set <=

    Name: DEF2-SVP
    Role: ORBITAL
    Keyword: BASIS
    atoms 1, 4        entry C          line    90 file /home/liuchw/anaconda3/envs/psi4env/share/psi4/basis/def2-svp.gbs 
    atoms 2, 11       entry O          line   130 file /home/liuchw/anaconda3/envs/psi4env/share/psi4/basis/def2-svp.gbs 
    atoms 3           entry S          line   328 file /home/liuchw/anaconda3/envs/psi4env/share/psi4/basis/def2-svp.gbs 
    atoms 5-10, 12-13 entry H          line    15 file /home/liuchw/anaconda3/envs/psi4env/share/psi4/basis/def2-svp.gbs 


       N-Body: Complex Energy (fragments = (1, 2), basis = (1, 2):  -629.15565952823886)

   ==> N-Body: Counterpoise Corrected (CP) energies <==

   n-Body     Total Energy [Eh]       I.E. [kcal/mol]      Delta [kcal/mol]
        1     -629.152499243402        0.000000000000        0.000000000000
        2     -629.155705272990       -2.011813939467       -2.011813939467

   => Loading Basis Set <=

    Name: DEF2-SVP
    Role: ORBITAL
    Keyword: BASIS
    atoms 1, 4        entry C          line    90 file /home/liuchw/anaconda3/envs/psi4env/share/psi4/basis/def2-svp.gbs 
    atoms 2, 11       entry O          line   130 file /home/liuchw/anaconda3/envs/psi4env/share/psi4/basis/def2-svp.gbs 
    atoms 3           entry S          line   328 file /home/liuchw/anaconda3/envs/psi4env/share/psi4/basis/def2-svp.gbs 
    atoms 5-10, 12-13 entry H          line    15 file /home/liuchw/anaconda3/envs/psi4env/share/psi4/basis/def2-svp.gbs 


    Psi4 stopped on: Thursday, 23 April 2020 06:43PM
    Psi4 wall time for execution: 0:03:47.01

*** Psi4 exiting successfully. Buy a developer a beer!
