
    -----------------------------------------------------------------------
          Psi4: An Open-Source Ab Initio Electronic Structure Package
                               Psi4 1.4a2.dev224 

                         Git: Rev {master} e453b16 


    R. M. Parrish, L. A. Burns, D. G. A. Smith, A. C. Simmonett,
    A. E. DePrince III, E. G. Hohenstein, U. Bozkaya, A. Yu. Sokolov,
    R. Di Remigio, R. M. Richard, J. F. Gonthier, A. M. James,
    H. R. McAlexander, A. Kumar, M. Saitow, X. Wang, B. P. Pritchard,
    P. Verma, H. F. Schaefer III, K. Patkowski, R. A. King, E. F. Valeev,
    F. A. Evangelista, J. M. Turney, T. D. Crawford, and C. D. Sherrill,
    J. Chem. Theory Comput. 13(7) pp 3185--3197 (2017).
    (doi: 10.1021/acs.jctc.7b00174)


                         Additional Contributions by
    P. Kraus, H. Kruse, M. H. Lechner, M. C. Schieber, R. A. Shaw,
    A. Alenaizan, R. Galvelis, Z. L. Glick, S. Lehtola, and J. P. Misiewicz

    -----------------------------------------------------------------------


    Psi4 started on: Saturday, 11 April 2020 04:46PM

    Process ID: 59739
    Host:       node59.bme.utexas.edu
    PSIDATADIR: /home/liuchw/anaconda3/envs/psi4env/share/psi4
    Memory:     500.0 MiB
    Threads:    6
    
  ==> Input File <==

--------------------------------------------------------------------------
#Generated by lconvert.py for cbs job

memory 40 GB

molecule  {
0 1
  C       -3.2289460    -0.5624140     0.9038820
  O       -1.6145690     1.5396420     0.8254430
  S       -2.0221710     0.4454340     1.7798090
  C       -0.6847700    -0.7578760     1.7288330
  H       -3.4898540    -1.4266920     1.5114930
  H       -4.0973420     0.0694820     0.7363400
  H       -2.7987240    -0.8605900    -0.0502470
  H       -0.9666940    -1.6476190     2.2883110
  H       -0.4795180    -0.9906350     0.6859440
  H        0.1827710    -0.2879750     2.1838340
--
0 1
  O       -3.8220980     2.1964500    -0.0559020
  H       -2.8908980     2.1241650     0.2064090
  H       -3.9639410     3.1382360    -0.1598750
units angstrom
no_reorient
symmetry c1
}

set {
scf_type DF
mp2_type DF
e_convergence 7
reference rhf
}

energy('mp2/aug-cc-pv[tq]z', bsse_type='cp')
--------------------------------------------------------------------------

  Memory set to  37.253 GiB by Python driver.

Scratch directory: /scratch//


   ===> N-Body Interaction Abacus <===
        BSSE Treatment:                     cp
        Number of 1-body computations:     4
        Number of 2-body computations:     1

   ==> N-Body: Now computing 1-body complexes <==


       N-Body: Computing complex (1/4) with fragments (2,) in the basis of fragments (2,).


Scratch directory: /scratch//

  //>>>>>>>>>>>>>>>>>>>>>>>>>>>>>>>>>>>//
  //   CBS Setup: mp2/aug-cc-pv[tq]z   //
  //<<<<<<<<<<<<<<<<<<<<<<<<<<<<<<<<<<<//

    Naive listing of computations required.
             hf / aug-cc-pvqz              for  HF TOTAL ENERGY
            mp2 / aug-cc-pvtz              for  MP2 TOTAL ENERGY
            mp2 / aug-cc-pvqz              for  MP2 TOTAL ENERGY
             hf / aug-cc-pvtz              for  HF TOTAL ENERGY
             hf / aug-cc-pvqz              for  HF TOTAL ENERGY

    Enlightened listing of computations required.
            mp2 / aug-cc-pvtz              for  MP2 TOTAL ENERGY
            mp2 / aug-cc-pvqz              for  MP2 TOTAL ENERGY

    Full listing of computations to be obtained (required and bonus).
             hf / aug-cc-pvtz              for  HF TOTAL ENERGY
            mp2 / aug-cc-pvtz              for  MP2 TOTAL ENERGY
             hf / aug-cc-pvqz              for  HF TOTAL ENERGY
            mp2 / aug-cc-pvqz              for  MP2 TOTAL ENERGY

  //>>>>>>>>>>>>>>>>>>>>>>>>>>>>>>>>>>>>//
  // CBS Computation: MP2 / AUG-CC-PVTZ //
  //<<<<<<<<<<<<<<<<<<<<<<<<<<<<<<<<<<<<//


Scratch directory: /scratch//

*** tstart() called on node59.bme.utexas.edu
*** at Sat Apr 11 16:46:28 2020

   => Loading Basis Set <=

    Name: AUG-CC-PVTZ
    Role: ORBITAL
    Keyword: BASIS
    atoms 1   entry O          line   331 file /home/liuchw/anaconda3/envs/psi4env/share/psi4/basis/aug-cc-pvtz.gbs 
    atoms 2-3 entry H          line    40 file /home/liuchw/anaconda3/envs/psi4env/share/psi4/basis/aug-cc-pvtz.gbs 


         ---------------------------------------------------------
                                   SCF
               by Justin Turney, Rob Parrish, Andy Simmonett
                          and Daniel G. A. Smith
                              RHF Reference
                        6 Threads,  38146 MiB Core
         ---------------------------------------------------------

  ==> Geometry <==

    Molecular point group: c1
    Full point group: C1

    Geometry (in Angstrom), charge = 0, multiplicity = 1:

       Center              X                  Y                   Z               Mass       
    ------------   -----------------  -----------------  -----------------  -----------------
         O           -1.559908599780     1.589565944789    -1.183381272302    15.994914619570
         H           -0.628708599780     1.517280944789    -0.921070272302     1.007825032230
         H           -1.701751599780     2.531351944789    -1.287354272302     1.007825032230

  Running in c1 symmetry.

  Rotational constants: A =     24.13308  B =      0.14567  C =      0.14497 [cm^-1]
  Rotational constants: A = 723491.40021  B =   4367.04734  C =   4346.02216 [MHz]
  Nuclear repulsion =    9.130321219658466

  Charge       = 0
  Multiplicity = 1
  Electrons    = 10
  Nalpha       = 5
  Nbeta        = 5

  ==> Algorithm <==

  SCF Algorithm Type is DF.
  DIIS enabled.
  MOM disabled.
  Fractional occupation disabled.
  Guess Type is SAD.
  Energy threshold   = 1.00e-07
  Density threshold  = 1.00e-08
  Integral threshold = 0.00e+00

  ==> Primary Basis <==

  Basis Set: AUG-CC-PVTZ
    Blend: AUG-CC-PVTZ
    Number of shells: 32
    Number of basis function: 92
    Number of Cartesian functions: 105
    Spherical Harmonics?: true
    Max angular momentum: 3

   => Loading Basis Set <=

    Name: (AUG-CC-PVTZ AUX)
    Role: JKFIT
    Keyword: DF_BASIS_SCF
    atoms 1   entry O          line   286 file /home/liuchw/anaconda3/envs/psi4env/share/psi4/basis/aug-cc-pvtz-jkfit.gbs 
    atoms 2-3 entry H          line    70 file /home/liuchw/anaconda3/envs/psi4env/share/psi4/basis/aug-cc-pvtz-jkfit.gbs 

  ==> Pre-Iterations <==

   -------------------------------------------------------
    Irrep   Nso     Nmo     Nalpha   Nbeta   Ndocc  Nsocc
   -------------------------------------------------------
     A         92      92       0       0       0       0
   -------------------------------------------------------
    Total      92      92       5       5       5       0
   -------------------------------------------------------

  ==> Integral Setup <==

  DFHelper Memory: AOs need 0.015 GiB; user supplied 27.940 GiB. Using in-core AOs.

  ==> MemDFJK: Density-Fitted J/K Matrices <==

    J tasked:                   Yes
    K tasked:                   Yes
    wK tasked:                   No
    OpenMP threads:               6
    Memory [MiB]:             28610
    Algorithm:                 Core
    Schwarz Cutoff:           1E-12
    Mask sparsity (%):       0.0000
    Fitting Condition:        1E-10

   => Auxiliary Basis Set <=

  Basis Set: (AUG-CC-PVTZ AUX)
    Blend: AUG-CC-PVTZ-JKFIT
    Number of shells: 58
    Number of basis function: 196
    Number of Cartesian functions: 241
    Spherical Harmonics?: true
    Max angular momentum: 4

  Minimum eigenvalue in the overlap matrix is 3.8975021931E-04.
  Using Symmetric Orthogonalization.

  SCF Guess: Superposition of Atomic Densities via on-the-fly atomic UHF.

  ==> Iterations <==

                           Total Energy        Delta E     RMS |[F,P]|

   @DF-RHF iter SAD:   -75.47045906401205   -7.54705e+01   0.00000e+00 
   @DF-RHF iter   1:   -75.97539446420315   -5.04935e-01   5.08792e-03 DIIS
   @DF-RHF iter   2:   -76.02774602196394   -5.23516e-02   3.48701e-03 DIIS
   @DF-RHF iter   3:   -76.05955286745248   -3.18068e-02   2.37101e-04 DIIS
   @DF-RHF iter   4:   -76.05994829277057   -3.95425e-04   5.73483e-05 DIIS
   @DF-RHF iter   5:   -76.05997359694220   -2.53042e-05   1.30834e-05 DIIS
   @DF-RHF iter   6:   -76.05997568382513   -2.08688e-06   2.86876e-06 DIIS
   @DF-RHF iter   7:   -76.05997579387692   -1.10052e-07   5.14632e-07 DIIS
   @DF-RHF iter   8:   -76.05997579698075   -3.10384e-09   8.67544e-08 DIIS
   @DF-RHF iter   9:   -76.05997579705013   -6.93774e-11   2.15078e-08 DIIS
   @DF-RHF iter  10:   -76.05997579705422   -4.09273e-12   3.17374e-09 DIIS
  Energy and wave function converged.


  ==> Post-Iterations <==

    Orbital Energies [Eh]
    ---------------------

    Doubly Occupied:                                                      

       1A    -20.568556     2A     -1.350367     3A     -0.713435  
       4A     -0.584301     5A     -0.509902  

    Virtual:                                                              

       6A      0.029327     7A      0.047679     8A      0.135871  
       9A      0.158909    10A      0.175035    11A      0.183075  
      12A      0.226870    13A      0.244790    14A      0.265367  
      15A      0.299940    16A      0.310070    17A      0.365676  
      18A      0.436686    19A      0.465591    20A      0.599061  
      21A      0.658162    22A      0.707924    23A      0.722709  
      24A      0.731845    25A      0.829582    26A      0.846043  
      27A      0.892705    28A      0.911907    29A      0.918745  
      30A      0.922083    31A      0.930483    32A      0.961348  
      33A      1.019478    34A      1.042509    35A      1.082202  
      36A      1.107887    37A      1.175536    38A      1.180781  
      39A      1.262161    40A      1.509135    41A      1.536050  
      42A      1.581298    43A      1.806450    44A      1.817649  
      45A      1.979918    46A      2.115093    47A      2.262497  
      48A      2.315296    49A      2.327301    50A      2.417769  
      51A      2.420213    52A      2.442599    53A      2.480807  
      54A      2.679832    55A      2.699058    56A      2.767743  
      57A      2.815652    58A      2.882467    59A      3.646792  
      60A      3.738048    61A      4.015606    62A      4.079943  
      63A      4.162882    64A      4.243290    65A      4.286853  
      66A      4.374912    67A      4.375999    68A      4.402282  
      69A      4.514731    70A      4.720495    71A      4.833664  
      72A      5.140726    73A      5.140833    74A      5.245293  
      75A      5.313422    76A      5.513423    77A      5.659164  
      78A      6.173606    79A      6.517625    80A      6.713540  
      81A      6.895707    82A      7.132253    83A      7.253836  
      84A      7.296286    85A      7.311618    86A      7.334642  
      87A      7.360450    88A      7.526771    89A      7.893820  
      90A      7.919124    91A      8.789215    92A     15.624076  

    Final Occupation by Irrep:
              A 
    DOCC [     5 ]

  @DF-RHF Final Energy:   -76.05997579705422

   => Energetics <=

    Nuclear Repulsion Energy =              9.1303212196584660
    One-Electron Energy =                -122.9274715020380597
    Two-Electron Energy =                  37.7371744853253617
    Total Energy =                        -76.0599757970542214

Computation Completed


Properties will be evaluated at   0.000000,   0.000000,   0.000000 [a0]

Properties computed using the SCF density matrix

  Nuclear Dipole Moment: [e a0]
     X:   -27.9863      Y:    31.6816      Z:   -22.0634

  Electronic Dipole Moment: [e a0]
     X:    28.5074      Y:   -31.1045      Z:    22.1678

  Dipole Moment: [e a0]
     X:     0.5211      Y:     0.5771      Z:     0.1043     Total:     0.7845

  Dipole Moment: [D]
     X:     1.3245      Y:     1.4668      Z:     0.2652     Total:     1.9941


*** tstop() called on node59.bme.utexas.edu at Sat Apr 11 16:46:30 2020
Module time:
	user time   =       5.79 seconds =       0.10 minutes
	system time =       0.40 seconds =       0.01 minutes
	total time  =          2 seconds =       0.03 minutes
Total time:
	user time   =       5.79 seconds =       0.10 minutes
	system time =       0.40 seconds =       0.01 minutes
	total time  =          2 seconds =       0.03 minutes

*** tstart() called on node59.bme.utexas.edu
*** at Sat Apr 11 16:46:30 2020


  //>>>>>>>>>>>>>>>>>>>>>>>>>>>>>>>>>>>//
  //               DFMP2               //
  //<<<<<<<<<<<<<<<<<<<<<<<<<<<<<<<<<<<//

   => Loading Basis Set <=

    Name: (AUG-CC-PVTZ AUX)
    Role: RIFIT
    Keyword: DF_BASIS_MP2
    atoms 1   entry O          line   264 file /home/liuchw/anaconda3/envs/psi4env/share/psi4/basis/aug-cc-pvtz-ri.gbs 
    atoms 2-3 entry H          line    30 file /home/liuchw/anaconda3/envs/psi4env/share/psi4/basis/aug-cc-pvtz-ri.gbs 

	 --------------------------------------------------------
	                          DF-MP2                         
	      2nd-Order Density-Fitted Moller-Plesset Theory     
	              RMP2 Wavefunction,   6 Threads             
	                                                         
	        Rob Parrish, Justin Turney, Andy Simmonett,      
	           Ed Hohenstein, and C. David Sherrill          
	 --------------------------------------------------------

   => Auxiliary Basis Set <=

  Basis Set: (AUG-CC-PVTZ AUX)
    Blend: AUG-CC-PVTZ-RI
    Number of shells: 56
    Number of basis function: 198
    Number of Cartesian functions: 246
    Spherical Harmonics?: true
    Max angular momentum: 4

	 --------------------------------------------------------
	                 NBF =    92, NAUX =   198
	 --------------------------------------------------------
	   CLASS    FOCC     OCC    AOCC    AVIR     VIR    FVIR
	   PAIRS       0       5       5      87      87       0
	 --------------------------------------------------------

	-----------------------------------------------------------
	 ==================> DF-MP2 Energies <==================== 
	-----------------------------------------------------------
	 Reference Energy          =     -76.0599757970542214 [Eh]
	 Singles Energy            =      -0.0000000000000000 [Eh]
	 Same-Spin Energy          =      -0.0684605921794512 [Eh]
	 Opposite-Spin Energy      =      -0.2155328083287539 [Eh]
	 Correlation Energy        =      -0.2839934005082052 [Eh]
	 Total Energy              =     -76.3439691975624299 [Eh]
	-----------------------------------------------------------
	 ================> DF-SCS-MP2 Energies <================== 
	-----------------------------------------------------------
	 SCS Same-Spin Scale       =       0.3333333333333333 [-]
	 SCS Opposite-Spin Scale   =       1.2000000000000000 [-]
	 SCS Same-Spin Energy      =      -0.0228201973931504 [Eh]
	 SCS Opposite-Spin Energy  =      -0.2586393699945047 [Eh]
	 SCS Correlation Energy    =      -0.2814595673876550 [Eh]
	 SCS Total Energy          =     -76.3414353644418782 [Eh]
	-----------------------------------------------------------


*** tstop() called on node59.bme.utexas.edu at Sat Apr 11 16:46:31 2020
Module time:
	user time   =       2.42 seconds =       0.04 minutes
	system time =       0.16 seconds =       0.00 minutes
	total time  =          1 seconds =       0.02 minutes
Total time:
	user time   =       8.22 seconds =       0.14 minutes
	system time =       0.56 seconds =       0.01 minutes
	total time  =          3 seconds =       0.05 minutes

  //>>>>>>>>>>>>>>>>>>>>>>>>>>>>>>>>>>>>//
  // CBS Computation: MP2 / AUG-CC-PVQZ //
  //<<<<<<<<<<<<<<<<<<<<<<<<<<<<<<<<<<<<//


Scratch directory: /scratch//

*** tstart() called on node59.bme.utexas.edu
*** at Sat Apr 11 16:46:31 2020

   => Loading Basis Set <=

    Name: AUG-CC-PVQZ
    Role: ORBITAL
    Keyword: BASIS
    atoms 1   entry O          line   423 file /home/liuchw/anaconda3/envs/psi4env/share/psi4/basis/aug-cc-pvqz.gbs 
    atoms 2-3 entry H          line    40 file /home/liuchw/anaconda3/envs/psi4env/share/psi4/basis/aug-cc-pvqz.gbs 


         ---------------------------------------------------------
                                   SCF
               by Justin Turney, Rob Parrish, Andy Simmonett
                          and Daniel G. A. Smith
                              RHF Reference
                        6 Threads,  38146 MiB Core
         ---------------------------------------------------------

  ==> Geometry <==

    Molecular point group: c1
    Full point group: C1

    Geometry (in Angstrom), charge = 0, multiplicity = 1:

       Center              X                  Y                   Z               Mass       
    ------------   -----------------  -----------------  -----------------  -----------------
         O           -1.559908599780     1.589565944789    -1.183381272302    15.994914619570
         H           -0.628708599780     1.517280944789    -0.921070272302     1.007825032230
         H           -1.701751599780     2.531351944789    -1.287354272302     1.007825032230

  Running in c1 symmetry.

  Rotational constants: A =     24.13308  B =      0.14567  C =      0.14497 [cm^-1]
  Rotational constants: A = 723491.40021  B =   4367.04734  C =   4346.02216 [MHz]
  Nuclear repulsion =    9.130321219658466

  Charge       = 0
  Multiplicity = 1
  Electrons    = 10
  Nalpha       = 5
  Nbeta        = 5

  ==> Algorithm <==

  SCF Algorithm Type is DF.
  DIIS enabled.
  MOM disabled.
  Fractional occupation disabled.
  Guess Type is SAD.
  Energy threshold   = 1.00e-07
  Density threshold  = 1.00e-08
  Integral threshold = 0.00e+00

  ==> Primary Basis <==

  Basis Set: AUG-CC-PVQZ
    Blend: AUG-CC-PVQZ
    Number of shells: 48
    Number of basis function: 172
    Number of Cartesian functions: 215
    Spherical Harmonics?: true
    Max angular momentum: 4

   => Loading Basis Set <=

    Name: (AUG-CC-PVQZ AUX)
    Role: JKFIT
    Keyword: DF_BASIS_SCF
    atoms 1   entry O          line   318 file /home/liuchw/anaconda3/envs/psi4env/share/psi4/basis/aug-cc-pvqz-jkfit.gbs 
    atoms 2-3 entry H          line    70 file /home/liuchw/anaconda3/envs/psi4env/share/psi4/basis/aug-cc-pvqz-jkfit.gbs 

  ==> Pre-Iterations <==

   -------------------------------------------------------
    Irrep   Nso     Nmo     Nalpha   Nbeta   Ndocc  Nsocc
   -------------------------------------------------------
     A        172     172       0       0       0       0
   -------------------------------------------------------
    Total     172     172       5       5       5       0
   -------------------------------------------------------

  ==> Integral Setup <==

  DFHelper Memory: AOs need 0.074 GiB; user supplied 27.940 GiB. Using in-core AOs.

  ==> MemDFJK: Density-Fitted J/K Matrices <==

    J tasked:                   Yes
    K tasked:                   Yes
    wK tasked:                   No
    OpenMP threads:               6
    Memory [MiB]:             28610
    Algorithm:                 Core
    Schwarz Cutoff:           1E-12
    Mask sparsity (%):       0.0000
    Fitting Condition:        1E-10

   => Auxiliary Basis Set <=

  Basis Set: (AUG-CC-PVQZ AUX)
    Blend: AUG-CC-PVQZ-JKFIT
    Number of shells: 70
    Number of basis function: 294
    Number of Cartesian functions: 400
    Spherical Harmonics?: true
    Max angular momentum: 5

  Minimum eigenvalue in the overlap matrix is 8.8341073625E-05.
  Using Symmetric Orthogonalization.

  SCF Guess: Superposition of Atomic Densities via on-the-fly atomic UHF.

  ==> Iterations <==

                           Total Energy        Delta E     RMS |[F,P]|

   @DF-RHF iter SAD:   -75.47559378699994   -7.54756e+01   0.00000e+00 
   @DF-RHF iter   1:   -75.98045329835546   -5.04860e-01   2.72735e-03 DIIS
   @DF-RHF iter   2:   -76.03290317325065   -5.24499e-02   1.87332e-03 DIIS
   @DF-RHF iter   3:   -76.06490899045895   -3.20058e-02   1.27787e-04 DIIS
   @DF-RHF iter   4:   -76.06530654359258   -3.97553e-04   3.15995e-05 DIIS
   @DF-RHF iter   5:   -76.06533277854443   -2.62350e-05   7.18343e-06 DIIS
   @DF-RHF iter   6:   -76.06533495079714   -2.17225e-06   1.61874e-06 DIIS
   @DF-RHF iter   7:   -76.06533507287314   -1.22076e-07   3.00250e-07 DIIS
   @DF-RHF iter   8:   -76.06533507655315   -3.68001e-09   4.86300e-08 DIIS
   @DF-RHF iter   9:   -76.06533507663178   -7.86287e-11   1.17741e-08 DIIS
   @DF-RHF iter  10:   -76.06533507663613   -4.34852e-12   1.77258e-09 DIIS
  Energy and wave function converged.


  ==> Post-Iterations <==

    Orbital Energies [Eh]
    ---------------------

    Doubly Occupied:                                                      

       1A    -20.566096     2A     -1.349636     3A     -0.713400  
       4A     -0.584349     5A     -0.510036  

    Virtual:                                                              

       6A      0.026853     7A      0.043076     8A      0.114112  
       9A      0.133620    10A      0.150984    11A      0.158640  
      12A      0.184830    13A      0.196967    14A      0.209255  
      15A      0.237389    16A      0.257122    17A      0.291413  
      18A      0.356839    19A      0.389304    20A      0.469722  
      21A      0.508514    22A      0.542062    23A      0.547311  
      24A      0.556283    25A      0.614090    26A      0.632840  
      27A      0.647285    28A      0.663468    29A      0.666230  
      30A      0.685008    31A      0.706546    32A      0.718279  
      33A      0.769301    34A      0.786806    35A      0.801899  
      36A      0.802757    37A      0.843537    38A      0.854518  
      39A      0.968700    40A      1.124829    41A      1.135752  
      42A      1.207733    43A      1.331396    44A      1.436838  
      45A      1.480504    46A      1.509060    47A      1.511868  
      48A      1.527092    49A      1.553969    50A      1.591886  
      51A      1.619924    52A      1.636041    53A      1.662979  
      54A      1.664357    55A      1.689512    56A      1.702811  
      57A      1.735105    58A      1.753189    59A      1.767573  
      60A      1.776281    61A      1.840714    62A      1.865320  
      63A      1.892565    64A      1.913888    65A      1.978477  
      66A      2.009793    67A      2.034264    68A      2.038365  
      69A      2.101798    70A      2.206424    71A      2.217773  
      72A      2.311237    73A      2.438715    74A      2.622878  
      75A      2.628062    76A      2.882143    77A      2.952988  
      78A      2.993411    79A      3.038265    80A      3.053340  
      81A      3.082533    82A      3.267545    83A      3.292493  
      84A      3.305012    85A      3.490900    86A      3.588555  
      87A      3.641750    88A      3.687298    89A      3.716157  
      90A      3.768448    91A      3.924055    92A      4.077840  
      93A      4.166158    94A      4.169501    95A      4.177804  
      96A      4.179951    97A      4.236912    98A      4.328114  
      99A      4.432744   100A      4.573983   101A      4.714220  
     102A      4.743345   103A      4.779872   104A      4.782009  
     105A      4.806788   106A      4.873925   107A      4.994221  
     108A      5.237939   109A      5.313270   110A      5.512786  
     111A      5.520554   112A      5.849537   113A      5.878494  
     114A      6.067302   115A      6.222153   116A      6.823417  
     117A      6.875483   118A      6.876355   119A      6.910195  
     120A      7.714474   121A      7.767270   122A      7.784413  
     123A      7.819270   124A      7.823320   125A      7.896604  
     126A      7.923908   127A      8.017344   128A      8.184891  
     129A      8.193703   130A      8.522613   131A      8.628580  
     132A      8.642674   133A      8.702947   134A      8.770773  
     135A      8.840353   136A      8.988740   137A      9.036178  
     138A      9.202317   139A      9.651848   140A      9.878557  
     141A      9.894964   142A      9.913584   143A      9.985331  
     144A     10.318548   145A     10.442041   146A     10.697748  
     147A     11.012517   148A     11.075758   149A     11.097435  
     150A     11.269430   151A     11.309175   152A     11.409330  
     153A     11.704954   154A     11.788016   155A     11.834034  
     156A     11.983649   157A     12.188650   158A     12.199382  
     159A     12.598051   160A     12.717609   161A     12.806401  
     162A     12.896235   163A     13.181667   164A     13.951278  
     165A     13.998944   166A     14.463401   167A     14.780663  
     168A     14.865474   169A     15.212891   170A     16.808600  
     171A     17.256179   172A     45.452224  

    Final Occupation by Irrep:
              A 
    DOCC [     5 ]

  @DF-RHF Final Energy:   -76.06533507663613

   => Energetics <=

    Nuclear Repulsion Energy =              9.1303212196584660
    One-Electron Energy =                -122.9442820242006462
    Two-Electron Energy =                  37.7486257279060382
    Total Energy =                        -76.0653350766361314

Computation Completed


Properties will be evaluated at   0.000000,   0.000000,   0.000000 [a0]

Properties computed using the SCF density matrix

  Nuclear Dipole Moment: [e a0]
     X:   -27.9863      Y:    31.6816      Z:   -22.0634

  Electronic Dipole Moment: [e a0]
     X:    28.5069      Y:   -31.1051      Z:    22.1677

  Dipole Moment: [e a0]
     X:     0.5206      Y:     0.5765      Z:     0.1042     Total:     0.7837

  Dipole Moment: [D]
     X:     1.3231      Y:     1.4652      Z:     0.2649     Total:     1.9919


*** tstop() called on node59.bme.utexas.edu at Sat Apr 11 16:46:32 2020
Module time:
	user time   =       8.66 seconds =       0.14 minutes
	system time =       0.47 seconds =       0.01 minutes
	total time  =          1 seconds =       0.02 minutes
Total time:
	user time   =      16.92 seconds =       0.28 minutes
	system time =       1.04 seconds =       0.02 minutes
	total time  =          4 seconds =       0.07 minutes

*** tstart() called on node59.bme.utexas.edu
*** at Sat Apr 11 16:46:32 2020


  //>>>>>>>>>>>>>>>>>>>>>>>>>>>>>>>>>>>//
  //               DFMP2               //
  //<<<<<<<<<<<<<<<<<<<<<<<<<<<<<<<<<<<//

   => Loading Basis Set <=

    Name: (AUG-CC-PVQZ AUX)
    Role: RIFIT
    Keyword: DF_BASIS_MP2
    atoms 1   entry O          line   332 file /home/liuchw/anaconda3/envs/psi4env/share/psi4/basis/aug-cc-pvqz-ri.gbs 
    atoms 2-3 entry H          line    30 file /home/liuchw/anaconda3/envs/psi4env/share/psi4/basis/aug-cc-pvqz-ri.gbs 

	 --------------------------------------------------------
	                          DF-MP2                         
	      2nd-Order Density-Fitted Moller-Plesset Theory     
	              RMP2 Wavefunction,   6 Threads             
	                                                         
	        Rob Parrish, Justin Turney, Andy Simmonett,      
	           Ed Hohenstein, and C. David Sherrill          
	 --------------------------------------------------------

   => Auxiliary Basis Set <=

  Basis Set: (AUG-CC-PVQZ AUX)
    Blend: AUG-CC-PVQZ-RI
    Number of shells: 76
    Number of basis function: 328
    Number of Cartesian functions: 447
    Spherical Harmonics?: true
    Max angular momentum: 5

	 --------------------------------------------------------
	                 NBF =   172, NAUX =   328
	 --------------------------------------------------------
	   CLASS    FOCC     OCC    AOCC    AVIR     VIR    FVIR
	   PAIRS       0       5       5     167     167       0
	 --------------------------------------------------------

	-----------------------------------------------------------
	 ==================> DF-MP2 Energies <==================== 
	-----------------------------------------------------------
	 Reference Energy          =     -76.0653350766361314 [Eh]
	 Singles Energy            =      -0.0000000000000000 [Eh]
	 Same-Spin Energy          =      -0.0727817376700353 [Eh]
	 Opposite-Spin Energy      =      -0.2444800966783152 [Eh]
	 Correlation Energy        =      -0.3172618343483505 [Eh]
	 Total Energy              =     -76.3825969109844749 [Eh]
	-----------------------------------------------------------
	 ================> DF-SCS-MP2 Energies <================== 
	-----------------------------------------------------------
	 SCS Same-Spin Scale       =       0.3333333333333333 [-]
	 SCS Opposite-Spin Scale   =       1.2000000000000000 [-]
	 SCS Same-Spin Energy      =      -0.0242605792233451 [Eh]
	 SCS Opposite-Spin Energy  =      -0.2933761160139782 [Eh]
	 SCS Correlation Energy    =      -0.3176366952373234 [Eh]
	 SCS Total Energy          =     -76.3829717718734571 [Eh]
	-----------------------------------------------------------


*** tstop() called on node59.bme.utexas.edu at Sat Apr 11 16:46:33 2020
Module time:
	user time   =       3.44 seconds =       0.06 minutes
	system time =       0.18 seconds =       0.00 minutes
	total time  =          1 seconds =       0.02 minutes
Total time:
	user time   =      20.36 seconds =       0.34 minutes
	system time =       1.22 seconds =       0.02 minutes
	total time  =          5 seconds =       0.08 minutes

  //>>>>>>>>>>>>>>>>>>>>>>>>>>>>>>>>>>>//
  //  CBS Results: mp2/aug-cc-pv[tq]z  //
  //<<<<<<<<<<<<<<<<<<<<<<<<<<<<<<<<<<<//


   ==> HF <==

   HI-zeta (4) Energy:               -76.065335076636


   ==> Helgaker 2-point correlated extrapolation for method: MP2 <==

   LO-zeta (3) Energy:               -76.343969197562
   HI-zeta (4) Energy:               -76.382596910984
   Alpha (exponent) Value:             3.000000000000
   Extrapolated Energy:              -76.410784701860

   @Extrapolated MP2/(T,Q):          -76.410784701860



   ==> Helgaker 2-point correlated extrapolation for method: HF <==

   LO-zeta (3) Energy:               -76.059975797054
   HI-zeta (4) Energy:               -76.065335076636
   Alpha (exponent) Value:             3.000000000000
   Extrapolated Energy:              -76.069245902277

   @Extrapolated HF/(T,Q):           -76.069245902277


   ==> Components <==

  ---------------------------------------------------------------------------------------------------------
                          Method / Basis                      Rqd      Energy [Eh]   Variable
  ---------------------------------------------------------------------------------------------------------
                              hf / aug-cc-pvtz                  *     -76.05997580   HF TOTAL ENERGY
                             mp2 / aug-cc-pvtz                  *     -76.34396920   MP2 TOTAL ENERGY
                              hf / aug-cc-pvqz                  *     -76.06533508   HF TOTAL ENERGY
                             mp2 / aug-cc-pvqz                  *     -76.38259691   MP2 TOTAL ENERGY
  ---------------------------------------------------------------------------------------------------------

   ==> Stages <==

  ---------------------------------------------------------------------------------------------------------
      Stage               Method / Basis                       Wt      Energy [Eh]   Scheme
  ---------------------------------------------------------------------------------------------------------
        scf                   hf / aug-cc-pvqz                  1     -76.06533508   xtpl_highest_1
       corl                  mp2 / aug-cc-pv[tq]z               1     -76.41078470   corl_xtpl_helgaker_2
       corl                   hf / aug-cc-pv[tq]z              -1     -76.06924590   corl_xtpl_helgaker_2
  ---------------------------------------------------------------------------------------------------------

   ==> CBS <==

  ---------------------------------------------------------------------------------------------------------
      Stage               Method / Basis                               Energy [Eh]   Scheme
  ---------------------------------------------------------------------------------------------------------
        scf                   hf / aug-cc-pvqz                        -76.06533508   xtpl_highest_1
       corl                  mp2 / aug-cc-pv[tq]z                      -0.34153880   corl_xtpl_helgaker_2
      total                  CBS                                      -76.40687388   
  ---------------------------------------------------------------------------------------------------------
   => Loading Basis Set <=

    Name: DEF2-SVP
    Role: ORBITAL
    Keyword: BASIS
    atoms 1   entry O          line   130 file /home/liuchw/anaconda3/envs/psi4env/share/psi4/basis/def2-svp.gbs 
    atoms 2-3 entry H          line    15 file /home/liuchw/anaconda3/envs/psi4env/share/psi4/basis/def2-svp.gbs 


       N-Body: Complex Energy (fragments = (2,), basis = (2,):   -76.40687387621918)

       N-Body: Computing complex (2/4) with fragments (2,) in the basis of fragments (1, 2).


Scratch directory: /scratch//

  //>>>>>>>>>>>>>>>>>>>>>>>>>>>>>>>>>>>//
  //   CBS Setup: mp2/aug-cc-pv[tq]z   //
  //<<<<<<<<<<<<<<<<<<<<<<<<<<<<<<<<<<<//

    Naive listing of computations required.
             hf / aug-cc-pvqz              for  HF TOTAL ENERGY
            mp2 / aug-cc-pvtz              for  MP2 TOTAL ENERGY
            mp2 / aug-cc-pvqz              for  MP2 TOTAL ENERGY
             hf / aug-cc-pvtz              for  HF TOTAL ENERGY
             hf / aug-cc-pvqz              for  HF TOTAL ENERGY

    Enlightened listing of computations required.
            mp2 / aug-cc-pvtz              for  MP2 TOTAL ENERGY
            mp2 / aug-cc-pvqz              for  MP2 TOTAL ENERGY

    Full listing of computations to be obtained (required and bonus).
             hf / aug-cc-pvtz              for  HF TOTAL ENERGY
            mp2 / aug-cc-pvtz              for  MP2 TOTAL ENERGY
             hf / aug-cc-pvqz              for  HF TOTAL ENERGY
            mp2 / aug-cc-pvqz              for  MP2 TOTAL ENERGY

  //>>>>>>>>>>>>>>>>>>>>>>>>>>>>>>>>>>>>//
  // CBS Computation: MP2 / AUG-CC-PVTZ //
  //<<<<<<<<<<<<<<<<<<<<<<<<<<<<<<<<<<<<//


Scratch directory: /scratch//

*** tstart() called on node59.bme.utexas.edu
*** at Sat Apr 11 16:46:34 2020

   => Loading Basis Set <=

    Name: AUG-CC-PVTZ
    Role: ORBITAL
    Keyword: BASIS
    atoms 1, 4        entry C          line   239 file /home/liuchw/anaconda3/envs/psi4env/share/psi4/basis/aug-cc-pvtz.gbs 
    atoms 2, 11       entry O          line   331 file /home/liuchw/anaconda3/envs/psi4env/share/psi4/basis/aug-cc-pvtz.gbs 
    atoms 3           entry S          line   906 file /home/liuchw/anaconda3/envs/psi4env/share/psi4/basis/aug-cc-pvtz.gbs 
    atoms 5-10, 12-13 entry H          line    40 file /home/liuchw/anaconda3/envs/psi4env/share/psi4/basis/aug-cc-pvtz.gbs 


         ---------------------------------------------------------
                                   SCF
               by Justin Turney, Rob Parrish, Andy Simmonett
                          and Daniel G. A. Smith
                              RHF Reference
                        6 Threads,  38146 MiB Core
         ---------------------------------------------------------

  ==> Geometry <==

    Molecular point group: c1
    Full point group: C1

    Geometry (in Angstrom), charge = 0, multiplicity = 1:

       Center              X                  Y                   Z               Mass       
    ------------   -----------------  -----------------  -----------------  -----------------
      Gh(C)          -0.966756599780    -1.169298055211    -0.223597272302    12.000000000000
      Gh(O)           0.647620400220     0.932757944789    -0.302036272302    15.994914619570
      Gh(S)           0.240018400220    -0.161450055211     0.652329727698    31.972071174400
      Gh(C)           1.577419400220    -1.364760055211     0.601353727698    12.000000000000
      Gh(H)          -1.227664599780    -2.033576055211     0.384013727698     1.007825032230
      Gh(H)          -1.835152599780    -0.537402055211    -0.391139272302     1.007825032230
      Gh(H)          -0.536534599780    -1.467474055211    -1.177726272302     1.007825032230
      Gh(H)           1.295495400220    -2.254503055211     1.160831727698     1.007825032230
      Gh(H)           1.782671400220    -1.597519055211    -0.441535272302     1.007825032230
      Gh(H)           2.444960400220    -0.894859055211     1.056354727698     1.007825032230
         O           -1.559908599780     1.589565944789    -1.183381272302    15.994914619570
         H           -0.628708599780     1.517280944789    -0.921070272302     1.007825032230
         H           -1.701751599780     2.531351944789    -1.287354272302     1.007825032230

  Running in c1 symmetry.

  Rotational constants: A =      0.22707  B =      0.07853  C =      0.06450 [cm^-1]
  Rotational constants: A =   6807.34127  B =   2354.26143  C =   1933.78964 [MHz]
  Nuclear repulsion =    9.130321219658466

  Charge       = 0
  Multiplicity = 1
  Electrons    = 10
  Nalpha       = 5
  Nbeta        = 5

  ==> Algorithm <==

  SCF Algorithm Type is DF.
  DIIS enabled.
  MOM disabled.
  Fractional occupation disabled.
  Guess Type is SAD.
  Energy threshold   = 1.00e-07
  Density threshold  = 1.00e-08
  Integral threshold = 0.00e+00

  ==> Primary Basis <==

  Basis Set: AUG-CC-PVTZ
    Blend: AUG-CC-PVTZ
    Number of shells: 144
    Number of basis function: 418
    Number of Cartesian functions: 479
    Spherical Harmonics?: true
    Max angular momentum: 3

   => Loading Basis Set <=

    Name: (AUG-CC-PVTZ AUX)
    Role: JKFIT
    Keyword: DF_BASIS_SCF
    atoms 1, 4        entry C          line   162 file /home/liuchw/anaconda3/envs/psi4env/share/psi4/basis/aug-cc-pvtz-jkfit.gbs 
    atoms 2, 11       entry O          line   286 file /home/liuchw/anaconda3/envs/psi4env/share/psi4/basis/aug-cc-pvtz-jkfit.gbs 
    atoms 3           entry S          line   730 file /home/liuchw/anaconda3/envs/psi4env/share/psi4/basis/aug-cc-pvtz-jkfit.gbs 
    atoms 5-10, 12-13 entry H          line    70 file /home/liuchw/anaconda3/envs/psi4env/share/psi4/basis/aug-cc-pvtz-jkfit.gbs 

  ==> Pre-Iterations <==

   -------------------------------------------------------
    Irrep   Nso     Nmo     Nalpha   Nbeta   Ndocc  Nsocc
   -------------------------------------------------------
     A        418     418       0       0       0       0
   -------------------------------------------------------
    Total     418     418       5       5       5       0
   -------------------------------------------------------

  ==> Integral Setup <==

  DFHelper Memory: AOs need 1.224 GiB; user supplied 27.940 GiB. Using in-core AOs.

  ==> MemDFJK: Density-Fitted J/K Matrices <==

    J tasked:                   Yes
    K tasked:                   Yes
    wK tasked:                   No
    OpenMP threads:               6
    Memory [MiB]:             28610
    Algorithm:                 Core
    Schwarz Cutoff:           1E-12
    Mask sparsity (%):       2.9601
    Fitting Condition:        1E-10

   => Auxiliary Basis Set <=

  Basis Set: (AUG-CC-PVTZ AUX)
    Blend: AUG-CC-PVTZ-JKFIT
    Number of shells: 274
    Number of basis function: 930
    Number of Cartesian functions: 1144
    Spherical Harmonics?: true
    Max angular momentum: 4

  Minimum eigenvalue in the overlap matrix is 1.6348176699E-05.
  Using Symmetric Orthogonalization.

  SCF Guess: Superposition of Atomic Densities via on-the-fly atomic UHF.

  ==> Iterations <==

                           Total Energy        Delta E     RMS |[F,P]|

   @DF-RHF iter SAD:   -75.47045901404410   -7.54705e+01   0.00000e+00 
   @DF-RHF iter   1:   -75.97549680363294   -5.05038e-01   1.11999e-03 DIIS
   @DF-RHF iter   2:   -76.02786564506509   -5.23688e-02   7.67633e-04 DIIS
   @DF-RHF iter   3:   -76.05967347305263   -3.18078e-02   5.22021e-05 DIIS
   @DF-RHF iter   4:   -76.06006901148041   -3.95538e-04   1.26336e-05 DIIS
   @DF-RHF iter   5:   -76.06009436950356   -2.53580e-05   2.88304e-06 DIIS
   @DF-RHF iter   6:   -76.06009646199658   -2.09249e-06   6.32616e-07 DIIS
   @DF-RHF iter   7:   -76.06009657269327   -1.10697e-07   1.14011e-07 DIIS
   @DF-RHF iter   8:   -76.06009657584586   -3.15259e-09   1.91906e-08 DIIS
   @DF-RHF iter   9:   -76.06009657591655   -7.06848e-11   4.75568e-09 DIIS
  Energy and wave function converged.


  ==> Post-Iterations <==

    Orbital Energies [Eh]
    ---------------------

    Doubly Occupied:                                                      

       1A    -20.568436     2A     -1.350271     3A     -0.713355  
       4A     -0.584234     5A     -0.509844  

    Virtual:                                                              

       6A      0.018855     7A      0.033564     8A      0.038307  
       9A      0.044200    10A      0.054697    11A      0.060812  
      12A      0.066864    13A      0.071873    14A      0.081802  
      15A      0.089950    16A      0.102593    17A      0.109132  
      18A      0.116750    19A      0.126017    20A      0.132134  
      21A      0.139763    22A      0.143157    23A      0.150872  
      24A      0.167288    25A      0.169671    26A      0.180426  
      27A      0.185912    28A      0.196089    29A      0.199396  
      30A      0.216014    31A      0.221078    32A      0.233601  
      33A      0.236796    34A      0.243745    35A      0.254922  
      36A      0.274750    37A      0.291049    38A      0.291805  
      39A      0.307055    40A      0.312544    41A      0.315071  
      42A      0.319235    43A      0.324980    44A      0.332410  
      45A      0.342455    46A      0.345175    47A      0.358260  
      48A      0.361463    49A      0.366057    50A      0.374737  
      51A      0.382013    52A      0.389624    53A      0.393844  
      54A      0.404464    55A      0.414707    56A      0.430492  
      57A      0.432750    58A      0.437535    59A      0.446691  
      60A      0.453159    61A      0.462122    62A      0.468585  
      63A      0.478173    64A      0.484811    65A      0.495254  
      66A      0.504137    67A      0.509842    68A      0.517589  
      69A      0.526456    70A      0.537009    71A      0.544049  
      72A      0.552035    73A      0.562535    74A      0.573833  
      75A      0.578711    76A      0.593487    77A      0.600138  
      78A      0.604622    79A      0.617309    80A      0.624046  
      81A      0.637810    82A      0.649668    83A      0.657136  
      84A      0.672228    85A      0.682968    86A      0.694213  
      87A      0.701397    88A      0.713572    89A      0.716787  
      90A      0.738347    91A      0.742808    92A      0.754065  
      93A      0.777678    94A      0.778722    95A      0.791838  
      96A      0.809197    97A      0.823574    98A      0.842699  
      99A      0.849860   100A      0.865520   101A      0.885163  
     102A      0.920439   103A      0.947263   104A      0.955323  
     105A      0.961143   106A      0.969185   107A      0.971698  
     108A      0.984566   109A      0.994656   110A      1.006477  
     111A      1.017167   112A      1.021961   113A      1.028002  
     114A      1.041515   115A      1.044318   116A      1.056168  
     117A      1.061129   118A      1.068203   119A      1.071271  
     120A      1.082940   121A      1.093432   122A      1.102349  
     123A      1.110977   124A      1.119559   125A      1.121234  
     126A      1.128623   127A      1.138408   128A      1.144657  
     129A      1.160554   130A      1.162299   131A      1.164999  
     132A      1.187120   133A      1.190693   134A      1.203813  
     135A      1.215632   136A      1.225667   137A      1.237888  
     138A      1.241573   139A      1.252644   140A      1.259481  
     141A      1.265422   142A      1.273152   143A      1.280485  
     144A      1.302104   145A      1.310464   146A      1.314167  
     147A      1.322282   148A      1.332093   149A      1.351298  
     150A      1.359840   151A      1.367700   152A      1.377816  
     153A      1.390702   154A      1.398537   155A      1.409771  
     156A      1.421617   157A      1.431478   158A      1.447956  
     159A      1.456484   160A      1.473410   161A      1.487890  
     162A      1.494638   163A      1.506270   164A      1.525905  
     165A      1.535859   166A      1.550147   167A      1.579517  
     168A      1.588033   169A      1.601018   170A      1.610878  
     171A      1.620076   172A      1.630267   173A      1.661056  
     174A      1.668572   175A      1.693540   176A      1.707406  
     177A      1.721312   178A      1.744044   179A      1.757325  
     180A      1.768343   181A      1.787728   182A      1.803739  
     183A      1.815694   184A      1.836682   185A      1.877718  
     186A      1.893025   187A      1.911634   188A      1.926755  
     189A      1.935665   190A      1.949752   191A      1.950957  
     192A      1.972637   193A      1.994864   194A      2.000630  
     195A      2.015168   196A      2.016634   197A      2.030334  
     198A      2.047986   199A      2.074448   200A      2.089582  
     201A      2.101526   202A      2.122059   203A      2.136053  
     204A      2.142565   205A      2.150281   206A      2.180446  
     207A      2.190626   208A      2.205679   209A      2.219454  
     210A      2.275615   211A      2.342765   212A      2.387698  
     213A      2.399800   214A      2.411371   215A      2.422773  
     216A      2.436446   217A      2.454450   218A      2.462907  
     219A      2.477575   220A      2.493249   221A      2.505669  
     222A      2.514860   223A      2.530279   224A      2.539173  
     225A      2.543552   226A      2.574279   227A      2.575390  
     228A      2.621210   229A      2.626891   230A      2.638490  
     231A      2.659873   232A      2.670702   233A      2.723925  
     234A      2.727380   235A      2.731448   236A      2.758582  
     237A      2.777994   238A      2.794566   239A      2.827214  
     240A      2.851722   241A      2.903781   242A      2.905399  
     243A      2.931624   244A      2.949363   245A      2.998813  
     246A      3.012975   247A      3.019422   248A      3.033913  
     249A      3.039545   250A      3.059419   251A      3.119510  
     252A      3.165615   253A      3.218546   254A      3.254778  
     255A      3.270197   256A      3.317822   257A      3.437459  
     258A      3.516935   259A      3.537137   260A      3.553432  
     261A      3.628275   262A      3.771371   263A      3.829391  
     264A      3.878993   265A      3.907141   266A      3.920112  
     267A      3.953213   268A      3.986709   269A      4.013318  
     270A      4.064408   271A      4.083300   272A      4.109310  
     273A      4.129378   274A      4.154850   275A      4.168763  
     276A      4.177234   277A      4.196716   278A      4.223033  
     279A      4.223355   280A      4.237933   281A      4.256273  
     282A      4.273917   283A      4.282426   284A      4.296022  
     285A      4.331337   286A      4.335515   287A      4.355629  
     288A      4.361243   289A      4.402844   290A      4.449976  
     291A      4.463194   292A      4.483209   293A      4.503028  
     294A      4.534334   295A      4.537462   296A      4.542250  
     297A      4.564034   298A      4.575113   299A      4.599968  
     300A      4.629493   301A      4.640660   302A      4.653130  
     303A      4.671018   304A      4.683427   305A      4.709155  
     306A      4.732681   307A      4.734891   308A      4.762888  
     309A      4.769507   310A      4.812142   311A      4.847724  
     312A      4.877044   313A      4.881629   314A      4.908348  
     315A      4.921155   316A      4.930749   317A      4.950784  
     318A      4.975350   319A      5.026825   320A      5.050452  
     321A      5.083811   322A      5.129030   323A      5.151969  
     324A      5.163329   325A      5.212698   326A      5.256776  
     327A      5.285370   328A      5.286446   329A      5.305476  
     330A      5.322563   331A      5.358945   332A      5.380926  
     333A      5.388755   334A      5.401527   335A      5.419620  
     336A      5.461527   337A      5.483422   338A      5.504736  
     339A      5.537502   340A      5.565599   341A      5.570955  
     342A      5.618845   343A      5.640066   344A      5.648788  
     345A      5.714452   346A      5.717936   347A      5.749425  
     348A      5.761310   349A      5.781490   350A      5.835140  
     351A      5.859739   352A      5.914325   353A      6.091347  
     354A      6.165362   355A      6.186852   356A      6.198989  
     357A      6.240100   358A      6.299026   359A      6.322875  
     360A      6.342701   361A      6.370833   362A      6.409977  
     363A      6.616547   364A      6.680273   365A      6.692523  
     366A      6.725920   367A      6.804843   368A      6.851339  
     369A      7.044724   370A      7.198938   371A      7.221548  
     372A      7.282049   373A      7.383920   374A      7.393451  
     375A      7.421019   376A      7.518433   377A      7.561133  
     378A      7.709983   379A      7.751446   380A      7.777834  
     381A      7.803228   382A      7.804057   383A      7.834815  
     384A      7.840755   385A      7.877187   386A      7.902902  
     387A      7.929210   388A      7.941362   389A      7.959336  
     390A      8.017560   391A      8.120087   392A      8.182910  
     393A      8.218489   394A      8.234503   395A      8.322602  
     396A      8.334272   397A      8.420164   398A      9.013163  
     399A      9.627831   400A      9.891181   401A     10.090247  
     402A     10.103639   403A     10.457728   404A     10.503980  
     405A     10.569282   406A     11.079581   407A     11.619104  
     408A     12.123290   409A     12.859485   410A     17.013585  
     411A     17.371737   412A     25.024172   413A     25.662933  
     414A     25.861029   415A     51.898010   416A     52.211496  
     417A     62.165756   418A    141.854012  

    Final Occupation by Irrep:
              A 
    DOCC [     5 ]

  @DF-RHF Final Energy:   -76.06009657591655

   => Energetics <=

    Nuclear Repulsion Energy =              9.1303212196584660
    One-Electron Energy =                -122.9285515669203477
    Two-Electron Energy =                  37.7381337713453178
    Total Energy =                        -76.0600965759165604

Computation Completed


Properties will be evaluated at   0.000000,   0.000000,   0.000000 [a0]

Properties computed using the SCF density matrix

  Nuclear Dipole Moment: [e a0]
     X:   -27.9863      Y:    31.6816      Z:   -22.0634

  Electronic Dipole Moment: [e a0]
     X:    28.5076      Y:   -31.1048      Z:    22.1676

  Dipole Moment: [e a0]
     X:     0.5213      Y:     0.5768      Z:     0.1041     Total:     0.7844

  Dipole Moment: [D]
     X:     1.3250      Y:     1.4660      Z:     0.2646     Total:     1.9937


*** tstop() called on node59.bme.utexas.edu at Sat Apr 11 16:46:41 2020
Module time:
	user time   =      35.39 seconds =       0.59 minutes
	system time =       1.00 seconds =       0.02 minutes
	total time  =          7 seconds =       0.12 minutes
Total time:
	user time   =      57.71 seconds =       0.96 minutes
	system time =       2.30 seconds =       0.04 minutes
	total time  =         13 seconds =       0.22 minutes

*** tstart() called on node59.bme.utexas.edu
*** at Sat Apr 11 16:46:41 2020


  //>>>>>>>>>>>>>>>>>>>>>>>>>>>>>>>>>>>//
  //               DFMP2               //
  //<<<<<<<<<<<<<<<<<<<<<<<<<<<<<<<<<<<//

   => Loading Basis Set <=

    Name: (AUG-CC-PVTZ AUX)
    Role: RIFIT
    Keyword: DF_BASIS_MP2
    atoms 1, 4        entry C          line   148 file /home/liuchw/anaconda3/envs/psi4env/share/psi4/basis/aug-cc-pvtz-ri.gbs 
    atoms 2, 11       entry O          line   264 file /home/liuchw/anaconda3/envs/psi4env/share/psi4/basis/aug-cc-pvtz-ri.gbs 
    atoms 3           entry S          line   666 file /home/liuchw/anaconda3/envs/psi4env/share/psi4/basis/aug-cc-pvtz-ri.gbs 
    atoms 5-10, 12-13 entry H          line    30 file /home/liuchw/anaconda3/envs/psi4env/share/psi4/basis/aug-cc-pvtz-ri.gbs 

	 --------------------------------------------------------
	                          DF-MP2                         
	      2nd-Order Density-Fitted Moller-Plesset Theory     
	              RMP2 Wavefunction,   6 Threads             
	                                                         
	        Rob Parrish, Justin Turney, Andy Simmonett,      
	           Ed Hohenstein, and C. David Sherrill          
	 --------------------------------------------------------

   => Auxiliary Basis Set <=

  Basis Set: (AUG-CC-PVTZ AUX)
    Blend: AUG-CC-PVTZ-RI
    Number of shells: 261
    Number of basis function: 939
    Number of Cartesian functions: 1175
    Spherical Harmonics?: true
    Max angular momentum: 4

	 --------------------------------------------------------
	                 NBF =   418, NAUX =   939
	 --------------------------------------------------------
	   CLASS    FOCC     OCC    AOCC    AVIR     VIR    FVIR
	   PAIRS       0       5       5     413     413       0
	 --------------------------------------------------------

	-----------------------------------------------------------
	 ==================> DF-MP2 Energies <==================== 
	-----------------------------------------------------------
	 Reference Energy          =     -76.0600965759165462 [Eh]
	 Singles Energy            =      -0.0000000000000000 [Eh]
	 Same-Spin Energy          =      -0.0685618248963686 [Eh]
	 Opposite-Spin Energy      =      -0.2166781373259505 [Eh]
	 Correlation Energy        =      -0.2852399622223191 [Eh]
	 Total Energy              =     -76.3453365381388664 [Eh]
	-----------------------------------------------------------
	 ================> DF-SCS-MP2 Energies <================== 
	-----------------------------------------------------------
	 SCS Same-Spin Scale       =       0.3333333333333333 [-]
	 SCS Opposite-Spin Scale   =       1.2000000000000000 [-]
	 SCS Same-Spin Energy      =      -0.0228539416321229 [Eh]
	 SCS Opposite-Spin Energy  =      -0.2600137647911406 [Eh]
	 SCS Correlation Energy    =      -0.2828677064232634 [Eh]
	 SCS Total Energy          =     -76.3429642823398069 [Eh]
	-----------------------------------------------------------


*** tstop() called on node59.bme.utexas.edu at Sat Apr 11 16:46:45 2020
Module time:
	user time   =      16.48 seconds =       0.27 minutes
	system time =       0.48 seconds =       0.01 minutes
	total time  =          4 seconds =       0.07 minutes
Total time:
	user time   =      74.19 seconds =       1.24 minutes
	system time =       2.78 seconds =       0.05 minutes
	total time  =         17 seconds =       0.28 minutes

  //>>>>>>>>>>>>>>>>>>>>>>>>>>>>>>>>>>>>//
  // CBS Computation: MP2 / AUG-CC-PVQZ //
  //<<<<<<<<<<<<<<<<<<<<<<<<<<<<<<<<<<<<//


Scratch directory: /scratch//

*** tstart() called on node59.bme.utexas.edu
*** at Sat Apr 11 16:46:45 2020

   => Loading Basis Set <=

    Name: AUG-CC-PVQZ
    Role: ORBITAL
    Keyword: BASIS
    atoms 1, 4        entry C          line   303 file /home/liuchw/anaconda3/envs/psi4env/share/psi4/basis/aug-cc-pvqz.gbs 
    atoms 2, 11       entry O          line   423 file /home/liuchw/anaconda3/envs/psi4env/share/psi4/basis/aug-cc-pvqz.gbs 
    atoms 3           entry S          line  1126 file /home/liuchw/anaconda3/envs/psi4env/share/psi4/basis/aug-cc-pvqz.gbs 
    atoms 5-10, 12-13 entry H          line    40 file /home/liuchw/anaconda3/envs/psi4env/share/psi4/basis/aug-cc-pvqz.gbs 


         ---------------------------------------------------------
                                   SCF
               by Justin Turney, Rob Parrish, Andy Simmonett
                          and Daniel G. A. Smith
                              RHF Reference
                        6 Threads,  38146 MiB Core
         ---------------------------------------------------------

  ==> Geometry <==

    Molecular point group: c1
    Full point group: C1

    Geometry (in Angstrom), charge = 0, multiplicity = 1:

       Center              X                  Y                   Z               Mass       
    ------------   -----------------  -----------------  -----------------  -----------------
      Gh(C)          -0.966756599780    -1.169298055211    -0.223597272302    12.000000000000
      Gh(O)           0.647620400220     0.932757944789    -0.302036272302    15.994914619570
      Gh(S)           0.240018400220    -0.161450055211     0.652329727698    31.972071174400
      Gh(C)           1.577419400220    -1.364760055211     0.601353727698    12.000000000000
      Gh(H)          -1.227664599780    -2.033576055211     0.384013727698     1.007825032230
      Gh(H)          -1.835152599780    -0.537402055211    -0.391139272302     1.007825032230
      Gh(H)          -0.536534599780    -1.467474055211    -1.177726272302     1.007825032230
      Gh(H)           1.295495400220    -2.254503055211     1.160831727698     1.007825032230
      Gh(H)           1.782671400220    -1.597519055211    -0.441535272302     1.007825032230
      Gh(H)           2.444960400220    -0.894859055211     1.056354727698     1.007825032230
         O           -1.559908599780     1.589565944789    -1.183381272302    15.994914619570
         H           -0.628708599780     1.517280944789    -0.921070272302     1.007825032230
         H           -1.701751599780     2.531351944789    -1.287354272302     1.007825032230

  Running in c1 symmetry.

  Rotational constants: A =      0.22707  B =      0.07853  C =      0.06450 [cm^-1]
  Rotational constants: A =   6807.34127  B =   2354.26143  C =   1933.78964 [MHz]
  Nuclear repulsion =    9.130321219658466

  Charge       = 0
  Multiplicity = 1
  Electrons    = 10
  Nalpha       = 5
  Nbeta        = 5

  ==> Algorithm <==

  SCF Algorithm Type is DF.
  DIIS enabled.
  MOM disabled.
  Fractional occupation disabled.
  Guess Type is SAD.
  Energy threshold   = 1.00e-07
  Density threshold  = 1.00e-08
  Integral threshold = 0.00e+00

  ==> Primary Basis <==

  Basis Set: AUG-CC-PVQZ
    Blend: AUG-CC-PVQZ
    Number of shells: 214
    Number of basis function: 772
    Number of Cartesian functions: 969
    Spherical Harmonics?: true
    Max angular momentum: 4

   => Loading Basis Set <=

    Name: (AUG-CC-PVQZ AUX)
    Role: JKFIT
    Keyword: DF_BASIS_SCF
    atoms 1, 4        entry C          line   178 file /home/liuchw/anaconda3/envs/psi4env/share/psi4/basis/aug-cc-pvqz-jkfit.gbs 
    atoms 2, 11       entry O          line   318 file /home/liuchw/anaconda3/envs/psi4env/share/psi4/basis/aug-cc-pvqz-jkfit.gbs 
    atoms 3           entry S          line   810 file /home/liuchw/anaconda3/envs/psi4env/share/psi4/basis/aug-cc-pvqz-jkfit.gbs 
    atoms 5-10, 12-13 entry H          line    70 file /home/liuchw/anaconda3/envs/psi4env/share/psi4/basis/aug-cc-pvqz-jkfit.gbs 

  ==> Pre-Iterations <==

   -------------------------------------------------------
    Irrep   Nso     Nmo     Nalpha   Nbeta   Ndocc  Nsocc
   -------------------------------------------------------
     A        772     772       0       0       0       0
   -------------------------------------------------------
    Total     772     772       5       5       5       0
   -------------------------------------------------------

  ==> Integral Setup <==

  DFHelper Memory: AOs need 5.845 GiB; user supplied 27.940 GiB. Using in-core AOs.

  ==> MemDFJK: Density-Fitted J/K Matrices <==

    J tasked:                   Yes
    K tasked:                   Yes
    wK tasked:                   No
    OpenMP threads:               6
    Memory [MiB]:             28610
    Algorithm:                 Core
    Schwarz Cutoff:           1E-12
    Mask sparsity (%):       6.3062
    Fitting Condition:        1E-10

   => Auxiliary Basis Set <=

  Basis Set: (AUG-CC-PVQZ AUX)
    Blend: AUG-CC-PVQZ-JKFIT
    Number of shells: 326
    Number of basis function: 1360
    Number of Cartesian functions: 1847
    Spherical Harmonics?: true
    Max angular momentum: 5

  Minimum eigenvalue in the overlap matrix is 3.4783791823E-06.
  Using Symmetric Orthogonalization.

  SCF Guess: Superposition of Atomic Densities via on-the-fly atomic UHF.

  ==> Iterations <==

                           Total Energy        Delta E     RMS |[F,P]|

   @DF-RHF iter SAD:   -75.47559375514308   -7.54756e+01   0.00000e+00 
   @DF-RHF iter   1:   -75.98049222102249   -5.04898e-01   6.07671e-04 DIIS
   @DF-RHF iter   2:   -76.03294837498780   -5.24562e-02   4.17400e-04 DIIS
   @DF-RHF iter   3:   -76.06495315628084   -3.20048e-02   2.84760e-05 DIIS
   @DF-RHF iter   4:   -76.06535078500316   -3.97629e-04   7.04067e-06 DIIS
   @DF-RHF iter   5:   -76.06537701884828   -2.62338e-05   1.60133e-06 DIIS
   @DF-RHF iter   6:   -76.06537919314059   -2.17429e-06   3.60808e-07 DIIS
   @DF-RHF iter   7:   -76.06537931537470   -1.22234e-07   6.70654e-08 DIIS
   @DF-RHF iter   8:   -76.06537931908039   -3.70569e-09   1.08725e-08 DIIS
   @DF-RHF iter   9:   -76.06537931915929   -7.88987e-11   2.62954e-09 DIIS
  Energy and wave function converged.


  ==> Post-Iterations <==

    Orbital Energies [Eh]
    ---------------------

    Doubly Occupied:                                                      

       1A    -20.566056     2A     -1.349597     3A     -0.713370  
       4A     -0.584324     5A     -0.510013  

    Virtual:                                                              

       6A      0.016780     7A      0.030195     8A      0.034450  
       9A      0.039589    10A      0.049754    11A      0.054935  
      12A      0.060621    13A      0.064275    14A      0.072026  
      15A      0.079787    16A      0.087703    17A      0.096396  
      18A      0.102506    19A      0.108970    20A      0.115107  
      21A      0.119833    22A      0.123596    23A      0.131430  
      24A      0.143285    25A      0.147584    26A      0.150640  
      27A      0.160471    28A      0.166604    29A      0.172279  
      30A      0.184205    31A      0.191304    32A      0.194965  
      33A      0.202995    34A      0.207544    35A      0.217867  
      36A      0.233808    37A      0.244768    38A      0.245564  
      39A      0.257378    40A      0.261185    41A      0.265183  
      42A      0.268015    43A      0.272902    44A      0.281302  
      45A      0.285661    46A      0.287026    47A      0.295820  
      48A      0.300493    49A      0.304313    50A      0.306614  
      51A      0.314565    52A      0.319076    53A      0.325637  
      54A      0.333436    55A      0.337697    56A      0.348929  
      57A      0.354762    58A      0.359005    59A      0.370185  
      60A      0.374066    61A      0.381547    62A      0.383460  
      63A      0.388860    64A      0.401624    65A      0.402913  
      66A      0.406240    67A      0.412849    68A      0.416748  
      69A      0.422947    70A      0.428317    71A      0.432520  
      72A      0.433651    73A      0.452219    74A      0.457597  
      75A      0.470998    76A      0.472006    77A      0.487787  
      78A      0.489286    79A      0.497602    80A      0.499598  
      81A      0.500812    82A      0.505109    83A      0.521180  
      84A      0.532043    85A      0.541025    86A      0.550464  
      87A      0.553299    88A      0.569917    89A      0.570704  
      90A      0.582321    91A      0.591543    92A      0.603698  
      93A      0.608421    94A      0.617918    95A      0.624537  
      96A      0.630321    97A      0.632993    98A      0.649464  
      99A      0.659164   100A      0.669221   101A      0.673917  
     102A      0.681791   103A      0.685636   104A      0.695552  
     105A      0.715067   106A      0.722644   107A      0.732155  
     108A      0.741820   109A      0.746234   110A      0.756230  
     111A      0.761912   112A      0.770978   113A      0.779822  
     114A      0.782643   115A      0.788283   116A      0.792164  
     117A      0.800902   118A      0.813742   119A      0.816251  
     120A      0.822873   121A      0.825900   122A      0.832451  
     123A      0.838856   124A      0.849767   125A      0.852943  
     126A      0.861382   127A      0.869170   128A      0.870794  
     129A      0.878320   130A      0.883335   131A      0.887897  
     132A      0.894984   133A      0.897057   134A      0.913786  
     135A      0.922827   136A      0.928259   137A      0.933377  
     138A      0.941564   139A      0.950593   140A      0.957930  
     141A      0.966455   142A      0.971875   143A      0.975797  
     144A      0.985378   145A      0.992714   146A      1.001168  
     147A      1.012070   148A      1.019901   149A      1.031161  
     150A      1.036488   151A      1.040463   152A      1.048225  
     153A      1.055762   154A      1.065107   155A      1.073409  
     156A      1.080008   157A      1.084792   158A      1.098452  
     159A      1.103634   160A      1.106241   161A      1.125074  
     162A      1.126922   163A      1.136515   164A      1.144961  
     165A      1.149653   166A      1.165051   167A      1.174369  
     168A      1.180569   169A      1.182767   170A      1.201759  
     171A      1.213980   172A      1.221625   173A      1.229719  
     174A      1.237390   175A      1.250798   176A      1.268345  
     177A      1.270043   178A      1.279516   179A      1.305517  
     180A      1.309470   181A      1.319968   182A      1.335369  
     183A      1.337542   184A      1.349598   185A      1.354894  
     186A      1.365147   187A      1.379260   188A      1.389489  
     189A      1.404892   190A      1.409040   191A      1.413958  
     192A      1.431958   193A      1.447628   194A      1.459795  
     195A      1.473981   196A      1.481624   197A      1.496478  
     198A      1.517608   199A      1.525796   200A      1.534578  
     201A      1.546482   202A      1.566123   203A      1.570402  
     204A      1.582453   205A      1.587361   206A      1.595369  
     207A      1.596076   208A      1.614235   209A      1.620993  
     210A      1.633683   211A      1.643153   212A      1.650136  
     213A      1.662708   214A      1.671076   215A      1.682866  
     216A      1.692514   217A      1.703380   218A      1.717182  
     219A      1.726615   220A      1.735282   221A      1.743818  
     222A      1.751049   223A      1.763092   224A      1.769470  
     225A      1.770599   226A      1.785454   227A      1.789732  
     228A      1.807830   229A      1.816908   230A      1.821543  
     231A      1.825197   232A      1.839826   233A      1.844620  
     234A      1.855100   235A      1.860539   236A      1.863207  
     237A      1.875135   238A      1.883773   239A      1.898584  
     240A      1.908444   241A      1.918650   242A      1.919854  
     243A      1.929799   244A      1.938558   245A      1.951457  
     246A      1.962314   247A      1.975951   248A      1.978082  
     249A      1.995420   250A      2.007127   251A      2.010736  
     252A      2.014517   253A      2.028436   254A      2.039966  
     255A      2.043879   256A      2.050813   257A      2.064613  
     258A      2.077404   259A      2.088929   260A      2.092581  
     261A      2.102013   262A      2.114594   263A      2.120581  
     264A      2.130064   265A      2.138313   266A      2.146575  
     267A      2.154279   268A      2.169585   269A      2.171684  
     270A      2.176644   271A      2.181290   272A      2.193874  
     273A      2.196632   274A      2.214757   275A      2.217989  
     276A      2.221426   277A      2.238115   278A      2.249979  
     279A      2.259612   280A      2.265978   281A      2.272099  
     282A      2.279804   283A      2.300093   284A      2.320648  
     285A      2.322454   286A      2.329433   287A      2.342051  
     288A      2.347000   289A      2.348457   290A      2.365297  
     291A      2.383052   292A      2.395551   293A      2.401148  
     294A      2.408820   295A      2.417933   296A      2.435495  
     297A      2.439588   298A      2.449624   299A      2.450984  
     300A      2.467466   301A      2.479829   302A      2.489809  
     303A      2.502088   304A      2.503346   305A      2.529582  
     306A      2.531156   307A      2.532272   308A      2.549162  
     309A      2.570212   310A      2.583342   311A      2.592018  
     312A      2.596111   313A      2.608648   314A      2.613769  
     315A      2.638824   316A      2.656396   317A      2.669531  
     318A      2.686467   319A      2.696964   320A      2.719115  
     321A      2.723815   322A      2.738047   323A      2.747425  
     324A      2.756803   325A      2.769900   326A      2.790300  
     327A      2.792545   328A      2.804384   329A      2.824860  
     330A      2.828915   331A      2.857433   332A      2.881073  
     333A      2.885368   334A      2.907508   335A      2.915252  
     336A      2.928441   337A      2.937524   338A      2.951880  
     339A      2.957804   340A      2.976866   341A      2.996961  
     342A      3.028956   343A      3.035468   344A      3.038654  
     345A      3.062242   346A      3.072310   347A      3.081326  
     348A      3.096028   349A      3.120380   350A      3.126080  
     351A      3.137631   352A      3.141880   353A      3.157778  
     354A      3.181204   355A      3.194807   356A      3.198407  
     357A      3.212194   358A      3.236591   359A      3.243170  
     360A      3.265691   361A      3.271340   362A      3.287948  
     363A      3.292748   364A      3.313624   365A      3.326571  
     366A      3.339137   367A      3.348577   368A      3.365635  
     369A      3.374741   370A      3.387393   371A      3.403369  
     372A      3.413184   373A      3.425019   374A      3.426648  
     375A      3.444282   376A      3.454221   377A      3.463292  
     378A      3.486942   379A      3.491180   380A      3.529832  
     381A      3.535070   382A      3.553008   383A      3.558081  
     384A      3.569226   385A      3.595284   386A      3.601922  
     387A      3.621364   388A      3.641124   389A      3.665800  
     390A      3.675396   391A      3.692416   392A      3.705459  
     393A      3.716413   394A      3.749476   395A      3.759719  
     396A      3.767600   397A      3.783580   398A      3.797283  
     399A      3.821835   400A      3.829943   401A      3.852070  
     402A      3.861142   403A      3.891570   404A      3.918595  
     405A      3.929115   406A      3.938148   407A      3.949850  
     408A      3.983103   409A      4.006681   410A      4.016792  
     411A      4.027103   412A      4.031699   413A      4.074070  
     414A      4.083549   415A      4.091148   416A      4.100045  
     417A      4.105174   418A      4.141556   419A      4.157791  
     420A      4.171845   421A      4.184119   422A      4.188275  
     423A      4.220698   424A      4.234623   425A      4.248935  
     426A      4.260396   427A      4.275007   428A      4.281536  
     429A      4.287414   430A      4.300393   431A      4.323307  
     432A      4.346531   433A      4.353355   434A      4.362638  
     435A      4.373672   436A      4.401101   437A      4.409036  
     438A      4.437412   439A      4.453979   440A      4.484482  
     441A      4.494417   442A      4.505494   443A      4.513352  
     444A      4.554486   445A      4.586648   446A      4.608846  
     447A      4.621676   448A      4.629873   449A      4.653624  
     450A      4.680263   451A      4.703359   452A      4.749506  
     453A      4.750502   454A      4.790098   455A      4.815257  
     456A      4.825912   457A      4.836861   458A      4.862184  
     459A      4.870780   460A      4.889315   461A      4.906693  
     462A      4.924054   463A      4.941069   464A      4.957551  
     465A      4.963084   466A      4.994073   467A      5.030500  
     468A      5.041055   469A      5.042219   470A      5.052273  
     471A      5.067204   472A      5.095513   473A      5.108791  
     474A      5.134333   475A      5.141845   476A      5.162338  
     477A      5.181894   478A      5.193920   479A      5.215078  
     480A      5.249631   481A      5.284490   482A      5.298295  
     483A      5.300629   484A      5.359429   485A      5.364514  
     486A      5.407854   487A      5.417115   488A      5.436900  
     489A      5.473607   490A      5.489063   491A      5.522126  
     492A      5.550210   493A      5.561706   494A      5.593422  
     495A      5.606548   496A      5.626790   497A      5.637239  
     498A      5.673585   499A      5.684990   500A      5.700198  
     501A      5.724353   502A      5.764727   503A      5.817477  
     504A      5.826360   505A      5.853331   506A      5.904653  
     507A      5.943044   508A      5.964072   509A      5.993232  
     510A      6.010327   511A      6.065978   512A      6.153176  
     513A      6.187272   514A      6.246820   515A      6.317288  
     516A      6.331567   517A      6.352885   518A      6.465302  
     519A      6.609316   520A      6.644415   521A      6.676540  
     522A      6.722855   523A      6.758022   524A      6.777779  
     525A      6.822018   526A      6.836671   527A      6.877956  
     528A      6.906297   529A      6.926709   530A      6.946665  
     531A      6.950568   532A      6.965783   533A      6.990230  
     534A      7.004221   535A      7.021020   536A      7.037201  
     537A      7.060073   538A      7.083986   539A      7.097429  
     540A      7.108444   541A      7.158242   542A      7.208280  
     543A      7.209945   544A      7.221158   545A      7.254835  
     546A      7.282671   547A      7.298147   548A      7.311262  
     549A      7.317107   550A      7.333930   551A      7.369218  
     552A      7.381748   553A      7.400408   554A      7.412371  
     555A      7.439295   556A      7.460522   557A      7.493986  
     558A      7.524902   559A      7.576445   560A      7.589192  
     561A      7.592938   562A      7.609158   563A      7.663649  
     564A      7.696445   565A      7.705787   566A      7.721961  
     567A      7.732840   568A      7.743177   569A      7.781699  
     570A      7.800242   571A      7.843525   572A      7.871815  
     573A      7.889379   574A      7.914747   575A      7.958480  
     576A      7.977860   577A      7.979218   578A      7.992622  
     579A      8.001009   580A      8.016981   581A      8.040868  
     582A      8.060728   583A      8.087153   584A      8.093301  
     585A      8.095910   586A      8.123068   587A      8.151038  
     588A      8.170001   589A      8.196259   590A      8.217414  
     591A      8.223602   592A      8.271452   593A      8.288066  
     594A      8.364507   595A      8.369458   596A      8.409932  
     597A      8.465743   598A      8.550131   599A      8.569889  
     600A      8.592281   601A      8.635043   602A      8.651719  
     603A      8.722946   604A      8.756485   605A      8.786312  
     606A      8.810609   607A      8.832853   608A      8.860229  
     609A      8.873645   610A      8.892727   611A      8.921649  
     612A      8.938182   613A      8.945099   614A      8.959501  
     615A      8.976597   616A      9.023265   617A      9.061686  
     618A      9.097342   619A      9.143637   620A      9.191109  
     621A      9.227252   622A      9.296789   623A      9.371326  
     624A      9.430112   625A      9.442462   626A      9.470443  
     627A      9.488424   628A      9.555963   629A      9.574135  
     630A      9.590670   631A      9.595516   632A      9.622951  
     633A      9.654484   634A      9.697494   635A      9.721354  
     636A      9.736891   637A      9.757901   638A      9.766067  
     639A      9.808302   640A      9.814902   641A      9.840939  
     642A      9.850703   643A      9.869757   644A      9.879627  
     645A      9.885317   646A      9.903947   647A      9.921929  
     648A      9.957043   649A      9.975415   650A      9.998686  
     651A     10.034234   652A     10.094683   653A     10.117415  
     654A     10.126876   655A     10.154634   656A     10.165265  
     657A     10.223118   658A     10.271715   659A     10.294171  
     660A     10.359033   661A     10.387031   662A     10.448045  
     663A     10.463062   664A     10.479411   665A     10.505884  
     666A     10.591360   667A     10.636954   668A     10.687132  
     669A     10.715289   670A     10.737991   671A     10.758963  
     672A     10.781408   673A     10.794566   674A     10.824946  
     675A     10.831809   676A     10.861486   677A     10.869836  
     678A     10.900494   679A     10.906943   680A     10.922663  
     681A     10.965868   682A     11.004599   683A     11.160284  
     684A     11.202934   685A     11.226846   686A     11.245000  
     687A     11.266884   688A     11.316176   689A     11.350936  
     690A     11.382530   691A     11.410291   692A     11.446680  
     693A     11.497181   694A     11.518770   695A     11.561522  
     696A     11.592862   697A     11.650855   698A     11.826638  
     699A     11.858916   700A     11.869971   701A     11.973484  
     702A     12.001696   703A     12.023569   704A     12.064881  
     705A     12.080433   706A     12.121061   707A     12.145326  
     708A     12.152334   709A     12.186757   710A     12.244250  
     711A     12.257638   712A     12.283612   713A     12.302726  
     714A     12.336899   715A     12.381170   716A     12.396399  
     717A     12.452712   718A     12.472315   719A     12.627361  
     720A     12.712279   721A     12.899663   722A     12.949287  
     723A     13.014168   724A     13.074277   725A     13.295660  
     726A     13.319222   727A     13.369860   728A     13.433626  
     729A     13.518527   730A     13.777613   731A     13.854451  
     732A     14.041989   733A     14.298267   734A     14.312487  
     735A     14.341184   736A     14.474420   737A     14.565332  
     738A     14.607396   739A     14.741208   740A     14.870111  
     741A     14.893663   742A     14.951715   743A     15.018549  
     744A     15.049680   745A     15.339343   746A     15.516612  
     747A     16.562237   748A     16.776265   749A     17.178016  
     750A     17.472706   751A     17.498542   752A     17.520013  
     753A     17.594304   754A     17.656882   755A     17.669987  
     756A     17.740936   757A     17.934047   758A     18.235801  
     759A     18.312206   760A     20.883600   761A     22.752459  
     762A     23.472320   763A     24.217101   764A     25.825974  
     765A     25.871237   766A     25.944384   767A     38.611897  
     768A     45.949405   769A     71.892331   770A     71.928844  
     771A    123.195064   772A    141.842404  

    Final Occupation by Irrep:
              A 
    DOCC [     5 ]

  @DF-RHF Final Energy:   -76.06537931915929

   => Energetics <=

    Nuclear Repulsion Energy =              9.1303212196584660
    One-Electron Energy =                -122.9446771075140106
    Two-Electron Energy =                  37.7489765686962500
    Total Energy =                        -76.0653793191592911

Computation Completed


Properties will be evaluated at   0.000000,   0.000000,   0.000000 [a0]

Properties computed using the SCF density matrix

  Nuclear Dipole Moment: [e a0]
     X:   -27.9863      Y:    31.6816      Z:   -22.0634

  Electronic Dipole Moment: [e a0]
     X:    28.5069      Y:   -31.1052      Z:    22.1676

  Dipole Moment: [e a0]
     X:     0.5205      Y:     0.5764      Z:     0.1042     Total:     0.7836

  Dipole Moment: [D]
     X:     1.3231      Y:     1.4650      Z:     0.2647     Total:     1.9917


[...]
     321A      2.373891   322A      2.381387   323A      2.396427  
     324A      2.407476   325A      2.414753   326A      2.425113  
     327A      2.436242   328A      2.449718   329A      2.453627  
     330A      2.474475   331A      2.488119   332A      2.490604  
     333A      2.500481   334A      2.508384   335A      2.531891  
     336A      2.538268   337A      2.555814   338A      2.564689  
     339A      2.580678   340A      2.602550   341A      2.617759  
     342A      2.621404   343A      2.640853   344A      2.647524  
     345A      2.660719   346A      2.663400   347A      2.685863  
     348A      2.697181   349A      2.723553   350A      2.729007  
     351A      2.746438   352A      2.761299   353A      2.779374  
     354A      2.789481   355A      2.799513   356A      2.816314  
     357A      2.829196   358A      2.839911   359A      2.848341  
     360A      2.857913   361A      2.868695   362A      2.887057  
     363A      2.891837   364A      2.902440   365A      2.916506  
     366A      2.930461   367A      2.944205   368A      2.945567  
     369A      2.958909   370A      2.969186   371A      2.990151  
     372A      2.997061   373A      3.011860   374A      3.016273  
     375A      3.054148   376A      3.070611   377A      3.085910  
     378A      3.091277   379A      3.107468   380A      3.113757  
     381A      3.119071   382A      3.138386   383A      3.144722  
     384A      3.159063   385A      3.177200   386A      3.181864  
     387A      3.197177   388A      3.208906   389A      3.214504  
     390A      3.229829   391A      3.236170   392A      3.253185  
     393A      3.256449   394A      3.267949   395A      3.288623  
     396A      3.301654   397A      3.314140   398A      3.325025  
     399A      3.349033   400A      3.358517   401A      3.368790  
     402A      3.411614   403A      3.423105   404A      3.449308  
     405A      3.457352   406A      3.483494   407A      3.502899  
     408A      3.529275   409A      3.570702   410A      3.595570  
     411A      3.601173   412A      3.609744   413A      3.642358  
     414A      3.645068   415A      3.659908   416A      3.676927  
     417A      3.684560   418A      3.721009   419A      3.732485  
     420A      3.743671   421A      3.752750   422A      3.780302  
     423A      3.790920   424A      3.801284   425A      3.814081  
     426A      3.844128   427A      3.858717   428A      3.872528  
     429A      3.905999   430A      3.913199   431A      3.931572  
     432A      3.937236   433A      3.945110   434A      3.967821  
     435A      3.979803   436A      4.000173   437A      4.012950  
     438A      4.019239   439A      4.041195   440A      4.061038  
     441A      4.076195   442A      4.093672   443A      4.106361  
     444A      4.109771   445A      4.133008   446A      4.145969  
     447A      4.157365   448A      4.163579   449A      4.187398  
     450A      4.197815   451A      4.207449   452A      4.222530  
     453A      4.243606   454A      4.247797   455A      4.271981  
     456A      4.284971   457A      4.293084   458A      4.297769  
     459A      4.307214   460A      4.311876   461A      4.315626  
     462A      4.339122   463A      4.344475   464A      4.367398  
     465A      4.371387   466A      4.380890   467A      4.391310  
     468A      4.429662   469A      4.445812   470A      4.455715  
     471A      4.464341   472A      4.477641   473A      4.493302  
     474A      4.511663   475A      4.521514   476A      4.535848  
     477A      4.543147   478A      4.568489   479A      4.585314  
     480A      4.596274   481A      4.611851   482A      4.621124  
     483A      4.631939   484A      4.643128   485A      4.656537  
     486A      4.687438   487A      4.696482   488A      4.705867  
     489A      4.735095   490A      4.753039   491A      4.757925  
     492A      4.784258   493A      4.791377   494A      4.805392  
     495A      4.828231   496A      4.849861   497A      4.892081  
     498A      4.896207   499A      4.936263   500A      4.958425  
     501A      4.971801   502A      4.978232   503A      5.013474  
     504A      5.016312   505A      5.042095   506A      5.054752  
     507A      5.078386   508A      5.109891   509A      5.115432  
     510A      5.149624   511A      5.183904   512A      5.201994  
     513A      5.236381   514A      5.247206   515A      5.254061  
     516A      5.276515   517A      5.295674   518A      5.314690  
     519A      5.318465   520A      5.383211   521A      5.415716  
     522A      5.443663   523A      5.500304   524A      5.536210  
     525A      5.574576   526A      5.593257   527A      5.604006  
     528A      5.702011   529A      5.803395   530A      5.816140  
     531A      5.866058   532A      5.996052   533A      6.051271  
     534A      6.137606   535A      6.194181   536A      6.220980  
     537A      6.231149   538A      6.250057   539A      6.274770  
     540A      6.296934   541A      6.330527   542A      6.343203  
     543A      6.369933   544A      6.404942   545A      6.434003  
     546A      6.495493   547A      6.498739   548A      6.543742  
     549A      6.588238   550A      6.616497   551A      6.670100  
     552A      6.686020   553A      6.701595   554A      6.710350  
     555A      6.724364   556A      6.750682   557A      6.783295  
     558A      6.791088   559A      6.807927   560A      6.839480  
     561A      6.864113   562A      6.876456   563A      6.894272  
     564A      6.913405   565A      6.952314   566A      6.975312  
     567A      6.986010   568A      7.008145   569A      7.028281  
     570A      7.030201   571A      7.044660   572A      7.064137  
     573A      7.100841   574A      7.112446   575A      7.126308  
     576A      7.137541   577A      7.148365   578A      7.155723  
     579A      7.187267   580A      7.191134   581A      7.204853  
     582A      7.227004   583A      7.239259   584A      7.273129  
     585A      7.301669   586A      7.354035   587A      7.372892  
     588A      7.397192   589A      7.404563   590A      7.426950  
     591A      7.463291   592A      7.524002   593A      7.553889  
     594A      7.674254   595A      7.708225   596A      7.715956  
     597A      7.737951   598A      7.755824   599A      7.771260  
     600A      7.799566   601A      7.803552   602A      7.837292  
     603A      7.862146   604A      7.877538   605A      7.893134  
     606A      7.912340   607A      7.927449   608A      7.949262  
     609A      7.968535   610A      7.985984   611A      8.003061  
     612A      8.029448   613A      8.032768   614A      8.066234  
     615A      8.084229   616A      8.129695   617A      8.148861  
     618A      8.166595   619A      8.199791   620A      8.273310  
     621A      8.336775   622A      8.348723   623A      8.366729  
     624A      8.405438   625A      8.430424   626A      8.456869  
     627A      8.474522   628A      8.523090   629A      8.571731  
     630A      8.592193   631A      8.638737   632A      8.651453  
     633A      8.674885   634A      8.677572   635A      8.707268  
     636A      8.735520   637A      8.773033   638A      8.787227  
     639A      8.822638   640A      8.856290   641A      8.905580  
     642A      8.952962   643A      8.975074   644A      8.979179  
     645A      9.000385   646A      9.026541   647A      9.049196  
     648A      9.089125   649A      9.096559   650A      9.113323  
     651A      9.144519   652A      9.158484   653A      9.226586  
     654A      9.241684   655A      9.256045   656A      9.288275  
     657A      9.313247   658A      9.321280   659A      9.341329  
     660A      9.367375   661A      9.397763   662A      9.402583  
     663A      9.489622   664A      9.509021   665A      9.518702  
     666A      9.571326   667A      9.601445   668A      9.620721  
     669A      9.653524   670A      9.686227   671A      9.694950  
     672A      9.726985   673A      9.732026   674A      9.779306  
     675A      9.850759   676A      9.883570   677A      9.899580  
     678A      9.938098   679A      9.970175   680A     10.047091  
     681A     10.075550   682A     10.086889   683A     10.118611  
     684A     10.143249   685A     10.178784   686A     10.201104  
     687A     10.208384   688A     10.237369   689A     10.246969  
     690A     10.291952   691A     10.338681   692A     10.362865  
     693A     10.396198   694A     10.410875   695A     10.452283  
     696A     10.466206   697A     10.494532   698A     10.555345  
     699A     10.699179   700A     10.878183   701A     10.896558  
     702A     10.928734   703A     10.939113   704A     10.965886  
     705A     10.982184   706A     11.027817   707A     11.036706  
     708A     11.055916   709A     11.077124   710A     11.088179  
     711A     11.110602   712A     11.124435   713A     11.169623  
     714A     11.190867   715A     11.216652   716A     11.243136  
     717A     11.304956   718A     11.325276   719A     11.372918  
     720A     11.431366   721A     11.487387   722A     11.499025  
     723A     11.522036   724A     11.567081   725A     11.623898  
     726A     11.735114   727A     11.767591   728A     11.826717  
     729A     11.910263   730A     11.997082   731A     12.078106  
     732A     12.099571   733A     12.205903   734A     12.283898  
     735A     12.343714   736A     12.362348   737A     12.417365  
     738A     12.505617   739A     12.524157   740A     12.754502  
     741A     12.868982   742A     12.916902   743A     12.965429  
     744A     13.085417   745A     13.152172   746A     13.251469  
     747A     13.275768   748A     13.302456   749A     13.313655  
     750A     13.331592   751A     13.409144   752A     13.472185  
     753A     13.483551   754A     13.513752   755A     13.627093  
     756A     13.687204   757A     13.760518   758A     14.008633  
     759A     14.084040   760A     14.239044   761A     14.496031  
     762A     14.622220   763A     14.913304   764A     15.172676  
     765A     15.489560   766A     17.258696   767A     17.716205  
     768A     24.317280   769A     28.834052   770A     28.865132  
     771A     44.454493   772A     46.012128  

    Final Occupation by Irrep:
              A 
    DOCC [    26 ]

  @DF-RHF Final Energy:  -627.73774043873743

   => Energetics <=

    Nuclear Repulsion Energy =            264.3997068586810997
    One-Electron Energy =               -1390.0058974083776775
    Two-Electron Energy =                 497.8684501109590883
    Total Energy =                       -627.7377404387374327

Computation Completed


Properties will be evaluated at   0.000000,   0.000000,   0.000000 [a0]

Properties computed using the SCF density matrix

  Nuclear Dipole Moment: [e a0]
     X:    -0.3793      Y:    -4.4327      Z:    -1.5064

  Electronic Dipole Moment: [e a0]
     X:     0.7879      Y:     3.0229      Z:     2.2387

  Dipole Moment: [e a0]
     X:     0.4086      Y:    -1.4097      Z:     0.7323     Total:     1.6403

  Dipole Moment: [D]
     X:     1.0387      Y:    -3.5832      Z:     1.8613     Total:     4.1692


*** tstop() called on node59.bme.utexas.edu at Sat Apr 11 16:49:56 2020
Module time:
	user time   =     186.78 seconds =       3.11 minutes
	system time =       3.82 seconds =       0.06 minutes
	total time  =         35 seconds =       0.58 minutes
Total time:
	user time   =    1034.11 seconds =      17.24 minutes
	system time =      27.49 seconds =       0.46 minutes
	total time  =        208 seconds =       3.47 minutes

*** tstart() called on node59.bme.utexas.edu
*** at Sat Apr 11 16:49:56 2020


  //>>>>>>>>>>>>>>>>>>>>>>>>>>>>>>>>>>>//
  //               DFMP2               //
  //<<<<<<<<<<<<<<<<<<<<<<<<<<<<<<<<<<<//

   => Loading Basis Set <=

    Name: (AUG-CC-PVQZ AUX)
    Role: RIFIT
    Keyword: DF_BASIS_MP2
    atoms 1, 4        entry C          line   184 file /home/liuchw/anaconda3/envs/psi4env/share/psi4/basis/aug-cc-pvqz-ri.gbs 
    atoms 2, 11       entry O          line   332 file /home/liuchw/anaconda3/envs/psi4env/share/psi4/basis/aug-cc-pvqz-ri.gbs 
    atoms 3           entry S          line   824 file /home/liuchw/anaconda3/envs/psi4env/share/psi4/basis/aug-cc-pvqz-ri.gbs 
    atoms 5-10, 12-13 entry H          line    30 file /home/liuchw/anaconda3/envs/psi4env/share/psi4/basis/aug-cc-pvqz-ri.gbs 

	 --------------------------------------------------------
	                          DF-MP2                         
	      2nd-Order Density-Fitted Moller-Plesset Theory     
	              RMP2 Wavefunction,   6 Threads             
	                                                         
	        Rob Parrish, Justin Turney, Andy Simmonett,      
	           Ed Hohenstein, and C. David Sherrill          
	 --------------------------------------------------------

   => Auxiliary Basis Set <=

  Basis Set: (AUG-CC-PVQZ AUX)
    Blend: AUG-CC-PVQZ-RI
    Number of shells: 348
    Number of basis function: 1506
    Number of Cartesian functions: 2056
    Spherical Harmonics?: true
    Max angular momentum: 5

	 --------------------------------------------------------
	                 NBF =   772, NAUX =  1506
	 --------------------------------------------------------
	   CLASS    FOCC     OCC    AOCC    AVIR     VIR    FVIR
	   PAIRS       0      26      26     746     746       0
	 --------------------------------------------------------

	-----------------------------------------------------------
	 ==================> DF-MP2 Energies <==================== 
	-----------------------------------------------------------
	 Reference Energy          =    -627.7377404387374327 [Eh]
	 Singles Energy            =      -0.0000000000000000 [Eh]
	 Same-Spin Energy          =      -0.3038288462604160 [Eh]
	 Opposite-Spin Energy      =      -1.0192008373426691 [Eh]
	 Correlation Energy        =      -1.3230296836030850 [Eh]
	 Total Energy              =    -629.0607701223405002 [Eh]
	-----------------------------------------------------------
	 ================> DF-SCS-MP2 Energies <================== 
	-----------------------------------------------------------
	 SCS Same-Spin Scale       =       0.3333333333333333 [-]
	 SCS Opposite-Spin Scale   =       1.2000000000000000 [-]
	 SCS Same-Spin Energy      =      -0.1012762820868053 [Eh]
	 SCS Opposite-Spin Energy  =      -1.2230410048112028 [Eh]
	 SCS Correlation Energy    =      -1.3243172868980082 [Eh]
	 SCS Total Energy          =    -629.0620577256354409 [Eh]
	-----------------------------------------------------------


*** tstop() called on node59.bme.utexas.edu at Sat Apr 11 16:50:17 2020
Module time:
	user time   =      98.65 seconds =       1.64 minutes
	system time =       2.47 seconds =       0.04 minutes
	total time  =         21 seconds =       0.35 minutes
Total time:
	user time   =    1132.77 seconds =      18.88 minutes
	system time =      29.96 seconds =       0.50 minutes
	total time  =        229 seconds =       3.82 minutes

  //>>>>>>>>>>>>>>>>>>>>>>>>>>>>>>>>>>>//
  //  CBS Results: mp2/aug-cc-pv[tq]z  //
  //<<<<<<<<<<<<<<<<<<<<<<<<<<<<<<<<<<<//


   ==> HF <==

   HI-zeta (4) Energy:               -627.737740438737


   ==> Helgaker 2-point correlated extrapolation for method: MP2 <==

   LO-zeta (3) Energy:               -628.900589379414
   HI-zeta (4) Energy:               -629.060770122341
   Alpha (exponent) Value:             3.000000000000
   Extrapolated Energy:              -629.177658772585

   @Extrapolated MP2/(T,Q):          -629.177658772585



   ==> Helgaker 2-point correlated extrapolation for method: HF <==

   LO-zeta (3) Energy:               -627.714898689865
   HI-zeta (4) Energy:               -627.737740438737
   Alpha (exponent) Value:             3.000000000000
   Extrapolated Energy:              -627.754408741969

   @Extrapolated HF/(T,Q):           -627.754408741969


   ==> Components <==

  ---------------------------------------------------------------------------------------------------------
                          Method / Basis                      Rqd      Energy [Eh]   Variable
  ---------------------------------------------------------------------------------------------------------
                              hf / aug-cc-pvtz                  *    -627.71489869   HF TOTAL ENERGY
                             mp2 / aug-cc-pvtz                  *    -628.90058938   MP2 TOTAL ENERGY
                              hf / aug-cc-pvqz                  *    -627.73774044   HF TOTAL ENERGY
                             mp2 / aug-cc-pvqz                  *    -629.06077012   MP2 TOTAL ENERGY
  ---------------------------------------------------------------------------------------------------------

   ==> Stages <==

  ---------------------------------------------------------------------------------------------------------
      Stage               Method / Basis                       Wt      Energy [Eh]   Scheme
  ---------------------------------------------------------------------------------------------------------
        scf                   hf / aug-cc-pvqz                  1    -627.73774044   xtpl_highest_1
       corl                  mp2 / aug-cc-pv[tq]z               1    -629.17765877   corl_xtpl_helgaker_2
       corl                   hf / aug-cc-pv[tq]z              -1    -627.75440874   corl_xtpl_helgaker_2
  ---------------------------------------------------------------------------------------------------------

   ==> CBS <==

  ---------------------------------------------------------------------------------------------------------
      Stage               Method / Basis                               Energy [Eh]   Scheme
  ---------------------------------------------------------------------------------------------------------
        scf                   hf / aug-cc-pvqz                       -627.73774044   xtpl_highest_1
       corl                  mp2 / aug-cc-pv[tq]z                      -1.42325003   corl_xtpl_helgaker_2
      total                  CBS                                     -629.16099047   
  ---------------------------------------------------------------------------------------------------------
   => Loading Basis Set <=

    Name: DEF2-SVP
    Role: ORBITAL
    Keyword: BASIS
    atoms 1, 4        entry C          line    90 file /home/liuchw/anaconda3/envs/psi4env/share/psi4/basis/def2-svp.gbs 
    atoms 2, 11       entry O          line   130 file /home/liuchw/anaconda3/envs/psi4env/share/psi4/basis/def2-svp.gbs 
    atoms 3           entry S          line   328 file /home/liuchw/anaconda3/envs/psi4env/share/psi4/basis/def2-svp.gbs 
    atoms 5-10, 12-13 entry H          line    15 file /home/liuchw/anaconda3/envs/psi4env/share/psi4/basis/def2-svp.gbs 


       N-Body: Complex Energy (fragments = (1, 2), basis = (1, 2):  -629.16099046935335)

   ==> N-Body: Counterpoise Corrected (CP) energies <==

   n-Body     Total Energy [Eh]       I.E. [kcal/mol]      Delta [kcal/mol]
        1     -629.152499345790        0.000000000000        0.000000000000
        2     -629.160692358778       -5.141193269209       -5.141193269209

   => Loading Basis Set <=

    Name: DEF2-SVP
    Role: ORBITAL
    Keyword: BASIS
    atoms 1, 4        entry C          line    90 file /home/liuchw/anaconda3/envs/psi4env/share/psi4/basis/def2-svp.gbs 
    atoms 2, 11       entry O          line   130 file /home/liuchw/anaconda3/envs/psi4env/share/psi4/basis/def2-svp.gbs 
    atoms 3           entry S          line   328 file /home/liuchw/anaconda3/envs/psi4env/share/psi4/basis/def2-svp.gbs 
    atoms 5-10, 12-13 entry H          line    15 file /home/liuchw/anaconda3/envs/psi4env/share/psi4/basis/def2-svp.gbs 


    Psi4 stopped on: Saturday, 11 April 2020 04:50PM
    Psi4 wall time for execution: 0:03:48.95

*** Psi4 exiting successfully. Buy a developer a beer!
