
    -----------------------------------------------------------------------
          Psi4: An Open-Source Ab Initio Electronic Structure Package
                               Psi4 1.4a2.dev224 

                         Git: Rev {master} e453b16 


    R. M. Parrish, L. A. Burns, D. G. A. Smith, A. C. Simmonett,
    A. E. DePrince III, E. G. Hohenstein, U. Bozkaya, A. Yu. Sokolov,
    R. Di Remigio, R. M. Richard, J. F. Gonthier, A. M. James,
    H. R. McAlexander, A. Kumar, M. Saitow, X. Wang, B. P. Pritchard,
    P. Verma, H. F. Schaefer III, K. Patkowski, R. A. King, E. F. Valeev,
    F. A. Evangelista, J. M. Turney, T. D. Crawford, and C. D. Sherrill,
    J. Chem. Theory Comput. 13(7) pp 3185--3197 (2017).
    (doi: 10.1021/acs.jctc.7b00174)


                         Additional Contributions by
    P. Kraus, H. Kruse, M. H. Lechner, M. C. Schieber, R. A. Shaw,
    A. Alenaizan, R. Galvelis, Z. L. Glick, S. Lehtola, and J. P. Misiewicz

    -----------------------------------------------------------------------


    Psi4 started on: Saturday, 11 April 2020 04:13PM

    Process ID: 83387
    Host:       node144.bme.utexas.edu
    PSIDATADIR: /home/liuchw/anaconda3/envs/psi4env/share/psi4
    Memory:     500.0 MiB
    Threads:    6
    
  ==> Input File <==

--------------------------------------------------------------------------
#Generated by lconvert.py for cbs job

memory 40 GB

molecule  {
-2 1
  P       -0.3212000    -0.0258600     0.3144250
  O        1.1325150     0.1291540     0.8308480
  O       -0.6961380     1.6454840     0.0217810
  O       -1.2994630    -0.4664240     1.4146150
  O       -0.4939090    -0.7059760    -1.0353590
  H        0.1141110     2.0066780     0.3929770
--
0 1
  O        0.2514690    -0.4745070     3.0079440
  H        0.7470550    -0.2308790     2.1933170
  H       -0.5955720    -0.5348930     2.5072620
units angstrom
no_reorient
symmetry c1
}

set {
scf_type DF
mp2_type DF
e_convergence 7
reference rhf
}

energy('mp2/aug-cc-pv[tq]z', bsse_type='cp')
--------------------------------------------------------------------------

  Memory set to  37.253 GiB by Python driver.

Scratch directory: /scratch//


   ===> N-Body Interaction Abacus <===
        BSSE Treatment:                     cp
        Number of 1-body computations:     4
        Number of 2-body computations:     1

   ==> N-Body: Now computing 1-body complexes <==


       N-Body: Computing complex (1/4) with fragments (2,) in the basis of fragments (2,).


Scratch directory: /scratch//

  //>>>>>>>>>>>>>>>>>>>>>>>>>>>>>>>>>>>//
  //   CBS Setup: mp2/aug-cc-pv[tq]z   //
  //<<<<<<<<<<<<<<<<<<<<<<<<<<<<<<<<<<<//

    Naive listing of computations required.
             hf / aug-cc-pvqz              for  HF TOTAL ENERGY
            mp2 / aug-cc-pvtz              for  MP2 TOTAL ENERGY
            mp2 / aug-cc-pvqz              for  MP2 TOTAL ENERGY
             hf / aug-cc-pvtz              for  HF TOTAL ENERGY
             hf / aug-cc-pvqz              for  HF TOTAL ENERGY

    Enlightened listing of computations required.
            mp2 / aug-cc-pvtz              for  MP2 TOTAL ENERGY
            mp2 / aug-cc-pvqz              for  MP2 TOTAL ENERGY

    Full listing of computations to be obtained (required and bonus).
             hf / aug-cc-pvtz              for  HF TOTAL ENERGY
            mp2 / aug-cc-pvtz              for  MP2 TOTAL ENERGY
             hf / aug-cc-pvqz              for  HF TOTAL ENERGY
            mp2 / aug-cc-pvqz              for  MP2 TOTAL ENERGY

  //>>>>>>>>>>>>>>>>>>>>>>>>>>>>>>>>>>>>//
  // CBS Computation: MP2 / AUG-CC-PVTZ //
  //<<<<<<<<<<<<<<<<<<<<<<<<<<<<<<<<<<<<//


Scratch directory: /scratch//

*** tstart() called on node144.bme.utexas.edu
*** at Sat Apr 11 16:13:21 2020

   => Loading Basis Set <=

    Name: AUG-CC-PVTZ
    Role: ORBITAL
    Keyword: BASIS
    atoms 1   entry O          line   331 file /home/liuchw/anaconda3/envs/psi4env/share/psi4/basis/aug-cc-pvtz.gbs 
    atoms 2-3 entry H          line    40 file /home/liuchw/anaconda3/envs/psi4env/share/psi4/basis/aug-cc-pvtz.gbs 


         ---------------------------------------------------------
                                   SCF
               by Justin Turney, Rob Parrish, Andy Simmonett
                          and Daniel G. A. Smith
                              RHF Reference
                        6 Threads,  38146 MiB Core
         ---------------------------------------------------------

  ==> Geometry <==

    Molecular point group: c1
    Full point group: C1

    Geometry (in Angstrom), charge = 0, multiplicity = 1:

       Center              X                  Y                   Z               Mass       
    ------------   -----------------  -----------------  -----------------  -----------------
         O            0.491562528441    -0.496378031786     2.282430900991    15.994914619570
         H            0.987148528441    -0.252750031786     1.467803900991     1.007825032230
         H           -0.355478471559    -0.556764031786     1.781748900991     1.007825032230

  Running in c1 symmetry.

  Rotational constants: A =     16.72787  B =      0.17382  C =      0.17204 [cm^-1]
  Rotational constants: A = 501489.02506  B =   5210.94468  C =   5157.73499 [MHz]
  Nuclear repulsion =    8.970707492172538

  Charge       = 0
  Multiplicity = 1
  Electrons    = 10
  Nalpha       = 5
  Nbeta        = 5

  ==> Algorithm <==

  SCF Algorithm Type is DF.
  DIIS enabled.
  MOM disabled.
  Fractional occupation disabled.
  Guess Type is SAD.
  Energy threshold   = 1.00e-07
  Density threshold  = 1.00e-08
  Integral threshold = 0.00e+00

  ==> Primary Basis <==

  Basis Set: AUG-CC-PVTZ
    Blend: AUG-CC-PVTZ
    Number of shells: 32
    Number of basis function: 92
    Number of Cartesian functions: 105
    Spherical Harmonics?: true
    Max angular momentum: 3

   => Loading Basis Set <=

    Name: (AUG-CC-PVTZ AUX)
    Role: JKFIT
    Keyword: DF_BASIS_SCF
    atoms 1   entry O          line   286 file /home/liuchw/anaconda3/envs/psi4env/share/psi4/basis/aug-cc-pvtz-jkfit.gbs 
    atoms 2-3 entry H          line    70 file /home/liuchw/anaconda3/envs/psi4env/share/psi4/basis/aug-cc-pvtz-jkfit.gbs 

  ==> Pre-Iterations <==

   -------------------------------------------------------
    Irrep   Nso     Nmo     Nalpha   Nbeta   Ndocc  Nsocc
   -------------------------------------------------------
     A         92      92       0       0       0       0
   -------------------------------------------------------
    Total      92      92       5       5       5       0
   -------------------------------------------------------

  ==> Integral Setup <==

  DFHelper Memory: AOs need 0.015 GiB; user supplied 27.940 GiB. Using in-core AOs.

  ==> MemDFJK: Density-Fitted J/K Matrices <==

    J tasked:                   Yes
    K tasked:                   Yes
    wK tasked:                   No
    OpenMP threads:               6
    Memory [MiB]:             28610
    Algorithm:                 Core
    Schwarz Cutoff:           1E-12
    Mask sparsity (%):       0.0000
    Fitting Condition:        1E-10

   => Auxiliary Basis Set <=

  Basis Set: (AUG-CC-PVTZ AUX)
    Blend: AUG-CC-PVTZ-JKFIT
    Number of shells: 58
    Number of basis function: 196
    Number of Cartesian functions: 241
    Spherical Harmonics?: true
    Max angular momentum: 4

  Minimum eigenvalue in the overlap matrix is 4.2462863189E-04.
  Using Symmetric Orthogonalization.

  SCF Guess: Superposition of Atomic Densities via on-the-fly atomic UHF.

  ==> Iterations <==

                           Total Energy        Delta E     RMS |[F,P]|

   @DF-RHF iter SAD:   -75.46065990977752   -7.54607e+01   0.00000e+00 
   @DF-RHF iter   1:   -75.96530931637284   -5.04649e-01   5.08546e-03 DIIS
   @DF-RHF iter   2:   -76.01718692170385   -5.18776e-02   3.62407e-03 DIIS
   @DF-RHF iter   3:   -76.05211066731869   -3.49237e-02   2.42894e-04 DIIS
   @DF-RHF iter   4:   -76.05251840940267   -4.07742e-04   6.27663e-05 DIIS
   @DF-RHF iter   5:   -76.05255013935431   -3.17300e-05   1.53760e-05 DIIS
   @DF-RHF iter   6:   -76.05255303786663   -2.89851e-06   3.23222e-06 DIIS
   @DF-RHF iter   7:   -76.05255317113972   -1.33273e-07   4.85235e-07 DIIS
   @DF-RHF iter   8:   -76.05255317362972   -2.49000e-09   7.79618e-08 DIIS
   @DF-RHF iter   9:   -76.05255317367261   -4.28884e-11   1.31709e-08 DIIS
   @DF-RHF iter  10:   -76.05255317367413   -1.52056e-12   2.55244e-09 DIIS
  Energy and wave function converged.


  ==> Post-Iterations <==

    Orbital Energies [Eh]
    ---------------------

    Doubly Occupied:                                                      

       1A    -20.577382     2A     -1.349171     3A     -0.677106  
       4A     -0.605035     5A     -0.511911  

    Virtual:                                                              

       6A      0.028116     7A      0.048413     8A      0.133471  
       9A      0.161756    10A      0.176474    11A      0.186297  
      12A      0.220517    13A      0.245592    14A      0.270103  
      15A      0.286595    16A      0.303272    17A      0.367351  
      18A      0.430098    19A      0.459187    20A      0.590843  
      21A      0.667544    22A      0.697345    23A      0.726622  
      24A      0.733669    25A      0.837797    26A      0.862163  
      27A      0.901269    28A      0.904794    29A      0.906375  
      30A      0.923156    31A      0.939105    32A      0.941638  
      33A      1.008617    34A      1.032794    35A      1.074346  
      36A      1.102386    37A      1.179684    38A      1.194403  
      39A      1.274551    40A      1.449130    41A      1.508404  
      42A      1.537073    43A      1.831066    44A      1.888236  
      45A      1.938073    46A      2.127685    47A      2.266192  
      48A      2.311329    49A      2.332715    50A      2.411130  
      51A      2.412283    52A      2.447626    53A      2.509822  
      54A      2.673270    55A      2.705903    56A      2.717454  
      57A      2.823230    58A      2.865524    59A      3.535599  
      60A      3.652880    61A      4.012327    62A      4.044696  
      63A      4.089114    64A      4.093985    65A      4.282447  
      66A      4.361495    67A      4.369476    68A      4.399409  
      69A      4.560859    70A      4.737961    71A      4.806417  
      72A      5.059603    73A      5.093552    74A      5.152766  
      75A      5.386453    76A      5.485403    77A      5.511204  
      78A      6.258710    79A      6.454132    80A      6.691813  
      81A      6.990987    82A      7.062807    83A      7.094808  
      84A      7.267238    85A      7.276356    86A      7.325756  
      87A      7.422908    88A      7.447261    89A      7.720724  
      90A      7.926518    91A      8.758799    92A     15.044851  

    Final Occupation by Irrep:
              A 
    DOCC [     5 ]

  @DF-RHF Final Energy:   -76.05255317367413

   => Energetics <=

    Nuclear Repulsion Energy =              8.9707074921725383
    One-Electron Energy =                -122.6053098776486365
    Two-Electron Energy =                  37.5820492118019658
    Total Energy =                        -76.0525531736741414

Computation Completed


Properties will be evaluated at   0.000000,   0.000000,   0.000000 [a0]

Properties computed using the SCF density matrix

  Nuclear Dipole Moment: [e a0]
     X:     8.6250      Y:    -9.0339      Z:    40.6461

  Electronic Dipole Moment: [e a0]
     X:    -8.8470      Y:     9.1499      Z:   -41.4785

  Dipole Moment: [e a0]
     X:    -0.2220      Y:     0.1160      Z:    -0.8323     Total:     0.8692

  Dipole Moment: [D]
     X:    -0.5643      Y:     0.2949      Z:    -2.1156     Total:     2.2093


*** tstop() called on node144.bme.utexas.edu at Sat Apr 11 16:13:24 2020
Module time:
	user time   =       9.68 seconds =       0.16 minutes
	system time =       1.04 seconds =       0.02 minutes
	total time  =          3 seconds =       0.05 minutes
Total time:
	user time   =       9.68 seconds =       0.16 minutes
	system time =       1.04 seconds =       0.02 minutes
	total time  =          3 seconds =       0.05 minutes

*** tstart() called on node144.bme.utexas.edu
*** at Sat Apr 11 16:13:24 2020


  //>>>>>>>>>>>>>>>>>>>>>>>>>>>>>>>>>>>//
  //               DFMP2               //
  //<<<<<<<<<<<<<<<<<<<<<<<<<<<<<<<<<<<//

   => Loading Basis Set <=

    Name: (AUG-CC-PVTZ AUX)
    Role: RIFIT
    Keyword: DF_BASIS_MP2
    atoms 1   entry O          line   264 file /home/liuchw/anaconda3/envs/psi4env/share/psi4/basis/aug-cc-pvtz-ri.gbs 
    atoms 2-3 entry H          line    30 file /home/liuchw/anaconda3/envs/psi4env/share/psi4/basis/aug-cc-pvtz-ri.gbs 

	 --------------------------------------------------------
	                          DF-MP2                         
	      2nd-Order Density-Fitted Moller-Plesset Theory     
	              RMP2 Wavefunction,   6 Threads             
	                                                         
	        Rob Parrish, Justin Turney, Andy Simmonett,      
	           Ed Hohenstein, and C. David Sherrill          
	 --------------------------------------------------------

   => Auxiliary Basis Set <=

  Basis Set: (AUG-CC-PVTZ AUX)
    Blend: AUG-CC-PVTZ-RI
    Number of shells: 56
    Number of basis function: 198
    Number of Cartesian functions: 246
    Spherical Harmonics?: true
    Max angular momentum: 4

	 --------------------------------------------------------
	                 NBF =    92, NAUX =   198
	 --------------------------------------------------------
	   CLASS    FOCC     OCC    AOCC    AVIR     VIR    FVIR
	   PAIRS       0       5       5      87      87       0
	 --------------------------------------------------------

	-----------------------------------------------------------
	 ==================> DF-MP2 Energies <==================== 
	-----------------------------------------------------------
	 Reference Energy          =     -76.0525531736741272 [Eh]
	 Singles Energy            =      -0.0000000000000000 [Eh]
	 Same-Spin Energy          =      -0.0692897795299553 [Eh]
	 Opposite-Spin Energy      =      -0.2176696965688560 [Eh]
	 Correlation Energy        =      -0.2869594760988113 [Eh]
	 Total Energy              =     -76.3395126497729422 [Eh]
	-----------------------------------------------------------
	 ================> DF-SCS-MP2 Energies <================== 
	-----------------------------------------------------------
	 SCS Same-Spin Scale       =       0.3333333333333333 [-]
	 SCS Opposite-Spin Scale   =       1.2000000000000000 [-]
	 SCS Same-Spin Energy      =      -0.0230965931766518 [Eh]
	 SCS Opposite-Spin Energy  =      -0.2612036358826272 [Eh]
	 SCS Correlation Energy    =      -0.2843002290592790 [Eh]
	 SCS Total Energy          =     -76.3368534027334107 [Eh]
	-----------------------------------------------------------


*** tstop() called on node144.bme.utexas.edu at Sat Apr 11 16:13:25 2020
Module time:
	user time   =       2.88 seconds =       0.05 minutes
	system time =       0.22 seconds =       0.00 minutes
	total time  =          1 seconds =       0.02 minutes
Total time:
	user time   =      12.58 seconds =       0.21 minutes
	system time =       1.26 seconds =       0.02 minutes
	total time  =          4 seconds =       0.07 minutes

  //>>>>>>>>>>>>>>>>>>>>>>>>>>>>>>>>>>>>//
  // CBS Computation: MP2 / AUG-CC-PVQZ //
  //<<<<<<<<<<<<<<<<<<<<<<<<<<<<<<<<<<<<//


Scratch directory: /scratch//

*** tstart() called on node144.bme.utexas.edu
*** at Sat Apr 11 16:13:25 2020

   => Loading Basis Set <=

    Name: AUG-CC-PVQZ
    Role: ORBITAL
    Keyword: BASIS
    atoms 1   entry O          line   423 file /home/liuchw/anaconda3/envs/psi4env/share/psi4/basis/aug-cc-pvqz.gbs 
    atoms 2-3 entry H          line    40 file /home/liuchw/anaconda3/envs/psi4env/share/psi4/basis/aug-cc-pvqz.gbs 


         ---------------------------------------------------------
                                   SCF
               by Justin Turney, Rob Parrish, Andy Simmonett
                          and Daniel G. A. Smith
                              RHF Reference
                        6 Threads,  38146 MiB Core
         ---------------------------------------------------------

  ==> Geometry <==

    Molecular point group: c1
    Full point group: C1

    Geometry (in Angstrom), charge = 0, multiplicity = 1:

       Center              X                  Y                   Z               Mass       
    ------------   -----------------  -----------------  -----------------  -----------------
         O            0.491562528441    -0.496378031786     2.282430900991    15.994914619570
         H            0.987148528441    -0.252750031786     1.467803900991     1.007825032230
         H           -0.355478471559    -0.556764031786     1.781748900991     1.007825032230

  Running in c1 symmetry.

  Rotational constants: A =     16.72787  B =      0.17382  C =      0.17204 [cm^-1]
  Rotational constants: A = 501489.02506  B =   5210.94468  C =   5157.73499 [MHz]
  Nuclear repulsion =    8.970707492172538

  Charge       = 0
  Multiplicity = 1
  Electrons    = 10
  Nalpha       = 5
  Nbeta        = 5

  ==> Algorithm <==

  SCF Algorithm Type is DF.
  DIIS enabled.
  MOM disabled.
  Fractional occupation disabled.
  Guess Type is SAD.
  Energy threshold   = 1.00e-07
  Density threshold  = 1.00e-08
  Integral threshold = 0.00e+00

  ==> Primary Basis <==

  Basis Set: AUG-CC-PVQZ
    Blend: AUG-CC-PVQZ
    Number of shells: 48
    Number of basis function: 172
    Number of Cartesian functions: 215
    Spherical Harmonics?: true
    Max angular momentum: 4

   => Loading Basis Set <=

    Name: (AUG-CC-PVQZ AUX)
    Role: JKFIT
    Keyword: DF_BASIS_SCF
    atoms 1   entry O          line   318 file /home/liuchw/anaconda3/envs/psi4env/share/psi4/basis/aug-cc-pvqz-jkfit.gbs 
    atoms 2-3 entry H          line    70 file /home/liuchw/anaconda3/envs/psi4env/share/psi4/basis/aug-cc-pvqz-jkfit.gbs 

  ==> Pre-Iterations <==

   -------------------------------------------------------
    Irrep   Nso     Nmo     Nalpha   Nbeta   Ndocc  Nsocc
   -------------------------------------------------------
     A        172     172       0       0       0       0
   -------------------------------------------------------
    Total     172     172       5       5       5       0
   -------------------------------------------------------

  ==> Integral Setup <==

  DFHelper Memory: AOs need 0.074 GiB; user supplied 27.940 GiB. Using in-core AOs.

  ==> MemDFJK: Density-Fitted J/K Matrices <==

    J tasked:                   Yes
    K tasked:                   Yes
    wK tasked:                   No
    OpenMP threads:               6
    Memory [MiB]:             28610
    Algorithm:                 Core
    Schwarz Cutoff:           1E-12
    Mask sparsity (%):       0.0000
    Fitting Condition:        1E-10

   => Auxiliary Basis Set <=

  Basis Set: (AUG-CC-PVQZ AUX)
    Blend: AUG-CC-PVQZ-JKFIT
    Number of shells: 70
    Number of basis function: 294
    Number of Cartesian functions: 400
    Spherical Harmonics?: true
    Max angular momentum: 5

  Minimum eigenvalue in the overlap matrix is 9.6568458136E-05.
  Using Symmetric Orthogonalization.

  SCF Guess: Superposition of Atomic Densities via on-the-fly atomic UHF.

  ==> Iterations <==

                           Total Energy        Delta E     RMS |[F,P]|

   @DF-RHF iter SAD:   -75.46572028126420   -7.54657e+01   0.00000e+00 
   @DF-RHF iter   1:   -75.97029719939454   -5.04577e-01   2.72635e-03 DIIS
   @DF-RHF iter   2:   -76.02225244274916   -5.19552e-02   1.94641e-03 DIIS
   @DF-RHF iter   3:   -76.05737794820818   -3.51255e-02   1.31053e-04 DIIS
   @DF-RHF iter   4:   -76.05778797957845   -4.10031e-04   3.44936e-05 DIIS
   @DF-RHF iter   5:   -76.05782074248000   -3.27629e-05   8.42613e-06 DIIS
   @DF-RHF iter   6:   -76.05782374566122   -3.00318e-06   1.83046e-06 DIIS
   @DF-RHF iter   7:   -76.05782389553852   -1.49877e-07   2.85182e-07 DIIS
   @DF-RHF iter   8:   -76.05782389854929   -3.01077e-09   4.33281e-08 DIIS
   @DF-RHF iter   9:   -76.05782389859758   -4.82885e-11   7.38852e-09 DIIS
  Energy and wave function converged.


  ==> Post-Iterations <==

    Orbital Energies [Eh]
    ---------------------

    Doubly Occupied:                                                      

       1A    -20.574896     2A     -1.348424     3A     -0.677073  
       4A     -0.605063     5A     -0.512058  

    Virtual:                                                              

       6A      0.025786     7A      0.043693     8A      0.111871  
       9A      0.136330    10A      0.152071    11A      0.160962  
      12A      0.181059    13A      0.196766    14A      0.212550  
      15A      0.226652    16A      0.252803    17A      0.294415  
      18A      0.350662    19A      0.382899    20A      0.466460  
      21A      0.512907    22A      0.536899    23A      0.553203  
      24A      0.556421    25A      0.621412    26A      0.630762  
      27A      0.647540    28A      0.662027    29A      0.662102  
      30A      0.670784    31A      0.710732    32A      0.728229  
      33A      0.767223    34A      0.779877    35A      0.784222  
      36A      0.801441    37A      0.838758    38A      0.845200  
      39A      0.976962    40A      1.078520    41A      1.151632  
      42A      1.180328    43A      1.335826    44A      1.473741  
      45A      1.486615    46A      1.488122    47A      1.514403  
      48A      1.537390    49A      1.551158    50A      1.577876  
      51A      1.623312    52A      1.623919    53A      1.644473  
      54A      1.682352    55A      1.694024    56A      1.694592  
      57A      1.732308    58A      1.734703    59A      1.748393  
      60A      1.792099    61A      1.871845    62A      1.886959  
      63A      1.925121    64A      1.959644    65A      1.970293  
      66A      2.052287    67A      2.053126    68A      2.084727  
      69A      2.112737    70A      2.164511    71A      2.194253  
      72A      2.313124    73A      2.340667    74A      2.559895  
      75A      2.591160    76A      2.880548    77A      2.889921  
      78A      2.928719    79A      3.020175    80A      3.056329  
      81A      3.084623    82A      3.137721    83A      3.402862  
      84A      3.404738    85A      3.442272    86A      3.546554  
      87A      3.600589    88A      3.669073    89A      3.686012  
      90A      3.935948    91A      3.938065    92A      4.079408  
      93A      4.152292    94A      4.163115    95A      4.171409  
      96A      4.200849    97A      4.210927    98A      4.285606  
      99A      4.431450   100A      4.583968   101A      4.633794  
     102A      4.703989   103A      4.720180   104A      4.724438  
     105A      4.862443   106A      4.932175   107A      4.937893  
     108A      5.180939   109A      5.273252   110A      5.416367  
     111A      5.578338   112A      5.746319   113A      5.867038  
     114A      6.015008   115A      6.122227   116A      6.621238  
     117A      6.734503   118A      6.927395   119A      7.002250  
     120A      7.593229   121A      7.623490   122A      7.730614  
     123A      7.786534   124A      7.802583   125A      7.811936  
     126A      7.892251   127A      7.895266   128A      8.052894  
     129A      8.101972   130A      8.538923   131A      8.592596  
     132A      8.619718   133A      8.657687   134A      8.800832  
     135A      8.855415   136A      9.013881   137A      9.014460  
     138A      9.308538   139A      9.573923   140A      9.726178  
     141A      9.810491   142A      9.860436   143A     10.047711  
     144A     10.258264   145A     10.461136   146A     10.878862  
     147A     11.025491   148A     11.075317   149A     11.132561  
     150A     11.187075   151A     11.294323   152A     11.326194  
     153A     11.742625   154A     11.750170   155A     11.779552  
     156A     11.928038   157A     12.073132   158A     12.231943  
     159A     12.459321   160A     12.660023   161A     12.842842  
     162A     12.912677   163A     12.920016   164A     13.566757  
     165A     13.862371   166A     14.404842   167A     14.525445  
     168A     14.939366   169A     15.033460   170A     16.469792  
     171A     17.190125   172A     45.216940  

    Final Occupation by Irrep:
              A 
    DOCC [     5 ]

  @DF-RHF Final Energy:   -76.05782389859758

   => Energetics <=

    Nuclear Repulsion Energy =              8.9707074921725383
    One-Electron Energy =                -122.6220300968215042
    Two-Electron Energy =                  37.5934987060513919
    Total Energy =                        -76.0578238985975759

Computation Completed


Properties will be evaluated at   0.000000,   0.000000,   0.000000 [a0]

Properties computed using the SCF density matrix

  Nuclear Dipole Moment: [e a0]
     X:     8.6250      Y:    -9.0339      Z:    40.6461

  Electronic Dipole Moment: [e a0]
     X:    -8.8468      Y:     9.1498      Z:   -41.4776

  Dipole Moment: [e a0]
     X:    -0.2218      Y:     0.1159      Z:    -0.8315     Total:     0.8683

  Dipole Moment: [D]
     X:    -0.5638      Y:     0.2946      Z:    -2.1135     Total:     2.2071


*** tstop() called on node144.bme.utexas.edu at Sat Apr 11 16:13:29 2020
Module time:
	user time   =      17.58 seconds =       0.29 minutes
	system time =       1.40 seconds =       0.02 minutes
	total time  =          4 seconds =       0.07 minutes
Total time:
	user time   =      30.26 seconds =       0.50 minutes
	system time =       2.67 seconds =       0.04 minutes
	total time  =          8 seconds =       0.13 minutes

*** tstart() called on node144.bme.utexas.edu
*** at Sat Apr 11 16:13:29 2020


  //>>>>>>>>>>>>>>>>>>>>>>>>>>>>>>>>>>>//
  //               DFMP2               //
  //<<<<<<<<<<<<<<<<<<<<<<<<<<<<<<<<<<<//

   => Loading Basis Set <=

    Name: (AUG-CC-PVQZ AUX)
    Role: RIFIT
    Keyword: DF_BASIS_MP2
    atoms 1   entry O          line   332 file /home/liuchw/anaconda3/envs/psi4env/share/psi4/basis/aug-cc-pvqz-ri.gbs 
    atoms 2-3 entry H          line    30 file /home/liuchw/anaconda3/envs/psi4env/share/psi4/basis/aug-cc-pvqz-ri.gbs 

	 --------------------------------------------------------
	                          DF-MP2                         
	      2nd-Order Density-Fitted Moller-Plesset Theory     
	              RMP2 Wavefunction,   6 Threads             
	                                                         
	        Rob Parrish, Justin Turney, Andy Simmonett,      
	           Ed Hohenstein, and C. David Sherrill          
	 --------------------------------------------------------

   => Auxiliary Basis Set <=

  Basis Set: (AUG-CC-PVQZ AUX)
    Blend: AUG-CC-PVQZ-RI
    Number of shells: 76
    Number of basis function: 328
    Number of Cartesian functions: 447
    Spherical Harmonics?: true
    Max angular momentum: 5

	 --------------------------------------------------------
	                 NBF =   172, NAUX =   328
	 --------------------------------------------------------
	   CLASS    FOCC     OCC    AOCC    AVIR     VIR    FVIR
	   PAIRS       0       5       5     167     167       0
	 --------------------------------------------------------

	-----------------------------------------------------------
	 ==================> DF-MP2 Energies <==================== 
	-----------------------------------------------------------
	 Reference Energy          =     -76.0578238985975759 [Eh]
	 Singles Energy            =      -0.0000000000000000 [Eh]
	 Same-Spin Energy          =      -0.0735662723715200 [Eh]
	 Opposite-Spin Energy      =      -0.2465635162833962 [Eh]
	 Correlation Energy        =      -0.3201297886549161 [Eh]
	 Total Energy              =     -76.3779536872524858 [Eh]
	-----------------------------------------------------------
	 ================> DF-SCS-MP2 Energies <================== 
	-----------------------------------------------------------
	 SCS Same-Spin Scale       =       0.3333333333333333 [-]
	 SCS Opposite-Spin Scale   =       1.2000000000000000 [-]
	 SCS Same-Spin Energy      =      -0.0245220907905067 [Eh]
	 SCS Opposite-Spin Energy  =      -0.2958762195400754 [Eh]
	 SCS Correlation Energy    =      -0.3203983103305821 [Eh]
	 SCS Total Energy          =     -76.3782222089281646 [Eh]
	-----------------------------------------------------------


*** tstop() called on node144.bme.utexas.edu at Sat Apr 11 16:13:31 2020
Module time:
	user time   =       5.87 seconds =       0.10 minutes
	system time =       0.50 seconds =       0.01 minutes
	total time  =          2 seconds =       0.03 minutes
Total time:
	user time   =      36.15 seconds =       0.60 minutes
	system time =       3.18 seconds =       0.05 minutes
	total time  =         10 seconds =       0.17 minutes

  //>>>>>>>>>>>>>>>>>>>>>>>>>>>>>>>>>>>//
  //  CBS Results: mp2/aug-cc-pv[tq]z  //
  //<<<<<<<<<<<<<<<<<<<<<<<<<<<<<<<<<<<//


   ==> HF <==

   HI-zeta (4) Energy:               -76.057823898598


   ==> Helgaker 2-point correlated extrapolation for method: MP2 <==

   LO-zeta (3) Energy:               -76.339512649773
   HI-zeta (4) Energy:               -76.377953687252
   Alpha (exponent) Value:             3.000000000000
   Extrapolated Energy:              -76.406005255143

   @Extrapolated MP2/(T,Q):          -76.406005255143



   ==> Helgaker 2-point correlated extrapolation for method: HF <==

   LO-zeta (3) Energy:               -76.052553173674
   HI-zeta (4) Energy:               -76.057823898598
   Alpha (exponent) Value:             3.000000000000
   Extrapolated Energy:              -76.061670103271

   @Extrapolated HF/(T,Q):           -76.061670103271


   ==> Components <==

  ---------------------------------------------------------------------------------------------------------
                          Method / Basis                      Rqd      Energy [Eh]   Variable
  ---------------------------------------------------------------------------------------------------------
                              hf / aug-cc-pvtz                  *     -76.05255317   HF TOTAL ENERGY
                             mp2 / aug-cc-pvtz                  *     -76.33951265   MP2 TOTAL ENERGY
                              hf / aug-cc-pvqz                  *     -76.05782390   HF TOTAL ENERGY
                             mp2 / aug-cc-pvqz                  *     -76.37795369   MP2 TOTAL ENERGY
  ---------------------------------------------------------------------------------------------------------

   ==> Stages <==

  ---------------------------------------------------------------------------------------------------------
      Stage               Method / Basis                       Wt      Energy [Eh]   Scheme
  ---------------------------------------------------------------------------------------------------------
        scf                   hf / aug-cc-pvqz                  1     -76.05782390   xtpl_highest_1
       corl                  mp2 / aug-cc-pv[tq]z               1     -76.40600526   corl_xtpl_helgaker_2
       corl                   hf / aug-cc-pv[tq]z              -1     -76.06167010   corl_xtpl_helgaker_2
  ---------------------------------------------------------------------------------------------------------

   ==> CBS <==

  ---------------------------------------------------------------------------------------------------------
      Stage               Method / Basis                               Energy [Eh]   Scheme
  ---------------------------------------------------------------------------------------------------------
        scf                   hf / aug-cc-pvqz                        -76.05782390   xtpl_highest_1
       corl                  mp2 / aug-cc-pv[tq]z                      -0.34433515   corl_xtpl_helgaker_2
      total                  CBS                                      -76.40215905   
  ---------------------------------------------------------------------------------------------------------
   => Loading Basis Set <=

    Name: DEF2-SVP
    Role: ORBITAL
    Keyword: BASIS
    atoms 1   entry O          line   130 file /home/liuchw/anaconda3/envs/psi4env/share/psi4/basis/def2-svp.gbs 
    atoms 2-3 entry H          line    15 file /home/liuchw/anaconda3/envs/psi4env/share/psi4/basis/def2-svp.gbs 


       N-Body: Complex Energy (fragments = (2,), basis = (2,):   -76.40215905046911)

       N-Body: Computing complex (2/4) with fragments (2,) in the basis of fragments (1, 2).


Scratch directory: /scratch//

  //>>>>>>>>>>>>>>>>>>>>>>>>>>>>>>>>>>>//
  //   CBS Setup: mp2/aug-cc-pv[tq]z   //
  //<<<<<<<<<<<<<<<<<<<<<<<<<<<<<<<<<<<//

    Naive listing of computations required.
             hf / aug-cc-pvqz              for  HF TOTAL ENERGY
            mp2 / aug-cc-pvtz              for  MP2 TOTAL ENERGY
            mp2 / aug-cc-pvqz              for  MP2 TOTAL ENERGY
             hf / aug-cc-pvtz              for  HF TOTAL ENERGY
             hf / aug-cc-pvqz              for  HF TOTAL ENERGY

    Enlightened listing of computations required.
            mp2 / aug-cc-pvtz              for  MP2 TOTAL ENERGY
            mp2 / aug-cc-pvqz              for  MP2 TOTAL ENERGY

    Full listing of computations to be obtained (required and bonus).
             hf / aug-cc-pvtz              for  HF TOTAL ENERGY
            mp2 / aug-cc-pvtz              for  MP2 TOTAL ENERGY
             hf / aug-cc-pvqz              for  HF TOTAL ENERGY
            mp2 / aug-cc-pvqz              for  MP2 TOTAL ENERGY

  //>>>>>>>>>>>>>>>>>>>>>>>>>>>>>>>>>>>>//
  // CBS Computation: MP2 / AUG-CC-PVTZ //
  //<<<<<<<<<<<<<<<<<<<<<<<<<<<<<<<<<<<<//


Scratch directory: /scratch//

*** tstart() called on node144.bme.utexas.edu
*** at Sat Apr 11 16:13:33 2020

   => Loading Basis Set <=

    Name: AUG-CC-PVTZ
    Role: ORBITAL
    Keyword: BASIS
    atoms 1      entry P          line   824 file /home/liuchw/anaconda3/envs/psi4env/share/psi4/basis/aug-cc-pvtz.gbs 
    atoms 2-5, 7 entry O          line   331 file /home/liuchw/anaconda3/envs/psi4env/share/psi4/basis/aug-cc-pvtz.gbs 
    atoms 6, 8-9 entry H          line    40 file /home/liuchw/anaconda3/envs/psi4env/share/psi4/basis/aug-cc-pvtz.gbs 


         ---------------------------------------------------------
                                   SCF
               by Justin Turney, Rob Parrish, Andy Simmonett
                          and Daniel G. A. Smith
                              RHF Reference
                        6 Threads,  38146 MiB Core
         ---------------------------------------------------------

  ==> Geometry <==

    Molecular point group: c1
    Full point group: C1

    Geometry (in Angstrom), charge = 0, multiplicity = 1:

       Center              X                  Y                   Z               Mass       
    ------------   -----------------  -----------------  -----------------  -----------------
      Gh(P)          -0.081106471559    -0.047731031786    -0.411088099009    30.973761998420
      Gh(O)           1.372608528441     0.107282968214     0.105334900991    15.994914619570
      Gh(O)          -0.456044471559     1.623612968214    -0.703732099009    15.994914619570
      Gh(O)          -1.059369471559    -0.488295031786     0.689101900991    15.994914619570
      Gh(O)          -0.253815471559    -0.727847031786    -1.760872099009    15.994914619570
      Gh(H)           0.354204528441     1.984806968214    -0.332536099009     1.007825032230
         O            0.491562528441    -0.496378031786     2.282430900991    15.994914619570
         H            0.987148528441    -0.252750031786     1.467803900991     1.007825032230
         H           -0.355478471559    -0.556764031786     1.781748900991     1.007825032230

  Running in c1 symmetry.

  Rotational constants: A =      0.15156  B =      0.07654  C =      0.07372 [cm^-1]
  Rotational constants: A =   4543.64287  B =   2294.58830  C =   2210.08293 [MHz]
  Nuclear repulsion =    8.970707492172538

  Charge       = 0
  Multiplicity = 1
  Electrons    = 10
  Nalpha       = 5
  Nbeta        = 5

  ==> Algorithm <==

  SCF Algorithm Type is DF.
  DIIS enabled.
  MOM disabled.
  Fractional occupation disabled.
  Guess Type is SAD.
  Energy threshold   = 1.00e-07
  Density threshold  = 1.00e-08
  Integral threshold = 0.00e+00

  ==> Primary Basis <==

  Basis Set: AUG-CC-PVTZ
    Blend: AUG-CC-PVTZ
    Number of shells: 113
    Number of basis function: 349
    Number of Cartesian functions: 409
    Spherical Harmonics?: true
    Max angular momentum: 3

   => Loading Basis Set <=

    Name: (AUG-CC-PVTZ AUX)
    Role: JKFIT
    Keyword: DF_BASIS_SCF
    atoms 1      entry P          line   644 file /home/liuchw/anaconda3/envs/psi4env/share/psi4/basis/aug-cc-pvtz-jkfit.gbs 
    atoms 2-5, 7 entry O          line   286 file /home/liuchw/anaconda3/envs/psi4env/share/psi4/basis/aug-cc-pvtz-jkfit.gbs 
    atoms 6, 8-9 entry H          line    70 file /home/liuchw/anaconda3/envs/psi4env/share/psi4/basis/aug-cc-pvtz-jkfit.gbs 

  ==> Pre-Iterations <==

   -------------------------------------------------------
    Irrep   Nso     Nmo     Nalpha   Nbeta   Ndocc  Nsocc
   -------------------------------------------------------
     A        349     349       0       0       0       0
   -------------------------------------------------------
    Total     349     349       5       5       5       0
   -------------------------------------------------------

  ==> Integral Setup <==

  DFHelper Memory: AOs need 0.753 GiB; user supplied 27.940 GiB. Using in-core AOs.

  ==> MemDFJK: Density-Fitted J/K Matrices <==

    J tasked:                   Yes
    K tasked:                   Yes
    wK tasked:                   No
    OpenMP threads:               6
    Memory [MiB]:             28610
    Algorithm:                 Core
    Schwarz Cutoff:           1E-12
    Mask sparsity (%):       1.5041
    Fitting Condition:        1E-10

   => Auxiliary Basis Set <=

  Basis Set: (AUG-CC-PVTZ AUX)
    Blend: AUG-CC-PVTZ-JKFIT
    Number of shells: 234
    Number of basis function: 804
    Number of Cartesian functions: 1000
    Spherical Harmonics?: true
    Max angular momentum: 4

  Minimum eigenvalue in the overlap matrix is 7.7256559532E-05.
  Using Symmetric Orthogonalization.

  SCF Guess: Superposition of Atomic Densities via on-the-fly atomic UHF.

  ==> Iterations <==

                           Total Energy        Delta E     RMS |[F,P]|

   @DF-RHF iter SAD:   -75.46065984889331   -7.54607e+01   0.00000e+00 
   @DF-RHF iter   1:   -75.96544537832780   -5.04786e-01   1.34088e-03 DIIS
   @DF-RHF iter   2:   -76.01734563134815   -5.19003e-02   9.55688e-04 DIIS
   @DF-RHF iter   3:   -76.05227659963097   -3.49310e-02   6.40616e-05 DIIS
   @DF-RHF iter   4:   -76.05268446228281   -4.07863e-04   1.65588e-05 DIIS
   @DF-RHF iter   5:   -76.05271625808643   -3.17958e-05   4.06057e-06 DIIS
   @DF-RHF iter   6:   -76.05271916787333   -2.90979e-06   8.54726e-07 DIIS
   @DF-RHF iter   7:   -76.05271930236263   -1.34489e-07   1.29277e-07 DIIS
   @DF-RHF iter   8:   -76.05271930491580   -2.55316e-09   2.07138e-08 DIIS
   @DF-RHF iter   9:   -76.05271930496042   -4.46221e-11   3.53726e-09 DIIS
  Energy and wave function converged.


  ==> Post-Iterations <==

    Orbital Energies [Eh]
    ---------------------

    Doubly Occupied:                                                      

       1A    -20.577231     2A     -1.349038     3A     -0.677002  
       4A     -0.604937     5A     -0.511845  

    Virtual:                                                              

       6A      0.016321     7A      0.043039     8A      0.047510  
       9A      0.053795    10A      0.072058    11A      0.075755  
      12A      0.079406    13A      0.120979    14A      0.128413  
      15A      0.132397    16A      0.143985    17A      0.158253  
      18A      0.165209    19A      0.178191    20A      0.184887  
      21A      0.187263    22A      0.193521    23A      0.200614  
      24A      0.209797    25A      0.212339    26A      0.219543  
      27A      0.225454    28A      0.228700    29A      0.256237  
      30A      0.259742    31A      0.271245    32A      0.283272  
      33A      0.306217    34A      0.313489    35A      0.326879  
      36A      0.344472    37A      0.358321    38A      0.362529  
      39A      0.365121    40A      0.378106    41A      0.383103  
      42A      0.403804    43A      0.410363    44A      0.421356  
      45A      0.443091    46A      0.447815    47A      0.463200  
      48A      0.476743    49A      0.486931    50A      0.495191  
      51A      0.539825    52A      0.544510    53A      0.587604  
      54A      0.628428    55A      0.635757    56A      0.647953  
      57A      0.654059    58A      0.687464    59A      0.696828  
      60A      0.700743    61A      0.717464    62A      0.731362  
      63A      0.743091    64A      0.753760    65A      0.763703  
      66A      0.771609    67A      0.789750    68A      0.791758  
      69A      0.801184    70A      0.810347    71A      0.818541  
      72A      0.832186    73A      0.850797    74A      0.855294  
      75A      0.872134    76A      0.878396    77A      0.889551  
      78A      0.895081    79A      0.898971    80A      0.921033  
      81A      0.930311    82A      0.939824    83A      0.958270  
      84A      0.967290    85A      0.983744    86A      1.008631  
      87A      1.022896    88A      1.029227    89A      1.044645  
      90A      1.060428    91A      1.067737    92A      1.078778  
      93A      1.091371    94A      1.122359    95A      1.141780  
      96A      1.155714    97A      1.171804    98A      1.192536  
      99A      1.199359   100A      1.219423   101A      1.243652  
     102A      1.253690   103A      1.261843   104A      1.281552  
     105A      1.290324   106A      1.298601   107A      1.313673  
     108A      1.330503   109A      1.338489   110A      1.370621  
     111A      1.383097   112A      1.410070   113A      1.416299  
     114A      1.441345   115A      1.458183   116A      1.469981  
     117A      1.497357   118A      1.505750   119A      1.534953  
     120A      1.548050   121A      1.559266   122A      1.591631  
     123A      1.597763   124A      1.606636   125A      1.624815  
     126A      1.634453   127A      1.649223   128A      1.679349  
     129A      1.714350   130A      1.758718   131A      1.770553  
     132A      1.836910   133A      1.854384   134A      1.901875  
     135A      1.910807   136A      1.948028   137A      1.974835  
     138A      2.013999   139A      2.044177   140A      2.181110  
     141A      2.299059   142A      2.311975   143A      2.339322  
     144A      2.349874   145A      2.356722   146A      2.372250  
     147A      2.391499   148A      2.407287   149A      2.420061  
     150A      2.428541   151A      2.448174   152A      2.468210  
     153A      2.496665   154A      2.507472   155A      2.513400  
     156A      2.527581   157A      2.540676   158A      2.549520  
     159A      2.559985   160A      2.573389   161A      2.577718  
     162A      2.608254   163A      2.613506   164A      2.637089  
     165A      2.646472   166A      2.658126   167A      2.679072  
     168A      2.686043   169A      2.699133   170A      2.710742  
     171A      2.719300   172A      2.737069   173A      2.752598  
     174A      2.772617   175A      2.780427   176A      2.795792  
     177A      2.813678   178A      2.818748   179A      2.830194  
     180A      2.831580   181A      2.838026   182A      2.856740  
     183A      2.874819   184A      2.897807   185A      2.900083  
     186A      2.907820   187A      2.929438   188A      2.970729  
     189A      2.985912   190A      3.013448   191A      3.053449  
     192A      3.060154   193A      3.121702   194A      3.141252  
     195A      3.155763   196A      3.161514   197A      3.175267  
     198A      3.200424   199A      3.212021   200A      3.226074  
     201A      3.251770   202A      3.265922   203A      3.271040  
     204A      3.283953   205A      3.301446   206A      3.322456  
     207A      3.338523   208A      3.342591   209A      3.377017  
     210A      3.392649   211A      3.430034   212A      3.438811  
     213A      3.481804   214A      3.633519   215A      3.676444  
     216A      3.763153   217A      3.805133   218A      3.873930  
     219A      3.908585   220A      3.942912   221A      4.010834  
     222A      4.043752   223A      4.110735   224A      4.134913  
     225A      4.182402   226A      4.207800   227A      4.244439  
     228A      4.260714   229A      4.275710   230A      4.348690  
     231A      4.373508   232A      4.409550   233A      4.411355  
     234A      4.420557   235A      4.492010   236A      4.544852  
     237A      4.577929   238A      4.640526   239A      4.648591  
     240A      4.683423   241A      4.725770   242A      4.916628  
     243A      4.935379   244A      5.009347   245A      5.066757  
     246A      5.113839   247A      5.135797   248A      5.182993  
     249A      5.289281   250A      5.344895   251A      5.437515  
     252A      5.524517   253A      5.619501   254A      5.654930  
     255A      5.696496   256A      5.724498   257A      5.807283  
     258A      5.958822   259A      6.108891   260A      6.184385  
     261A      6.465127   262A      6.556027   263A      6.784275  
     264A      6.886558   265A      7.195631   266A      7.225344  
     267A      7.403409   268A      7.409001   269A      7.439123  
     270A      7.527771   271A      7.530683   272A      7.554647  
     273A      7.580698   274A      7.664625   275A      7.672445  
     276A      7.710850   277A      7.721738   278A      7.725864  
     279A      7.746808   280A      7.753520   281A      7.779271  
     282A      7.809311   283A      7.822110   284A      7.841146  
     285A      7.849572   286A      7.856657   287A      7.872717  
     288A      7.878532   289A      7.895622   290A      7.911790  
     291A      7.924382   292A      7.963043   293A      7.994743  
     294A      8.005491   295A      8.047484   296A      8.074083  
     297A      8.115771   298A      8.216203   299A      8.242449  
     300A      8.395567   301A      8.486295   302A      8.560387  
     303A      9.122976   304A      9.171604   305A      9.565949  
     306A      9.596596   307A      9.727040   308A      9.766679  
     309A      9.773462   310A      9.863969   311A      9.883818  
     312A      9.921248   313A      9.952316   314A      9.962461  
     315A     10.038420   316A     10.093176   317A     10.141863  
     318A     10.221873   319A     10.304506   320A     10.385826  
     321A     10.435613   322A     10.556054   323A     10.607469  
     324A     10.683345   325A     10.903438   326A     11.085140  
     327A     11.456876   328A     11.578799   329A     11.644718  
     330A     11.795306   331A     11.814256   332A     11.914634  
     333A     12.196013   334A     12.327719   335A     12.603176  
     336A     12.714583   337A     12.841149   338A     13.172265  
     339A     13.761338   340A     17.380608   341A     18.048910  
     342A     22.701962   343A     23.165853   344A     23.234887  
     345A     58.960931   346A     61.746249   347A     62.363057  
     348A     64.344152   349A    123.870604  

    Final Occupation by Irrep:
              A 
    DOCC [     5 ]

  @DF-RHF Final Energy:   -76.05271930496042

   => Energetics <=

    Nuclear Repulsion Energy =              8.9707074921725383
    One-Electron Energy =                -122.6067439158866534
    Two-Electron Energy =                  37.5833171187536905
    Total Energy =                        -76.0527193049604193

Computation Completed


Properties will be evaluated at   0.000000,   0.000000,   0.000000 [a0]

Properties computed using the SCF density matrix

  Nuclear Dipole Moment: [e a0]
     X:     8.6250      Y:    -9.0339      Z:    40.6461

  Electronic Dipole Moment: [e a0]
     X:    -8.8470      Y:     9.1498      Z:   -41.4783

  Dipole Moment: [e a0]
     X:    -0.2220      Y:     0.1159      Z:    -0.8321     Total:     0.8690

  Dipole Moment: [D]
     X:    -0.5642      Y:     0.2947      Z:    -2.1151     Total:     2.2088


*** tstop() called on node144.bme.utexas.edu at Sat Apr 11 16:13:48 2020
Module time:
	user time   =      67.27 seconds =       1.12 minutes
	system time =       2.64 seconds =       0.04 minutes
	total time  =         15 seconds =       0.25 minutes
Total time:
	user time   =     106.02 seconds =       1.77 minutes
	system time =       5.94 seconds =       0.10 minutes
	total time  =         27 seconds =       0.45 minutes

*** tstart() called on node144.bme.utexas.edu
*** at Sat Apr 11 16:13:48 2020


  //>>>>>>>>>>>>>>>>>>>>>>>>>>>>>>>>>>>//
  //               DFMP2               //
  //<<<<<<<<<<<<<<<<<<<<<<<<<<<<<<<<<<<//

   => Loading Basis Set <=

    Name: (AUG-CC-PVTZ AUX)
    Role: RIFIT
    Keyword: DF_BASIS_MP2
    atoms 1      entry P          line   590 file /home/liuchw/anaconda3/envs/psi4env/share/psi4/basis/aug-cc-pvtz-ri.gbs 
    atoms 2-5, 7 entry O          line   264 file /home/liuchw/anaconda3/envs/psi4env/share/psi4/basis/aug-cc-pvtz-ri.gbs 
    atoms 6, 8-9 entry H          line    30 file /home/liuchw/anaconda3/envs/psi4env/share/psi4/basis/aug-cc-pvtz-ri.gbs 

	 --------------------------------------------------------
	                          DF-MP2                         
	      2nd-Order Density-Fitted Moller-Plesset Theory     
	              RMP2 Wavefunction,   6 Threads             
	                                                         
	        Rob Parrish, Justin Turney, Andy Simmonett,      
	           Ed Hohenstein, and C. David Sherrill          
	 --------------------------------------------------------

   => Auxiliary Basis Set <=

  Basis Set: (AUG-CC-PVTZ AUX)
    Blend: AUG-CC-PVTZ-RI
    Number of shells: 219
    Number of basis function: 815
    Number of Cartesian functions: 1036
    Spherical Harmonics?: true
    Max angular momentum: 4

	 --------------------------------------------------------
	                 NBF =   349, NAUX =   815
	 --------------------------------------------------------
	   CLASS    FOCC     OCC    AOCC    AVIR     VIR    FVIR
	   PAIRS       0       5       5     344     344       0
	 --------------------------------------------------------

	-----------------------------------------------------------
	 ==================> DF-MP2 Energies <==================== 
	-----------------------------------------------------------
	 Reference Energy          =     -76.0527193049604193 [Eh]
	 Singles Energy            =      -0.0000000000000000 [Eh]
	 Same-Spin Energy          =      -0.0694314250498679 [Eh]
	 Opposite-Spin Energy      =      -0.2194343993180541 [Eh]
	 Correlation Energy        =      -0.2888658243679221 [Eh]
	 Total Energy              =     -76.3415851293283367 [Eh]
	-----------------------------------------------------------
	 ================> DF-SCS-MP2 Energies <================== 
	-----------------------------------------------------------
	 SCS Same-Spin Scale       =       0.3333333333333333 [-]
	 SCS Opposite-Spin Scale   =       1.2000000000000000 [-]
	 SCS Same-Spin Energy      =      -0.0231438083499560 [Eh]
	 SCS Opposite-Spin Energy  =      -0.2633212791816650 [Eh]
	 SCS Correlation Energy    =      -0.2864650875316210 [Eh]
	 SCS Total Energy          =     -76.3391843924920437 [Eh]
	-----------------------------------------------------------


*** tstop() called on node144.bme.utexas.edu at Sat Apr 11 16:13:55 2020
Module time:
	user time   =      26.63 seconds =       0.44 minutes
	system time =       1.00 seconds =       0.02 minutes
	total time  =          7 seconds =       0.12 minutes
Total time:
	user time   =     132.66 seconds =       2.21 minutes
	system time =       6.94 seconds =       0.12 minutes
	total time  =         34 seconds =       0.57 minutes

  //>>>>>>>>>>>>>>>>>>>>>>>>>>>>>>>>>>>>//
  // CBS Computation: MP2 / AUG-CC-PVQZ //
  //<<<<<<<<<<<<<<<<<<<<<<<<<<<<<<<<<<<<//


Scratch directory: /scratch//

*** tstart() called on node144.bme.utexas.edu
*** at Sat Apr 11 16:13:55 2020

   => Loading Basis Set <=

    Name: AUG-CC-PVQZ
    Role: ORBITAL
    Keyword: BASIS
    atoms 1      entry P          line  1030 file /home/liuchw/anaconda3/envs/psi4env/share/psi4/basis/aug-cc-pvqz.gbs 
    atoms 2-5, 7 entry O          line   423 file /home/liuchw/anaconda3/envs/psi4env/share/psi4/basis/aug-cc-pvqz.gbs 
    atoms 6, 8-9 entry H          line    40 file /home/liuchw/anaconda3/envs/psi4env/share/psi4/basis/aug-cc-pvqz.gbs 


         ---------------------------------------------------------
                                   SCF
               by Justin Turney, Rob Parrish, Andy Simmonett
                          and Daniel G. A. Smith
                              RHF Reference
                        6 Threads,  38146 MiB Core
         ---------------------------------------------------------

  ==> Geometry <==

    Molecular point group: c1
    Full point group: C1

    Geometry (in Angstrom), charge = 0, multiplicity = 1:

       Center              X                  Y                   Z               Mass       
    ------------   -----------------  -----------------  -----------------  -----------------
      Gh(P)          -0.081106471559    -0.047731031786    -0.411088099009    30.973761998420
      Gh(O)           1.372608528441     0.107282968214     0.105334900991    15.994914619570
      Gh(O)          -0.456044471559     1.623612968214    -0.703732099009    15.994914619570
      Gh(O)          -1.059369471559    -0.488295031786     0.689101900991    15.994914619570
      Gh(O)          -0.253815471559    -0.727847031786    -1.760872099009    15.994914619570
      Gh(H)           0.354204528441     1.984806968214    -0.332536099009     1.007825032230
         O            0.491562528441    -0.496378031786     2.282430900991    15.994914619570
         H            0.987148528441    -0.252750031786     1.467803900991     1.007825032230
         H           -0.355478471559    -0.556764031786     1.781748900991     1.007825032230

  Running in c1 symmetry.

  Rotational constants: A =      0.15156  B =      0.07654  C =      0.07372 [cm^-1]
  Rotational constants: A =   4543.64287  B =   2294.58830  C =   2210.08293 [MHz]
  Nuclear repulsion =    8.970707492172538

  Charge       = 0
  Multiplicity = 1
  Electrons    = 10
  Nalpha       = 5
  Nbeta        = 5

  ==> Algorithm <==

  SCF Algorithm Type is DF.
  DIIS enabled.
  MOM disabled.
  Fractional occupation disabled.
  Guess Type is SAD.
  Energy threshold   = 1.00e-07
  Density threshold  = 1.00e-08
  Integral threshold = 0.00e+00

  ==> Primary Basis <==

  Basis Set: AUG-CC-PVQZ
    Blend: AUG-CC-PVQZ
    Number of shells: 164
    Number of basis function: 622
    Number of Cartesian functions: 799
    Spherical Harmonics?: true
    Max angular momentum: 4

   => Loading Basis Set <=

    Name: (AUG-CC-PVQZ AUX)
    Role: JKFIT
    Keyword: DF_BASIS_SCF
    atoms 1      entry P          line   716 file /home/liuchw/anaconda3/envs/psi4env/share/psi4/basis/aug-cc-pvqz-jkfit.gbs 
    atoms 2-5, 7 entry O          line   318 file /home/liuchw/anaconda3/envs/psi4env/share/psi4/basis/aug-cc-pvqz-jkfit.gbs 
    atoms 6, 8-9 entry H          line    70 file /home/liuchw/anaconda3/envs/psi4env/share/psi4/basis/aug-cc-pvqz-jkfit.gbs 

  ==> Pre-Iterations <==

   -------------------------------------------------------
    Irrep   Nso     Nmo     Nalpha   Nbeta   Ndocc  Nsocc
   -------------------------------------------------------
     A        622     622       0       0       0       0
   -------------------------------------------------------
    Total     622     622       5       5       5       0
   -------------------------------------------------------

  ==> Integral Setup <==

  DFHelper Memory: AOs need 3.223 GiB; user supplied 27.940 GiB. Using in-core AOs.

  ==> MemDFJK: Density-Fitted J/K Matrices <==

    J tasked:                   Yes
    K tasked:                   Yes
    wK tasked:                   No
    OpenMP threads:               6
    Memory [MiB]:             28610
    Algorithm:                 Core
    Schwarz Cutoff:           1E-12
    Mask sparsity (%):       4.1232
    Fitting Condition:        1E-10

   => Auxiliary Basis Set <=

  Basis Set: (AUG-CC-PVQZ AUX)
    Blend: AUG-CC-PVQZ-JKFIT
    Number of shells: 270
    Number of basis function: 1122
    Number of Cartesian functions: 1540
    Spherical Harmonics?: true
    Max angular momentum: 5

  Minimum eigenvalue in the overlap matrix is 1.9718775775E-05.
  Using Symmetric Orthogonalization.

  SCF Guess: Superposition of Atomic Densities via on-the-fly atomic UHF.

  ==> Iterations <==

                           Total Energy        Delta E     RMS |[F,P]|

   @DF-RHF iter SAD:   -75.46572025478302   -7.54657e+01   0.00000e+00 
   @DF-RHF iter   1:   -75.97034808860492   -5.04628e-01   7.53952e-04 DIIS
   @DF-RHF iter   2:   -76.02231034449341   -5.19623e-02   5.38292e-04 DIIS
   @DF-RHF iter   3:   -76.05743368949018   -3.51233e-02   3.62484e-05 DIIS
   @DF-RHF iter   4:   -76.05784379956957   -4.10110e-04   9.53833e-06 DIIS
   @DF-RHF iter   5:   -76.05787655840895   -3.27588e-05   2.33181e-06 DIIS
   @DF-RHF iter   6:   -76.05787956569689   -3.00729e-06   5.06626e-07 DIIS
   @DF-RHF iter   7:   -76.05787971595097   -1.50254e-07   7.91310e-08 DIIS
   @DF-RHF iter   8:   -76.05787971899016   -3.03919e-09   1.20506e-08 DIIS
   @DF-RHF iter   9:   -76.05787971903987   -4.97096e-11   2.05885e-09 DIIS
  Energy and wave function converged.


  ==> Post-Iterations <==

    Orbital Energies [Eh]
    ---------------------

    Doubly Occupied:                                                      

       1A    -20.574853     2A     -1.348376     3A     -0.677036  
       4A     -0.605027     5A     -0.512031  

    Virtual:                                                              

       6A      0.014178     7A      0.037994     8A      0.042159  
       9A      0.047320    10A      0.063791    11A      0.066296  
      12A      0.068152    13A      0.101857    14A      0.108809  
      15A      0.111165    16A      0.121550    17A      0.137104  
      18A      0.142229    19A      0.151763    20A      0.157163  
      21A      0.161871    22A      0.164171    23A      0.169399  
      24A      0.178181    25A      0.181155    26A      0.183703  
      27A      0.185560    28A      0.194527    29A      0.223440  
      30A      0.225061    31A      0.228123    32A      0.233313  
      33A      0.241235    34A      0.255090    35A      0.268241  
      36A      0.277229    37A      0.286339    38A      0.299184  
      39A      0.306423    40A      0.313532    41A      0.321229  
      42A      0.330647    43A      0.339725    44A      0.345917  
      45A      0.354970    46A      0.375096    47A      0.384135  
      48A      0.393261    49A      0.400511    50A      0.413826  
      51A      0.435925    52A      0.437897    53A      0.455909  
      54A      0.465397    55A      0.476663    56A      0.490310  
      57A      0.506470    58A      0.518303    59A      0.520022  
      60A      0.527196    61A      0.533489    62A      0.543982  
      63A      0.557421    64A      0.563734    65A      0.569761  
      66A      0.579637    67A      0.597921    68A      0.605285  
      69A      0.610910    70A      0.615595    71A      0.618792  
      72A      0.635735    73A      0.644637    74A      0.648322  
      75A      0.655506    76A      0.661270    77A      0.667167  
      78A      0.673152    79A      0.677227    80A      0.691842  
      81A      0.710508    82A      0.720231    83A      0.722391  
      84A      0.731802    85A      0.740338    86A      0.755563  
      87A      0.759728    88A      0.767030    89A      0.783553  
      90A      0.786706    91A      0.796992    92A      0.814353  
      93A      0.829443    94A      0.833758    95A      0.855960  
      96A      0.868321    97A      0.874473    98A      0.891475  
      99A      0.895470   100A      0.904951   101A      0.915068  
     102A      0.924436   103A      0.939877   104A      0.947480  
     105A      0.961319   106A      0.974783   107A      0.984250  
     108A      0.991095   109A      1.004635   110A      1.018149  
     111A      1.030499   112A      1.037837   113A      1.043549  
     114A      1.063210   115A      1.082267   116A      1.088001  
     117A      1.103573   118A      1.114220   119A      1.128158  
     120A      1.135411   121A      1.144312   122A      1.166614  
     123A      1.181468   124A      1.201415   125A      1.208670  
     126A      1.226555   127A      1.239720   128A      1.248009  
     129A      1.261152   130A      1.275138   131A      1.293037  
     132A      1.303935   133A      1.333334   134A      1.335327  
     135A      1.382448   136A      1.410580   137A      1.426253  
     138A      1.430646   139A      1.462262   140A      1.463218  
     141A      1.502195   142A      1.508256   143A      1.511776  
     144A      1.514915   145A      1.549255   146A      1.558936  
     147A      1.567020   148A      1.582971   149A      1.593332  
     150A      1.605722   151A      1.616836   152A      1.625325  
     153A      1.640256   154A      1.648232   155A      1.663867  
     156A      1.669084   157A      1.676352   158A      1.698188  
     159A      1.699309   160A      1.718727   161A      1.722326  
     162A      1.737170   163A      1.744535   164A      1.761440  
     165A      1.766640   166A      1.780370   167A      1.792316  
     168A      1.800518   169A      1.812234   170A      1.818356  
     171A      1.831620   172A      1.833832   173A      1.857607  
     174A      1.866417   175A      1.872950   176A      1.883855  
     177A      1.889283   178A      1.900705   179A      1.920873  
     180A      1.926965   181A      1.938159   182A      1.956112  
     183A      1.958790   184A      1.971740   185A      1.980080  
     186A      1.985965   187A      2.012963   188A      2.018492  
     189A      2.026255   190A      2.044684   191A      2.068318  
     192A      2.071263   193A      2.087162   194A      2.093285  
     195A      2.094333   196A      2.126970   197A      2.139000  
     198A      2.145539   199A      2.158167   200A      2.160670  
     201A      2.164452   202A      2.189366   203A      2.211154  
     204A      2.217230   205A      2.230562   206A      2.235785  
     207A      2.248113   208A      2.279156   209A      2.285568  
     210A      2.291838   211A      2.315923   212A      2.340033  
     213A      2.348415   214A      2.359374   215A      2.371713  
     216A      2.394695   217A      2.409947   218A      2.441255  
     219A      2.455882   220A      2.479374   221A      2.499977  
     222A      2.501522   223A      2.505336   224A      2.534599  
     225A      2.550945   226A      2.568131   227A      2.585542  
     228A      2.603977   229A      2.620811   230A      2.656694  
     231A      2.670085   232A      2.683303   233A      2.713924  
     234A      2.732298   235A      2.735267   236A      2.750395  
     237A      2.771478   238A      2.788839   239A      2.815228  
     240A      2.833489   241A      2.846662   242A      2.863500  
     243A      2.878835   244A      2.918829   245A      2.945095  
     246A      2.972713   247A      2.995428   248A      3.015038  
     249A      3.039354   250A      3.058843   251A      3.062046  
     252A      3.074195   253A      3.119129   254A      3.135164  
     255A      3.140346   256A      3.168278   257A      3.204039  
     258A      3.236541   259A      3.249789   260A      3.265590  
     261A      3.276223   262A      3.293027   263A      3.308717  
     264A      3.358501   265A      3.366426   266A      3.398448  
     267A      3.403565   268A      3.427699   269A      3.479054  
     270A      3.498333   271A      3.519877   272A      3.539986  
     273A      3.561584   274A      3.630492   275A      3.637238  
     276A      3.653069   277A      3.688512   278A      3.719164  
     279A      3.756597   280A      3.763930   281A      3.801182  
     282A      3.828596   283A      3.853145   284A      3.869886  
     285A      3.890835   286A      3.902865   287A      3.928502  
     288A      3.946521   289A      3.956157   290A      3.973431  
     291A      3.999777   292A      4.022026   293A      4.047133  
     294A      4.064875   295A      4.147073   296A      4.153156  
     297A      4.170044   298A      4.193673   299A      4.214313  
     300A      4.233922   301A      4.260059   302A      4.272103  
     303A      4.301921   304A      4.316431   305A      4.343109  
     306A      4.356389   307A      4.363774   308A      4.368888  
     309A      4.392649   310A      4.402857   311A      4.414190  
     312A      4.436157   313A      4.445388   314A      4.457773  
     315A      4.482118   316A      4.490745   317A      4.505429  
     318A      4.519256   319A      4.552374   320A      4.554326  
     321A      4.571634   322A      4.599264   323A      4.605681  
     324A      4.626692   325A      4.644955   326A      4.650947  
     327A      4.657980   328A      4.681574   329A      4.696457  
     330A      4.704817   331A      4.726000   332A      4.734999  
     333A      4.748460   334A      4.756299   335A      4.779246  
     336A      4.788642   337A      4.790193   338A      4.797526  
     339A      4.816978   340A      4.875622   341A      4.880949  
     342A      4.903331   343A      4.919475   344A      4.927851  
     345A      4.950024   346A      4.953753   347A      4.989828  
     348A      5.005748   349A      5.016171   350A      5.038721  
     351A      5.072051   352A      5.101569   353A      5.104888  
     354A      5.124464   355A      5.137722   356A      5.163483  
     357A      5.175893   358A      5.187688   359A      5.207525  
     360A      5.212922   361A      5.227895   362A      5.243874  
     363A      5.267488   364A      5.289044   365A      5.310455  
     366A      5.339146   367A      5.379678   368A      5.394255  
     369A      5.419846   370A      5.471185   371A      5.499626  
     372A      5.514509   373A      5.518991   374A      5.563124  
     375A      5.605086   376A      5.647005   377A      5.650358  
     378A      5.733008   379A      5.736230   380A      5.800526  
     381A      5.815480   382A      5.841556   383A      5.862283  
     384A      5.905608   385A      5.937436   386A      5.941341  
     387A      5.986501   388A      6.013994   389A      6.061766  
     390A      6.091961   391A      6.113479   392A      6.153489  
     393A      6.176077   394A      6.211924   395A      6.267415  
     396A      6.281017   397A      6.300537   398A      6.345122  
     399A      6.354564   400A      6.386213   401A      6.394368  
     402A      6.427925   403A      6.438076   404A      6.466142  
     405A      6.496192   406A      6.520545   407A      6.565927  
     408A      6.603943   409A      6.674917   410A      6.726646  
     411A      6.739747   412A      6.775459   413A      6.819022  
     414A      6.840213   415A      6.871479   416A      6.897599  
     417A      6.914158   418A      6.919642   419A      6.963959  
     420A      6.964724   421A      6.987928   422A      7.026298  
     423A      7.044908   424A      7.076837   425A      7.110523  
     426A      7.115485   427A      7.175045   428A      7.238889  
     429A      7.253615   430A      7.275100   431A      7.359554  
     432A      7.378809   433A      7.417849   434A      7.433018  
     435A      7.463231   436A      7.588077   437A      7.633683  
     438A      7.679424   439A      7.724185   440A      7.784931  
     441A      7.915805   442A      7.995120   443A      8.035834  
     444A      8.132876   445A      8.171064   446A      8.222619  
     447A      8.238734   448A      8.307100   449A      8.328067  
     450A      8.352936   451A      8.469939   452A      8.528157  
     453A      8.577579   454A      8.681909   455A      8.774563  
     456A      8.846748   457A      8.917094   458A      8.944410  
     459A      8.983923   460A      9.010620   461A      9.085139  
     462A      9.268393   463A      9.274713   464A      9.382148  
     465A      9.531200   466A      9.568753   467A      9.599363  
     468A      9.611024   469A      9.760638   470A      9.850790  
     471A      9.963503   472A     10.030407   473A     10.055443  
     474A     10.175070   475A     10.264662   476A     10.376071  
     477A     10.578745   478A     10.708074   479A     10.905132  
     480A     10.944421   481A     11.040732   482A     11.090935  
     483A     11.235358   484A     11.317685   485A     11.408176  
     486A     11.413476   487A     11.475431   488A     11.581188  
     489A     11.597993   490A     11.608505   491A     11.673116  
     492A     11.789828   493A     11.796360   494A     11.824487  
     495A     11.856840   496A     11.876332   497A     11.882442  
     498A     11.896578   499A     11.907439   500A     11.914110  
     501A     11.925703   502A     11.955009   503A     11.967904  
     504A     11.987374   505A     12.003987   506A     12.006238  
     507A     12.043923   508A     12.051599   509A     12.055717  
     510A     12.108372   511A     12.132525   512A     12.139053  
     513A     12.155901   514A     12.179915   515A     12.199830  
     516A     12.217708   517A     12.249696   518A     12.299123  
     519A     12.313189   520A     12.332784   521A     12.357516  
     522A     12.392504   523A     12.409798   524A     12.443769  
     525A     12.509367   526A     12.548362   527A     12.586365  
     528A     12.762066   529A     12.827516   530A     12.971076  
     531A     13.099856   532A     13.134178   533A     13.165114  
     534A     13.241399   535A     13.273065   536A     13.391850  
     537A     13.460613   538A     13.903648   539A     14.053580  
     540A     14.065724   541A     14.098267   542A     14.225613  
     543A     14.240823   544A     14.258398   545A     14.283964  
     546A     14.296039   547A     14.321533   548A     14.341437  
     549A     14.362214   550A     14.394427   551A     14.424980  
     552A     14.438854   553A     14.456100   554A     14.480650  
     555A     14.499872   556A     14.567956   557A     14.594835  
     558A     14.608283   559A     14.658396   560A     14.733832  
     561A     14.795108   562A     14.880098   563A     14.901121  
     564A     14.942893   565A     14.965740   566A     14.992412  
     567A     15.090136   568A     15.153411   569A     15.389429  
     570A     15.532562   571A     15.594854   572A     15.696847  
     573A     15.895054   574A     16.209414   575A     17.059428  
     576A     17.454079   577A     17.550584   578A     17.562523  
     579A     17.606478   580A     17.635833   581A     17.705455  
     582A     17.716098   583A     17.745663   584A     17.764447  
     585A     17.832027   586A     17.868683   587A     17.913550  
     588A     17.944610   589A     18.099719   590A     18.145947  
     591A     18.286959   592A     18.498346   593A     18.515864  
     594A     18.656647   595A     19.036453   596A     19.335236  
     597A     20.505253   598A     20.567567   599A     20.793384  
     600A     21.074087   601A     21.332303   602A     21.698596  
     603A     21.730765   604A     22.526084   605A     22.650973  
     606A     22.770168   607A     22.932061   608A     23.060847  
     609A     23.412775   610A     23.601927   611A     23.749486  
     612A     23.913695   613A     24.829296   614A     24.921339  
     615A     25.510351   616A     32.885933   617A     46.049005  
     618A    122.457946   619A    123.401423   620A    123.472843  
     621A    124.089928   622A    124.356868  

    Final Occupation by Irrep:
              A 
    DOCC [     5 ]

  @DF-RHF Final Energy:   -76.05787971903987

   => Energetics <=

    Nuclear Repulsion Energy =              8.9707074921725383
    One-Electron Energy =                -122.6225269891994429
    Two-Electron Energy =                  37.5939397779870319
    Total Energy =                        -76.0578797190398745

Computation Completed


Properties will be evaluated at   0.000000,   0.000000,   0.000000 [a0]

Properties computed using the SCF density matrix

  Nuclear Dipole Moment: [e a0]
     X:     8.6250      Y:    -9.0339      Z:    40.6461

  Electronic Dipole Moment: [e a0]
     X:    -8.8468      Y:     9.1498      Z:   -41.4776

  Dipole Moment: [e a0]
     X:    -0.2218      Y:     0.1159      Z:    -0.8314     Total:     0.8683

  Dipole Moment: [D]
     X:    -0.5637      Y:     0.2946      Z:    -2.1133     Total:     2.2069


*** tstop() called on node144.bme.utexas.edu at Sat Apr 11 16:14:35 2020
Module time:
	user time   =     190.76 seconds =       3.18 minutes
	system time =       4.76 seconds =       0.08 minutes
	total time  =         40 seconds =       0.67 minutes
Total time:
	user time   =     323.54 seconds =       5.39 minutes
	system time =      11.72 seconds =       0.20 minutes
	total time  =         74 seconds =       1.23 minutes

*** tstart() called on node144.bme.utexas.edu
*** at Sat Apr 11 16:14:35 2020


  //>>>>>>>>>>>>>>>>>>>>>>>>>>>>>>>>>>>//
  //               DFMP2               //
  //<<<<<<<<<<<<<<<<<<<<<<<<<<<<<<<<<<<//

   => Loading Basis Set <=

    Name: (AUG-CC-PVQZ AUX)
    Role: RIFIT
    Keyword: DF_BASIS_MP2
    atoms 1      entry P          line   734 file /home/liuchw/anaconda3/envs/psi4env/share/psi4/basis/aug-cc-pvqz-ri.gbs 
    atoms 2-5, 7 entry O          line   332 file /home/liuchw/anaconda3/envs/psi4env/share/psi4/basis/aug-cc-pvqz-ri.gbs 
    atoms 6, 8-9 entry H          line    30 file /home/liuchw/anaconda3/envs/psi4env/share/psi4/basis/aug-cc-pvqz-ri.gbs 

	 --------------------------------------------------------
	                          DF-MP2                         
	      2nd-Order Density-Fitted Moller-Plesset Theory     
	              RMP2 Wavefunction,   6 Threads             
	                                                         
	        Rob Parrish, Justin Turney, Andy Simmonett,      
	           Ed Hohenstein, and C. David Sherrill          
	 --------------------------------------------------------

   => Auxiliary Basis Set <=

  Basis Set: (AUG-CC-PVQZ AUX)
    Blend: AUG-CC-PVQZ-RI
    Number of shells: 284
    Number of basis function: 1274
    Number of Cartesian functions: 1768
    Spherical Harmonics?: true
    Max angular momentum: 5

	 --------------------------------------------------------
	                 NBF =   622, NAUX =  1274
	 --------------------------------------------------------
	   CLASS    FOCC     OCC    AOCC    AVIR     VIR    FVIR
	   PAIRS       0       5       5     617     617       0
	 --------------------------------------------------------

	-----------------------------------------------------------
	 ==================> DF-MP2 Energies <==================== 
	-----------------------------------------------------------
	 Reference Energy          =     -76.0578797190398745 [Eh]
	 Singles Energy            =      -0.0000000000000000 [Eh]
	 Same-Spin Energy          =      -0.0736324601148790 [Eh]
	 Opposite-Spin Energy      =      -0.2471419647346385 [Eh]
	 Correlation Energy        =      -0.3207744248495175 [Eh]
	 Total Energy              =     -76.3786541438893920 [Eh]
	-----------------------------------------------------------
	 ================> DF-SCS-MP2 Energies <================== 
	-----------------------------------------------------------
	 SCS Same-Spin Scale       =       0.3333333333333333 [-]
	 SCS Opposite-Spin Scale   =       1.2000000000000000 [-]
	 SCS Same-Spin Energy      =      -0.0245441533716263 [Eh]
	 SCS Opposite-Spin Energy  =      -0.2965703576815661 [Eh]
	 SCS Correlation Energy    =      -0.3211145110531925 [Eh]
	 SCS Total Energy          =     -76.3789942300930704 [Eh]
	-----------------------------------------------------------


*** tstop() called on node144.bme.utexas.edu at Sat Apr 11 16:14:53 2020
Module time:
	user time   =      78.97 seconds =       1.32 minutes
	system time =       2.11 seconds =       0.04 minutes
	total time  =         18 seconds =       0.30 minutes
Total time:
	user time   =     402.53 seconds =       6.71 minutes
	system time =      13.83 seconds =       0.23 minutes
	total time  =         92 seconds =       1.53 minutes

  //>>>>>>>>>>>>>>>>>>>>>>>>>>>>>>>>>>>//
  //  CBS Results: mp2/aug-cc-pv[tq]z  //
  //<<<<<<<<<<<<<<<<<<<<<<<<<<<<<<<<<<<//


   ==> HF <==

   HI-zeta (4) Energy:               -76.057879719040


   ==> Helgaker 2-point correlated extrapolation for method: MP2 <==

   LO-zeta (3) Energy:               -76.341585129328
   HI-zeta (4) Energy:               -76.378654143889
   Alpha (exponent) Value:             3.000000000000
   Extrapolated Energy:              -76.405704505866

   @Extrapolated MP2/(T,Q):          -76.405704505866



   ==> Helgaker 2-point correlated extrapolation for method: HF <==

   LO-zeta (3) Energy:               -76.052719304960
   HI-zeta (4) Energy:               -76.057879719040
   Alpha (exponent) Value:             3.000000000000
   Extrapolated Energy:              -76.061645426611

   @Extrapolated HF/(T,Q):           -76.061645426611


   ==> Components <==

  ---------------------------------------------------------------------------------------------------------
                          Method / Basis                      Rqd      Energy [Eh]   Variable
  ---------------------------------------------------------------------------------------------------------
                              hf / aug-cc-pvtz                  *     -76.05271930   HF TOTAL ENERGY
                             mp2 / aug-cc-pvtz                  *     -76.34158513   MP2 TOTAL ENERGY
                              hf / aug-cc-pvqz                  *     -76.05787972   HF TOTAL ENERGY
                             mp2 / aug-cc-pvqz                  *     -76.37865414   MP2 TOTAL ENERGY
  ---------------------------------------------------------------------------------------------------------

   ==> Stages <==

  ---------------------------------------------------------------------------------------------------------
      Stage               Method / Basis                       Wt      Energy [Eh]   Scheme
  ---------------------------------------------------------------------------------------------------------
        scf                   hf / aug-cc-pvqz                  1     -76.05787972   xtpl_highest_1
       corl                  mp2 / aug-cc-pv[tq]z               1     -76.40570451   corl_xtpl_helgaker_2
       corl                   hf / aug-cc-pv[tq]z              -1     -76.06164543   corl_xtpl_helgaker_2
  ---------------------------------------------------------------------------------------------------------

   ==> CBS <==

  ---------------------------------------------------------------------------------------------------------
      Stage               Method / Basis                               Energy [Eh]   Scheme
  ---------------------------------------------------------------------------------------------------------
        scf                   hf / aug-cc-pvqz                        -76.05787972   xtpl_highest_1
[...]
     151A      1.488890   152A      1.492488   153A      1.504072  
     154A      1.508858   155A      1.546131   156A      1.594600  
     157A      1.602274   158A      1.613564   159A      1.657311  
     160A      1.667187   161A      1.682989   162A      1.700585  
     163A      1.705059   164A      1.708993   165A      1.737773  
     166A      1.744255   167A      1.748254   168A      1.767623  
     169A      1.777019   170A      1.789163   171A      1.794673  
     172A      1.805445   173A      1.810889   174A      1.819475  
     175A      1.829574   176A      1.837287   177A      1.852089  
     178A      1.867277   179A      1.868994   180A      1.878595  
     181A      1.881554   182A      1.892675   183A      1.899755  
     184A      1.907545   185A      1.913844   186A      1.918784  
     187A      1.928771   188A      1.939599   189A      1.943580  
     190A      1.951423   191A      1.956186   192A      1.964938  
     193A      1.969916   194A      1.982489   195A      1.995985  
     196A      2.009481   197A      2.014980   198A      2.029258  
     199A      2.045949   200A      2.051271   201A      2.063077  
     202A      2.072678   203A      2.074549   204A      2.082161  
     205A      2.094262   206A      2.111610   207A      2.129952  
     208A      2.135266   209A      2.145849   210A      2.154637  
     211A      2.162674   212A      2.173483   213A      2.189938  
     214A      2.201659   215A      2.209735   216A      2.214561  
     217A      2.234408   218A      2.245200   219A      2.249550  
     220A      2.264112   221A      2.274854   222A      2.279335  
     223A      2.286176   224A      2.298207   225A      2.310779  
     226A      2.323032   227A      2.327596   228A      2.349235  
     229A      2.366474   230A      2.370461   231A      2.381358  
     232A      2.388495   233A      2.410331   234A      2.419680  
     235A      2.437824   236A      2.446209   237A      2.462725  
     238A      2.470332   239A      2.490326   240A      2.498214  
     241A      2.514374   242A      2.531066   243A      2.540911  
     244A      2.543541   245A      2.557201   246A      2.587303  
     247A      2.599852   248A      2.618722   249A      2.628789  
     250A      2.638762   251A      2.658837   252A      2.666037  
     253A      2.716058   254A      2.729024   255A      2.734505  
     256A      2.755581   257A      2.776543   258A      2.790151  
     259A      2.796301   260A      2.813767   261A      2.834104  
     262A      2.836900   263A      2.854475   264A      2.873174  
     265A      2.881988   266A      2.892332   267A      2.896483  
     268A      2.921531   269A      2.995903   270A      3.010082  
     271A      3.018896   272A      3.052912   273A      3.095959  
     274A      3.124854   275A      3.149532   276A      3.171230  
     277A      3.175611   278A      3.183106   279A      3.230504  
     280A      3.303958   281A      3.332622   282A      3.364824  
     283A      3.383720   284A      3.430613   285A      3.449002  
     286A      3.478578   287A      3.501545   288A      3.503363  
     289A      3.534276   290A      3.589163   291A      3.627657  
     292A      3.633435   293A      3.659952   294A      3.664569  
     295A      3.675693   296A      3.683003   297A      3.697249  
     298A      3.700787   299A      3.720894   300A      3.743195  
     301A      3.786144   302A      3.813192   303A      3.843634  
     304A      3.845636   305A      3.864054   306A      3.893589  
     307A      3.906470   308A      3.924301   309A      3.933119  
     310A      3.952895   311A      3.963101   312A      3.975035  
     313A      4.017030   314A      4.044043   315A      4.108073  
     316A      4.131581   317A      4.158607   318A      4.163235  
     319A      4.177019   320A      4.190411   321A      4.213066  
     322A      4.222190   323A      4.223575   324A      4.232794  
     325A      4.256760   326A      4.263392   327A      4.276926  
     328A      4.286249   329A      4.308036   330A      4.316627  
     331A      4.336406   332A      4.353525   333A      4.395191  
     334A      4.415076   335A      4.422586   336A      4.434596  
     337A      4.437238   338A      4.460216   339A      4.476204  
     340A      4.499798   341A      4.503154   342A      4.524527  
     343A      4.540922   344A      4.554401   345A      4.560698  
     346A      4.578387   347A      4.593082   348A      4.594945  
     349A      4.620996   350A      4.625658   351A      4.653838  
     352A      4.677615   353A      4.682567   354A      4.685458  
     355A      4.700092   356A      4.708842   357A      4.725711  
     358A      4.743514   359A      4.775167   360A      4.790023  
     361A      4.812062   362A      4.813550   363A      4.820061  
     364A      4.835136   365A      4.839761   366A      4.853454  
     367A      4.864294   368A      4.871008   369A      4.876356  
     370A      4.903294   371A      4.923353   372A      4.936690  
     373A      4.955397   374A      4.959454   375A      4.971795  
     376A      4.972732   377A      4.985327   378A      4.990269  
     379A      5.007630   380A      5.037169   381A      5.045351  
     382A      5.061093   383A      5.079340   384A      5.096508  
     385A      5.117294   386A      5.125877   387A      5.147415  
     388A      5.163117   389A      5.181139   390A      5.196226  
     391A      5.206064   392A      5.225709   393A      5.238367  
     394A      5.248515   395A      5.278244   396A      5.298539  
     397A      5.342151   398A      5.379710   399A      5.401865  
     400A      5.435014   401A      5.453188   402A      5.470100  
     403A      5.492340   404A      5.497464   405A      5.528372  
     406A      5.551506   407A      5.580115   408A      5.599339  
     409A      5.605354   410A      5.620177   411A      5.655580  
     412A      5.662770   413A      5.673740   414A      5.682808  
     415A      5.723310   416A      5.763537   417A      5.779143  
     418A      5.802644   419A      5.854818   420A      5.865909  
     421A      5.888498   422A      5.895584   423A      5.998114  
     424A      6.011537   425A      6.046343   426A      6.078061  
     427A      6.111927   428A      6.164981   429A      6.227931  
     430A      6.236314   431A      6.247499   432A      6.288628  
     433A      6.309411   434A      6.363297   435A      6.365551  
     436A      6.387336   437A      6.404939   438A      6.426377  
     439A      6.463700   440A      6.481622   441A      6.510896  
     442A      6.698659   443A      6.792127   444A      6.823906  
     445A      6.865787   446A      7.006250   447A      7.191964  
     448A      7.250300   449A      7.299506   450A      7.348318  
     451A      7.372273   452A      7.830412   453A      7.879331  
     454A      7.996222   455A      8.052557   456A      8.053852  
     457A      8.060249   458A      8.130564   459A      8.144886  
     460A      8.252037   461A      8.255055   462A      8.309529  
     463A      8.340509   464A      8.353707   465A      8.512698  
     466A      8.553166   467A      8.795449   468A      8.871109  
     469A      8.896438   470A      8.951134   471A      9.033061  
     472A      9.042954   473A      9.097164   474A      9.202257  
     475A      9.257114   476A      9.269848   477A      9.277171  
     478A      9.437271   479A      9.499785   480A      9.572023  
     481A      9.721672   482A      9.826925   483A      9.985317  
     484A     10.064021   485A     10.097853   486A     10.310666  
     487A     10.328349   488A     10.338477   489A     10.437599  
     490A     10.485172   491A     10.502061   492A     10.615834  
     493A     10.714201   494A     11.151391   495A     11.154880  
     496A     11.165578   497A     11.175767   498A     11.199468  
     499A     11.212422   500A     11.235946   501A     11.245749  
     502A     11.272165   503A     11.274317   504A     11.306754  
     505A     11.318721   506A     11.321799   507A     11.331940  
     508A     11.340145   509A     11.359024   510A     11.364139  
     511A     11.371408   512A     11.400595   513A     11.418425  
     514A     11.419501   515A     11.427109   516A     11.440602  
     517A     11.453157   518A     11.465935   519A     11.477239  
     520A     11.496343   521A     11.510140   522A     11.527573  
     523A     11.538112   524A     11.558933   525A     11.568910  
     526A     11.582365   527A     11.595871   528A     11.603199  
     529A     11.623470   530A     11.631111   531A     11.639737  
     532A     11.661902   533A     11.668009   534A     11.740081  
     535A     11.784697   536A     11.819370   537A     11.837014  
     538A     11.927065   539A     11.966515   540A     11.986497  
     541A     12.005020   542A     12.018185   543A     12.044541  
     544A     12.128941   545A     12.182516   546A     12.209184  
     547A     12.275027   548A     12.323675   549A     12.359786  
     550A     12.377068   551A     12.402217   552A     12.447323  
     553A     12.463056   554A     12.471099   555A     12.474267  
     556A     12.483000   557A     12.505396   558A     12.511422  
     559A     12.521852   560A     12.543433   561A     12.576516  
     562A     12.630266   563A     12.636594   564A     12.664936  
     565A     12.676500   566A     12.690838   567A     12.717541  
     568A     12.734236   569A     12.753339   570A     12.770604  
     571A     12.878081   572A     12.894852   573A     12.949009  
     574A     13.065991   575A     13.075474   576A     13.081668  
     577A     13.106962   578A     13.157863   579A     13.173498  
     580A     13.175586   581A     13.213846   582A     13.235964  
     583A     13.275648   584A     13.283662   585A     13.475763  
     586A     13.527824   587A     13.558687   588A     13.570924  
     589A     13.642592   590A     13.646106   591A     13.702255  
     592A     13.733182   593A     13.784035   594A     13.799923  
     595A     13.833711   596A     13.868761   597A     13.903392  
     598A     13.932974   599A     13.962740   600A     13.988962  
     601A     14.066990   602A     14.079526   603A     14.121145  
     604A     14.297968   605A     14.452366   606A     14.516136  
     607A     14.635980   608A     14.754640   609A     15.021276  
     610A     15.078641   611A     15.114660   612A     15.181263  
     613A     15.292218   614A     16.721711   615A     17.433707  
     616A     17.530832   617A     21.431529   618A     43.743409  
     619A     43.852458   620A     44.388489   621A     44.990965  
     622A     45.526185  

    Final Occupation by Irrep:
              A 
    DOCC [    30 ]

  @DF-RHF Final Energy:  -717.03608540402331

   => Energetics <=

    Nuclear Repulsion Energy =            313.5340724773266174
    One-Electron Energy =               -1640.1309962446471218
    Two-Electron Energy =                 609.5608383632971936
    Total Energy =                       -717.0360854040233107

Computation Completed


Properties will be evaluated at   0.000000,   0.000000,   0.000000 [a0]

Properties computed using the SCF density matrix

  Nuclear Dipole Moment: [e a0]
     X:     2.9211      Y:     0.9589      Z:     6.0989

  Electronic Dipole Moment: [e a0]
     X:    -2.0569      Y:    -0.1726      Z:    -4.6431

  Dipole Moment: [e a0]
     X:     0.8641      Y:     0.7863      Z:     1.4558     Total:     1.8667

  Dipole Moment: [D]
     X:     2.1964      Y:     1.9985      Z:     3.7003     Total:     4.7446


*** tstop() called on node47.bme.utexas.edu at Thu Apr 23 18:33:33 2020
Module time:
	user time   =     114.89 seconds =       1.91 minutes
	system time =       2.56 seconds =       0.04 minutes
	total time  =         17 seconds =       0.28 minutes
Total time:
	user time   =     715.24 seconds =      11.92 minutes
	system time =      18.32 seconds =       0.31 minutes
	total time  =        115 seconds =       1.92 minutes

*** tstart() called on node47.bme.utexas.edu
*** at Thu Apr 23 18:33:33 2020


  //>>>>>>>>>>>>>>>>>>>>>>>>>>>>>>>>>>>//
  //               DFMP2               //
  //<<<<<<<<<<<<<<<<<<<<<<<<<<<<<<<<<<<//

   => Loading Basis Set <=

    Name: (AUG-CC-PVQZ AUX)
    Role: RIFIT
    Keyword: DF_BASIS_MP2
    atoms 1      entry P          line   734 file /home/liuchw/anaconda3/envs/psi4env/share/psi4/basis/aug-cc-pvqz-ri.gbs 
    atoms 2-5, 7 entry O          line   332 file /home/liuchw/anaconda3/envs/psi4env/share/psi4/basis/aug-cc-pvqz-ri.gbs 
    atoms 6, 8-9 entry H          line    30 file /home/liuchw/anaconda3/envs/psi4env/share/psi4/basis/aug-cc-pvqz-ri.gbs 

	 --------------------------------------------------------
	                          DF-MP2                         
	      2nd-Order Density-Fitted Moller-Plesset Theory     
	              RMP2 Wavefunction,   8 Threads             
	                                                         
	        Rob Parrish, Justin Turney, Andy Simmonett,      
	           Ed Hohenstein, and C. David Sherrill          
	 --------------------------------------------------------

   => Auxiliary Basis Set <=

  Basis Set: (AUG-CC-PVQZ AUX)
    Blend: AUG-CC-PVQZ-RI
    Number of shells: 284
    Number of basis function: 1274
    Number of Cartesian functions: 1768
    Spherical Harmonics?: true
    Max angular momentum: 5

	 --------------------------------------------------------
	                 NBF =   622, NAUX =  1274
	 --------------------------------------------------------
	   CLASS    FOCC     OCC    AOCC    AVIR     VIR    FVIR
	   PAIRS       0      30      30     592     592       0
	 --------------------------------------------------------

	-----------------------------------------------------------
	 ==================> DF-MP2 Energies <==================== 
	-----------------------------------------------------------
	 Reference Energy          =    -717.0360854040233107 [Eh]
	 Singles Energy            =      -0.0000000000000000 [Eh]
	 Same-Spin Energy          =      -0.4347420055161894 [Eh]
	 Opposite-Spin Energy      =      -1.3097910070190157 [Eh]
	 Correlation Energy        =      -1.7445330125352050 [Eh]
	 Total Energy              =    -718.7806184165584682 [Eh]
	-----------------------------------------------------------
	 ================> DF-SCS-MP2 Energies <================== 
	-----------------------------------------------------------
	 SCS Same-Spin Scale       =       0.3333333333333333 [-]
	 SCS Opposite-Spin Scale   =       1.2000000000000000 [-]
	 SCS Same-Spin Energy      =      -0.1449140018387298 [Eh]
	 SCS Opposite-Spin Energy  =      -1.5717492084228188 [Eh]
	 SCS Correlation Energy    =      -1.7166632102615487 [Eh]
	 SCS Total Energy          =    -718.7527486142848829 [Eh]
	-----------------------------------------------------------


*** tstop() called on node47.bme.utexas.edu at Thu Apr 23 18:33:45 2020
Module time:
	user time   =      67.38 seconds =       1.12 minutes
	system time =       1.63 seconds =       0.03 minutes
	total time  =         12 seconds =       0.20 minutes
Total time:
	user time   =     782.62 seconds =      13.04 minutes
	system time =      19.95 seconds =       0.33 minutes
	total time  =        127 seconds =       2.12 minutes

  //>>>>>>>>>>>>>>>>>>>>>>>>>>>>>>>>>>>//
  //  CBS Results: mp2/aug-cc-pv[tq]z  //
  //<<<<<<<<<<<<<<<<<<<<<<<<<<<<<<<<<<<//


   ==> HF <==

   HI-zeta (4) Energy:               -717.036085404023


   ==> Helgaker 2-point correlated extrapolation for method: MP2 <==

   LO-zeta (3) Energy:               -718.562386615266
   HI-zeta (4) Energy:               -718.780618416558
   Alpha (exponent) Value:             3.000000000000
   Extrapolated Energy:              -718.939868649934

   @Extrapolated MP2/(T,Q):          -718.939868649934



   ==> Helgaker 2-point correlated extrapolation for method: HF <==

   LO-zeta (3) Energy:               -716.999178752339
   HI-zeta (4) Energy:               -717.036085404023
   Alpha (exponent) Value:             3.000000000000
   Extrapolated Energy:              -717.063017284982

   @Extrapolated HF/(T,Q):           -717.063017284982


   ==> Components <==

  ---------------------------------------------------------------------------------------------------------
                          Method / Basis                      Rqd      Energy [Eh]   Variable
  ---------------------------------------------------------------------------------------------------------
                              hf / aug-cc-pvtz                  *    -716.99917875   HF TOTAL ENERGY
                             mp2 / aug-cc-pvtz                  *    -718.56238662   MP2 TOTAL ENERGY
                              hf / aug-cc-pvqz                  *    -717.03608540   HF TOTAL ENERGY
                             mp2 / aug-cc-pvqz                  *    -718.78061842   MP2 TOTAL ENERGY
  ---------------------------------------------------------------------------------------------------------

   ==> Stages <==

  ---------------------------------------------------------------------------------------------------------
      Stage               Method / Basis                       Wt      Energy [Eh]   Scheme
  ---------------------------------------------------------------------------------------------------------
        scf                   hf / aug-cc-pvqz                  1    -717.03608540   xtpl_highest_1
       corl                  mp2 / aug-cc-pv[tq]z               1    -718.93986865   corl_xtpl_helgaker_2
       corl                   hf / aug-cc-pv[tq]z              -1    -717.06301728   corl_xtpl_helgaker_2
  ---------------------------------------------------------------------------------------------------------

   ==> CBS <==

  ---------------------------------------------------------------------------------------------------------
      Stage               Method / Basis                               Energy [Eh]   Scheme
  ---------------------------------------------------------------------------------------------------------
        scf                   hf / aug-cc-pvqz                       -717.03608540   xtpl_highest_1
       corl                  mp2 / aug-cc-pv[tq]z                      -1.87685136   corl_xtpl_helgaker_2
      total                  CBS                                     -718.91293677   
  ---------------------------------------------------------------------------------------------------------
   => Loading Basis Set <=

    Name: DEF2-SVP
    Role: ORBITAL
    Keyword: BASIS
    atoms 1      entry P          line   300 file /home/liuchw/anaconda3/envs/psi4env/share/psi4/basis/def2-svp.gbs 
    atoms 2-5, 7 entry O          line   130 file /home/liuchw/anaconda3/envs/psi4env/share/psi4/basis/def2-svp.gbs 
    atoms 6, 8-9 entry H          line    15 file /home/liuchw/anaconda3/envs/psi4env/share/psi4/basis/def2-svp.gbs 


       N-Body: Complex Energy (fragments = (1, 2), basis = (1, 2):  -718.91293676897533)

   ==> N-Body: Counterpoise Corrected (CP) energies <==

   n-Body     Total Energy [Eh]       I.E. [kcal/mol]      Delta [kcal/mol]
        1     -718.888212935402        0.000000000000        0.000000000000
        2     -718.912882003228      -15.480073770100      -15.480073770100

   => Loading Basis Set <=

    Name: DEF2-SVP
    Role: ORBITAL
    Keyword: BASIS
    atoms 1      entry P          line   300 file /home/liuchw/anaconda3/envs/psi4env/share/psi4/basis/def2-svp.gbs 
    atoms 2-5, 7 entry O          line   130 file /home/liuchw/anaconda3/envs/psi4env/share/psi4/basis/def2-svp.gbs 
    atoms 6, 8-9 entry H          line    15 file /home/liuchw/anaconda3/envs/psi4env/share/psi4/basis/def2-svp.gbs 


    Psi4 stopped on: Thursday, 23 April 2020 06:33PM
    Psi4 wall time for execution: 0:02:07.17

*** Psi4 exiting successfully. Buy a developer a beer!
