
    -----------------------------------------------------------------------
          Psi4: An Open-Source Ab Initio Electronic Structure Package
                               Psi4 1.4a2.dev224 

                         Git: Rev {master} e453b16 


    R. M. Parrish, L. A. Burns, D. G. A. Smith, A. C. Simmonett,
    A. E. DePrince III, E. G. Hohenstein, U. Bozkaya, A. Yu. Sokolov,
    R. Di Remigio, R. M. Richard, J. F. Gonthier, A. M. James,
    H. R. McAlexander, A. Kumar, M. Saitow, X. Wang, B. P. Pritchard,
    P. Verma, H. F. Schaefer III, K. Patkowski, R. A. King, E. F. Valeev,
    F. A. Evangelista, J. M. Turney, T. D. Crawford, and C. D. Sherrill,
    J. Chem. Theory Comput. 13(7) pp 3185--3197 (2017).
    (doi: 10.1021/acs.jctc.7b00174)


                         Additional Contributions by
    P. Kraus, H. Kruse, M. H. Lechner, M. C. Schieber, R. A. Shaw,
    A. Alenaizan, R. Galvelis, Z. L. Glick, S. Lehtola, and J. P. Misiewicz

    -----------------------------------------------------------------------


    Psi4 started on: Thursday, 23 April 2020 06:39PM

    Process ID: 30306
    Host:       node95.bme.utexas.edu
    PSIDATADIR: /home/liuchw/anaconda3/envs/psi4env/share/psi4
    Memory:     500.0 MiB
    Threads:    8
    
  ==> Input File <==

--------------------------------------------------------------------------
#Generated by lconvert.py for cbs job

memory 20 GB

molecule  {
0 1
  P      -0.330460    0.164630    0.264150
  O       1.207780    0.080240    0.653430
  O      -0.409690    1.498140   -0.614190
  O      -1.256720    0.048350    1.408030
  O      -0.596940   -0.936710   -0.851180
  H      -0.273360    2.285120   -0.076060
  H       0.051390   -0.902000   -1.562750
  H       1.287550   -0.331860    1.545250
--
0 1
  O       0.372500   -1.433200    3.995280
  H       0.532380   -1.118010    4.886270
  H      -0.530940   -1.147730    3.777880
units angstrom
no_reorient
symmetry c1
}

set {
scf_type DF
mp2_type DF
e_convergence 7
reference rhf
}

energy('mp2/aug-cc-pv[tq]z', bsse_type='cp')
--------------------------------------------------------------------------

  Memory set to  18.626 GiB by Python driver.

Scratch directory: /scratch/liuchw/


   ===> N-Body Interaction Abacus <===
        BSSE Treatment:                     cp
        Number of 1-body computations:     4
        Number of 2-body computations:     1

   ==> N-Body: Now computing 1-body complexes <==


       N-Body: Computing complex (1/4) with fragments (2,) in the basis of fragments (2,).


Scratch directory: /scratch/liuchw/

  //>>>>>>>>>>>>>>>>>>>>>>>>>>>>>>>>>>>//
  //   CBS Setup: mp2/aug-cc-pv[tq]z   //
  //<<<<<<<<<<<<<<<<<<<<<<<<<<<<<<<<<<<//

    Naive listing of computations required.
             hf / aug-cc-pvqz              for  HF TOTAL ENERGY
            mp2 / aug-cc-pvtz              for  MP2 TOTAL ENERGY
            mp2 / aug-cc-pvqz              for  MP2 TOTAL ENERGY
             hf / aug-cc-pvtz              for  HF TOTAL ENERGY
             hf / aug-cc-pvqz              for  HF TOTAL ENERGY

    Enlightened listing of computations required.
            mp2 / aug-cc-pvtz              for  MP2 TOTAL ENERGY
            mp2 / aug-cc-pvqz              for  MP2 TOTAL ENERGY

    Full listing of computations to be obtained (required and bonus).
             hf / aug-cc-pvtz              for  HF TOTAL ENERGY
            mp2 / aug-cc-pvtz              for  MP2 TOTAL ENERGY
             hf / aug-cc-pvqz              for  HF TOTAL ENERGY
            mp2 / aug-cc-pvqz              for  MP2 TOTAL ENERGY

  //>>>>>>>>>>>>>>>>>>>>>>>>>>>>>>>>>>>>//
  // CBS Computation: MP2 / AUG-CC-PVTZ //
  //<<<<<<<<<<<<<<<<<<<<<<<<<<<<<<<<<<<<//


Scratch directory: /scratch/liuchw/

*** tstart() called on node95.bme.utexas.edu
*** at Thu Apr 23 18:39:57 2020

   => Loading Basis Set <=

    Name: AUG-CC-PVTZ
    Role: ORBITAL
    Keyword: BASIS
    atoms 1   entry O          line   331 file /home/liuchw/anaconda3/envs/psi4env/share/psi4/basis/aug-cc-pvtz.gbs 
    atoms 2-3 entry H          line    40 file /home/liuchw/anaconda3/envs/psi4env/share/psi4/basis/aug-cc-pvtz.gbs 


         ---------------------------------------------------------
                                   SCF
               by Justin Turney, Rob Parrish, Andy Simmonett
                          and Daniel G. A. Smith
                              RHF Reference
                        8 Threads,  19073 MiB Core
         ---------------------------------------------------------

  ==> Geometry <==

    Molecular point group: c1
    Full point group: C1

    Geometry (in Angstrom), charge = 0, multiplicity = 1:

       Center              X                  Y                   Z               Mass       
    ------------   -----------------  -----------------  -----------------  -----------------
         O            0.545672739611    -1.364124657402     3.217110141712    15.994914619570
         H            0.705552739611    -1.048934657402     4.108100141712     1.007825032230
         H           -0.357767260389    -1.078654657402     2.999710141712     1.007825032230

  Running in c1 symmetry.

  Rotational constants: A =     15.46021  B =      0.07383  C =      0.07371 [cm^-1]
  Rotational constants: A = 463485.57915  B =   2213.25090  C =   2209.91249 [MHz]
  Nuclear repulsion =    9.116021152031735

  Charge       = 0
  Multiplicity = 1
  Electrons    = 10
  Nalpha       = 5
  Nbeta        = 5

  ==> Algorithm <==

  SCF Algorithm Type is DF.
  DIIS enabled.
  MOM disabled.
  Fractional occupation disabled.
  Guess Type is SAD.
  Energy threshold   = 1.00e-07
  Density threshold  = 1.00e-08
  Integral threshold = 0.00e+00

  ==> Primary Basis <==

  Basis Set: AUG-CC-PVTZ
    Blend: AUG-CC-PVTZ
    Number of shells: 32
    Number of basis function: 92
    Number of Cartesian functions: 105
    Spherical Harmonics?: true
    Max angular momentum: 3

   => Loading Basis Set <=

    Name: (AUG-CC-PVTZ AUX)
    Role: JKFIT
    Keyword: DF_BASIS_SCF
    atoms 1   entry O          line   286 file /home/liuchw/anaconda3/envs/psi4env/share/psi4/basis/aug-cc-pvtz-jkfit.gbs 
    atoms 2-3 entry H          line    70 file /home/liuchw/anaconda3/envs/psi4env/share/psi4/basis/aug-cc-pvtz-jkfit.gbs 

  ==> Pre-Iterations <==

   -------------------------------------------------------
    Irrep   Nso     Nmo     Nalpha   Nbeta   Ndocc  Nsocc
   -------------------------------------------------------
     A         92      92       0       0       0       0
   -------------------------------------------------------
    Total      92      92       5       5       5       0
   -------------------------------------------------------

  ==> Integral Setup <==

  DFHelper Memory: AOs need 0.015 GiB; user supplied 13.970 GiB. Using in-core AOs.

  ==> MemDFJK: Density-Fitted J/K Matrices <==

    J tasked:                   Yes
    K tasked:                   Yes
    wK tasked:                   No
    OpenMP threads:               8
    Memory [MiB]:             14305
    Algorithm:                 Core
    Schwarz Cutoff:           1E-12
    Mask sparsity (%):       0.0000
    Fitting Condition:        1E-10

   => Auxiliary Basis Set <=

  Basis Set: (AUG-CC-PVTZ AUX)
    Blend: AUG-CC-PVTZ-JKFIT
    Number of shells: 58
    Number of basis function: 196
    Number of Cartesian functions: 241
    Spherical Harmonics?: true
    Max angular momentum: 4

  Minimum eigenvalue in the overlap matrix is 3.8812479970E-04.
  Using Symmetric Orthogonalization.

  SCF Guess: Superposition of Atomic Densities via on-the-fly atomic UHF.

  ==> Iterations <==

                           Total Energy        Delta E     RMS |[F,P]|

   @DF-RHF iter SAD:   -75.46775061805208   -7.54678e+01   0.00000e+00 
   @DF-RHF iter   1:   -75.97538847041865   -5.07638e-01   5.08654e-03 DIIS
   @DF-RHF iter   2:   -76.02765962897585   -5.22712e-02   3.48653e-03 DIIS
   @DF-RHF iter   3:   -76.05946292371124   -3.18033e-02   2.37218e-04 DIIS
   @DF-RHF iter   4:   -76.05986137361958   -3.98450e-04   5.75368e-05 DIIS
   @DF-RHF iter   5:   -76.05988695539546   -2.55818e-05   1.31109e-05 DIIS
   @DF-RHF iter   6:   -76.05988906855885   -2.11316e-06   2.88999e-06 DIIS
   @DF-RHF iter   7:   -76.05988918147284   -1.12914e-07   5.25479e-07 DIIS
   @DF-RHF iter   8:   -76.05988918474998   -3.27714e-09   8.86941e-08 DIIS
   @DF-RHF iter   9:   -76.05988918482431   -7.43370e-11   2.22377e-08 DIIS
   @DF-RHF iter  10:   -76.05988918482863   -4.32010e-12   3.20609e-09 DIIS
  Energy and wave function converged.


  ==> Post-Iterations <==

    Orbital Energies [Eh]
    ---------------------

    Doubly Occupied:                                                      

       1A    -20.568194     2A     -1.348855     3A     -0.715228  
       4A     -0.581566     5A     -0.509422  

    Virtual:                                                              

       6A      0.029392     7A      0.047594     8A      0.136050  
       9A      0.158758    10A      0.174695    11A      0.182766  
      12A      0.227177    13A      0.244553    14A      0.264874  
      15A      0.301215    16A      0.310855    17A      0.365426  
      18A      0.436381    19A      0.465433    20A      0.599807  
      21A      0.656685    22A      0.708861    23A      0.721715  
      24A      0.731920    25A      0.827943    26A      0.844817  
      27A      0.892407    28A      0.911592    29A      0.920629  
      30A      0.921342    31A      0.929344    32A      0.963941  
      33A      1.019137    34A      1.042456    35A      1.082606  
      36A      1.108785    37A      1.173943    38A      1.178468  
      39A      1.262450    40A      1.509411    41A      1.545428  
      42A      1.583862    43A      1.803493    44A      1.806925  
      45A      1.982310    46A      2.112172    47A      2.261308  
      48A      2.315390    49A      2.325961    50A      2.416416  
      51A      2.417931    52A      2.441329    53A      2.478785  
      54A      2.683948    55A      2.700767    56A      2.763185  
      57A      2.827381    58A      2.881260    59A      3.640547  
      60A      3.744790    61A      4.009439    62A      4.079511  
      63A      4.176633    64A      4.235056    65A      4.300937  
      66A      4.376025    67A      4.386480    68A      4.398881  
      69A      4.505983    70A      4.712351    71A      4.820578  
      72A      5.123689    73A      5.141196    74A      5.257234  
      75A      5.308125    76A      5.503922    77A      5.672678  
      78A      6.158781    79A      6.524035    80A      6.712846  
      81A      6.878400    82A      7.133250    83A      7.250946  
      84A      7.305453    85A      7.313326    86A      7.325515  
      87A      7.362944    88A      7.526410    89A      7.894646  
      90A      7.918211    91A      8.772289    92A     15.595320  

    Final Occupation by Irrep:
              A 
    DOCC [     5 ]

  @DF-RHF Final Energy:   -76.05988918482863

   => Energetics <=

    Nuclear Repulsion Energy =              9.1160211520317347
    One-Electron Energy =                -122.9052901628494965
    Two-Electron Energy =                  37.7293798259891418
    Total Energy =                        -76.0598891848286200

Computation Completed


Properties will be evaluated at   0.000000,   0.000000,   0.000000 [a0]

Properties computed using the SCF density matrix

  Nuclear Dipole Moment: [e a0]
     X:     8.9066      Y:   -24.6431      Z:    62.0675

  Electronic Dipole Moment: [e a0]
     X:    -9.3988      Y:    25.0421      Z:   -61.6185

  Dipole Moment: [e a0]
     X:    -0.4922      Y:     0.3989      Z:     0.4490     Total:     0.7765

  Dipole Moment: [D]
     X:    -1.2511      Y:     1.0140      Z:     1.1412     Total:     1.9738


*** tstop() called on node95.bme.utexas.edu at Thu Apr 23 18:39:58 2020
Module time:
	user time   =       7.95 seconds =       0.13 minutes
	system time =       0.30 seconds =       0.01 minutes
	total time  =          1 seconds =       0.02 minutes
Total time:
	user time   =       7.95 seconds =       0.13 minutes
	system time =       0.30 seconds =       0.01 minutes
	total time  =          1 seconds =       0.02 minutes

*** tstart() called on node95.bme.utexas.edu
*** at Thu Apr 23 18:39:58 2020


  //>>>>>>>>>>>>>>>>>>>>>>>>>>>>>>>>>>>//
  //               DFMP2               //
  //<<<<<<<<<<<<<<<<<<<<<<<<<<<<<<<<<<<//

   => Loading Basis Set <=

    Name: (AUG-CC-PVTZ AUX)
    Role: RIFIT
    Keyword: DF_BASIS_MP2
    atoms 1   entry O          line   264 file /home/liuchw/anaconda3/envs/psi4env/share/psi4/basis/aug-cc-pvtz-ri.gbs 
    atoms 2-3 entry H          line    30 file /home/liuchw/anaconda3/envs/psi4env/share/psi4/basis/aug-cc-pvtz-ri.gbs 

	 --------------------------------------------------------
	                          DF-MP2                         
	      2nd-Order Density-Fitted Moller-Plesset Theory     
	              RMP2 Wavefunction,   8 Threads             
	                                                         
	        Rob Parrish, Justin Turney, Andy Simmonett,      
	           Ed Hohenstein, and C. David Sherrill          
	 --------------------------------------------------------

   => Auxiliary Basis Set <=

  Basis Set: (AUG-CC-PVTZ AUX)
    Blend: AUG-CC-PVTZ-RI
    Number of shells: 56
    Number of basis function: 198
    Number of Cartesian functions: 246
    Spherical Harmonics?: true
    Max angular momentum: 4

	 --------------------------------------------------------
	                 NBF =    92, NAUX =   198
	 --------------------------------------------------------
	   CLASS    FOCC     OCC    AOCC    AVIR     VIR    FVIR
	   PAIRS       0       5       5      87      87       0
	 --------------------------------------------------------

	-----------------------------------------------------------
	 ==================> DF-MP2 Energies <==================== 
	-----------------------------------------------------------
	 Reference Energy          =     -76.0598891848286343 [Eh]
	 Singles Energy            =      -0.0000000000000000 [Eh]
	 Same-Spin Energy          =      -0.0684574787298379 [Eh]
	 Opposite-Spin Energy      =      -0.2155279521717706 [Eh]
	 Correlation Energy        =      -0.2839854309016085 [Eh]
	 Total Energy              =     -76.3438746157302432 [Eh]
	-----------------------------------------------------------
	 ================> DF-SCS-MP2 Energies <================== 
	-----------------------------------------------------------
	 SCS Same-Spin Scale       =       0.3333333333333333 [-]
	 SCS Opposite-Spin Scale   =       1.2000000000000000 [-]
	 SCS Same-Spin Energy      =      -0.0228191595766126 [Eh]
	 SCS Opposite-Spin Energy  =      -0.2586335426061246 [Eh]
	 SCS Correlation Energy    =      -0.2814527021827373 [Eh]
	 SCS Total Energy          =     -76.3413418870113674 [Eh]
	-----------------------------------------------------------


*** tstop() called on node95.bme.utexas.edu at Thu Apr 23 18:39:59 2020
Module time:
	user time   =       3.62 seconds =       0.06 minutes
	system time =       0.12 seconds =       0.00 minutes
	total time  =          1 seconds =       0.02 minutes
Total time:
	user time   =      11.58 seconds =       0.19 minutes
	system time =       0.42 seconds =       0.01 minutes
	total time  =          2 seconds =       0.03 minutes

  //>>>>>>>>>>>>>>>>>>>>>>>>>>>>>>>>>>>>//
  // CBS Computation: MP2 / AUG-CC-PVQZ //
  //<<<<<<<<<<<<<<<<<<<<<<<<<<<<<<<<<<<<//


Scratch directory: /scratch/liuchw/

*** tstart() called on node95.bme.utexas.edu
*** at Thu Apr 23 18:39:59 2020

   => Loading Basis Set <=

    Name: AUG-CC-PVQZ
    Role: ORBITAL
    Keyword: BASIS
    atoms 1   entry O          line   423 file /home/liuchw/anaconda3/envs/psi4env/share/psi4/basis/aug-cc-pvqz.gbs 
    atoms 2-3 entry H          line    40 file /home/liuchw/anaconda3/envs/psi4env/share/psi4/basis/aug-cc-pvqz.gbs 


         ---------------------------------------------------------
                                   SCF
               by Justin Turney, Rob Parrish, Andy Simmonett
                          and Daniel G. A. Smith
                              RHF Reference
                        8 Threads,  19073 MiB Core
         ---------------------------------------------------------

  ==> Geometry <==

    Molecular point group: c1
    Full point group: C1

    Geometry (in Angstrom), charge = 0, multiplicity = 1:

       Center              X                  Y                   Z               Mass       
    ------------   -----------------  -----------------  -----------------  -----------------
         O            0.545672739611    -1.364124657402     3.217110141712    15.994914619570
         H            0.705552739611    -1.048934657402     4.108100141712     1.007825032230
         H           -0.357767260389    -1.078654657402     2.999710141712     1.007825032230

  Running in c1 symmetry.

  Rotational constants: A =     15.46021  B =      0.07383  C =      0.07371 [cm^-1]
  Rotational constants: A = 463485.57915  B =   2213.25090  C =   2209.91249 [MHz]
  Nuclear repulsion =    9.116021152031735

  Charge       = 0
  Multiplicity = 1
  Electrons    = 10
  Nalpha       = 5
  Nbeta        = 5

  ==> Algorithm <==

  SCF Algorithm Type is DF.
  DIIS enabled.
  MOM disabled.
  Fractional occupation disabled.
  Guess Type is SAD.
  Energy threshold   = 1.00e-07
  Density threshold  = 1.00e-08
  Integral threshold = 0.00e+00

  ==> Primary Basis <==

  Basis Set: AUG-CC-PVQZ
    Blend: AUG-CC-PVQZ
    Number of shells: 48
    Number of basis function: 172
    Number of Cartesian functions: 215
    Spherical Harmonics?: true
    Max angular momentum: 4

   => Loading Basis Set <=

    Name: (AUG-CC-PVQZ AUX)
    Role: JKFIT
    Keyword: DF_BASIS_SCF
    atoms 1   entry O          line   318 file /home/liuchw/anaconda3/envs/psi4env/share/psi4/basis/aug-cc-pvqz-jkfit.gbs 
    atoms 2-3 entry H          line    70 file /home/liuchw/anaconda3/envs/psi4env/share/psi4/basis/aug-cc-pvqz-jkfit.gbs 

  ==> Pre-Iterations <==

   -------------------------------------------------------
    Irrep   Nso     Nmo     Nalpha   Nbeta   Ndocc  Nsocc
   -------------------------------------------------------
     A        172     172       0       0       0       0
   -------------------------------------------------------
    Total     172     172       5       5       5       0
   -------------------------------------------------------

  ==> Integral Setup <==

  DFHelper Memory: AOs need 0.074 GiB; user supplied 13.970 GiB. Using in-core AOs.

  ==> MemDFJK: Density-Fitted J/K Matrices <==

    J tasked:                   Yes
    K tasked:                   Yes
    wK tasked:                   No
    OpenMP threads:               8
    Memory [MiB]:             14305
    Algorithm:                 Core
    Schwarz Cutoff:           1E-12
    Mask sparsity (%):       0.0000
    Fitting Condition:        1E-10

   => Auxiliary Basis Set <=

  Basis Set: (AUG-CC-PVQZ AUX)
    Blend: AUG-CC-PVQZ-JKFIT
    Number of shells: 70
    Number of basis function: 294
    Number of Cartesian functions: 400
    Spherical Harmonics?: true
    Max angular momentum: 5

  Minimum eigenvalue in the overlap matrix is 8.8370160198E-05.
  Using Symmetric Orthogonalization.

  SCF Guess: Superposition of Atomic Densities via on-the-fly atomic UHF.

  ==> Iterations <==

                           Total Energy        Delta E     RMS |[F,P]|

   @DF-RHF iter SAD:   -75.47288631253576   -7.54729e+01   0.00000e+00 
   @DF-RHF iter   1:   -75.98044008749170   -5.07554e-01   2.72662e-03 DIIS
   @DF-RHF iter   2:   -76.03280978557882   -5.23697e-02   1.87306e-03 DIIS
   @DF-RHF iter   3:   -76.06481169424735   -3.20019e-02   1.27843e-04 DIIS
   @DF-RHF iter   4:   -76.06521228514923   -4.00591e-04   3.17099e-05 DIIS
   @DF-RHF iter   5:   -76.06523881359695   -2.65284e-05   7.19904e-06 DIIS
   @DF-RHF iter   6:   -76.06524101360237   -2.20001e-06   1.63050e-06 DIIS
   @DF-RHF iter   7:   -76.06524113871627   -1.25114e-07   3.06292e-07 DIIS
   @DF-RHF iter   8:   -76.06524114259430   -3.87803e-09   4.97449e-08 DIIS
   @DF-RHF iter   9:   -76.06524114267772   -8.34177e-11   1.21648e-08 DIIS
   @DF-RHF iter  10:   -76.06524114268235   -4.63274e-12   1.79057e-09 DIIS
  Energy and wave function converged.


  ==> Post-Iterations <==

    Orbital Energies [Eh]
    ---------------------

    Doubly Occupied:                                                      

       1A    -20.565730     2A     -1.348123     3A     -0.715192  
       4A     -0.581614     5A     -0.509555  

    Virtual:                                                              

       6A      0.026910     7A      0.043002     8A      0.114283  
       9A      0.133466    10A      0.150718    11A      0.158395  
      12A      0.185036    13A      0.196918    14A      0.208917  
      15A      0.238397    16A      0.257634    17A      0.290989  
      18A      0.356565    19A      0.389139    20A      0.470172  
      21A      0.507853    22A      0.542356    23A      0.546623  
      24A      0.555822    25A      0.613573    26A      0.633442  
      27A      0.647815    28A      0.663378    29A      0.666558  
      30A      0.686549    31A      0.706201    32A      0.716791  
      33A      0.768995    34A      0.785619    35A      0.802949  
      36A      0.803157    37A      0.844530    38A      0.855123  
      39A      0.968770    40A      1.130111    41A      1.134619  
      42A      1.208954    43A      1.330185    44A      1.429896  
      45A      1.479134    46A      1.508130    47A      1.513209  
      48A      1.526946    49A      1.554332    50A      1.594142  
      51A      1.618733    52A      1.634929    53A      1.663123  
      54A      1.665614    55A      1.689383    56A      1.702880  
      57A      1.730305    58A      1.756352    59A      1.771472  
      60A      1.780648    61A      1.835615    62A      1.865201  
      63A      1.888582    64A      1.908959    65A      1.969243  
      66A      2.012230    67A      2.033162    68A      2.033572  
      69A      2.102523    70A      2.209567    71A      2.220506  
      72A      2.308408    73A      2.452672    74A      2.624951  
      75A      2.628624    76A      2.880155    77A      2.951565  
      78A      2.996487    79A      3.032832    80A      3.053509  
      81A      3.081431    82A      3.272021    83A      3.280242  
      84A      3.296205    85A      3.500709    86A      3.589869  
      87A      3.644656    88A      3.688079    89A      3.717610  
      90A      3.752214    91A      3.923658    92A      4.074967  
      93A      4.164668    94A      4.171071    95A      4.177219  
      96A      4.180738    97A      4.243048    98A      4.330879  
      99A      4.430181   100A      4.567360   101A      4.693943  
     102A      4.745766   103A      4.785477   104A      4.794763  
     105A      4.804988   106A      4.871214   107A      4.994783  
     108A      5.247335   109A      5.313774   110A      5.508622  
     111A      5.514455   112A      5.851267   113A      5.871452  
     114A      6.065671   115A      6.215779   116A      6.830953  
     117A      6.857112   118A      6.867589   119A      6.922427  
     120A      7.701358   121A      7.781407   122A      7.782913  
     123A      7.814934   124A      7.829126   125A      7.898455  
     126A      7.928592   127A      8.012658   128A      8.191705  
     129A      8.235099   130A      8.519065   131A      8.622700  
     132A      8.645317   133A      8.721276   134A      8.766652  
     135A      8.844522   136A      8.988808   137A      9.038430  
     138A      9.175009   139A      9.612444   140A      9.842708  
     141A      9.903400   142A      9.907735   143A      9.985336  
     144A     10.341199   145A     10.446293   146A     10.697752  
     147A     11.004039   148A     11.058706   149A     11.107021  
     150A     11.267518   151A     11.323277   152A     11.413734  
     153A     11.694910   154A     11.785065   155A     11.836845  
     156A     11.986197   157A     12.186532   158A     12.190680  
     159A     12.568972   160A     12.703459   161A     12.806756  
     162A     12.889530   163A     13.194323   164A     13.935838  
     165A     13.997187   166A     14.441960   167A     14.777507  
     168A     14.839792   169A     15.203983   170A     16.815898  
     171A     17.234714   172A     45.430181  

    Final Occupation by Irrep:
              A 
    DOCC [     5 ]

  @DF-RHF Final Energy:   -76.06524114268235

   => Energetics <=

    Nuclear Repulsion Energy =              9.1160211520317347
    One-Electron Energy =                -122.9220947956852967
    Two-Electron Energy =                  37.7408325009712087
    Total Energy =                        -76.0652411426823534

Computation Completed


Properties will be evaluated at   0.000000,   0.000000,   0.000000 [a0]

Properties computed using the SCF density matrix

  Nuclear Dipole Moment: [e a0]
     X:     8.9066      Y:   -24.6431      Z:    62.0675

  Electronic Dipole Moment: [e a0]
     X:    -9.3983      Y:    25.0416      Z:   -61.6190

  Dipole Moment: [e a0]
     X:    -0.4917      Y:     0.3985      Z:     0.4485     Total:     0.7757

  Dipole Moment: [D]
     X:    -1.2497      Y:     1.0129      Z:     1.1399     Total:     1.9716


*** tstop() called on node95.bme.utexas.edu at Thu Apr 23 18:40:00 2020
Module time:
	user time   =      11.23 seconds =       0.19 minutes
	system time =       0.40 seconds =       0.01 minutes
	total time  =          1 seconds =       0.02 minutes
Total time:
	user time   =      22.85 seconds =       0.38 minutes
	system time =       0.83 seconds =       0.01 minutes
	total time  =          3 seconds =       0.05 minutes

*** tstart() called on node95.bme.utexas.edu
*** at Thu Apr 23 18:40:00 2020


  //>>>>>>>>>>>>>>>>>>>>>>>>>>>>>>>>>>>//
  //               DFMP2               //
  //<<<<<<<<<<<<<<<<<<<<<<<<<<<<<<<<<<<//

   => Loading Basis Set <=

    Name: (AUG-CC-PVQZ AUX)
    Role: RIFIT
    Keyword: DF_BASIS_MP2
    atoms 1   entry O          line   332 file /home/liuchw/anaconda3/envs/psi4env/share/psi4/basis/aug-cc-pvqz-ri.gbs 
    atoms 2-3 entry H          line    30 file /home/liuchw/anaconda3/envs/psi4env/share/psi4/basis/aug-cc-pvqz-ri.gbs 

	 --------------------------------------------------------
	                          DF-MP2                         
	      2nd-Order Density-Fitted Moller-Plesset Theory     
	              RMP2 Wavefunction,   8 Threads             
	                                                         
	        Rob Parrish, Justin Turney, Andy Simmonett,      
	           Ed Hohenstein, and C. David Sherrill          
	 --------------------------------------------------------

   => Auxiliary Basis Set <=

  Basis Set: (AUG-CC-PVQZ AUX)
    Blend: AUG-CC-PVQZ-RI
    Number of shells: 76
    Number of basis function: 328
    Number of Cartesian functions: 447
    Spherical Harmonics?: true
    Max angular momentum: 5

	 --------------------------------------------------------
	                 NBF =   172, NAUX =   328
	 --------------------------------------------------------
	   CLASS    FOCC     OCC    AOCC    AVIR     VIR    FVIR
	   PAIRS       0       5       5     167     167       0
	 --------------------------------------------------------

	-----------------------------------------------------------
	 ==================> DF-MP2 Energies <==================== 
	-----------------------------------------------------------
	 Reference Energy          =     -76.0652411426823534 [Eh]
	 Singles Energy            =      -0.0000000000000000 [Eh]
	 Same-Spin Energy          =      -0.0727782936264433 [Eh]
	 Opposite-Spin Energy      =      -0.2444811202084792 [Eh]
	 Correlation Energy        =      -0.3172594138349225 [Eh]
	 Total Energy              =     -76.3825005565172717 [Eh]
	-----------------------------------------------------------
	 ================> DF-SCS-MP2 Energies <================== 
	-----------------------------------------------------------
	 SCS Same-Spin Scale       =       0.3333333333333333 [-]
	 SCS Opposite-Spin Scale   =       1.2000000000000000 [-]
	 SCS Same-Spin Energy      =      -0.0242594312088144 [Eh]
	 SCS Opposite-Spin Energy  =      -0.2933773442501750 [Eh]
	 SCS Correlation Energy    =      -0.3176367754589894 [Eh]
	 SCS Total Energy          =     -76.3828779181413466 [Eh]
	-----------------------------------------------------------


*** tstop() called on node95.bme.utexas.edu at Thu Apr 23 18:40:01 2020
Module time:
	user time   =       4.42 seconds =       0.07 minutes
	system time =       0.17 seconds =       0.00 minutes
	total time  =          1 seconds =       0.02 minutes
Total time:
	user time   =      27.27 seconds =       0.45 minutes
	system time =       1.00 seconds =       0.02 minutes
	total time  =          4 seconds =       0.07 minutes

  //>>>>>>>>>>>>>>>>>>>>>>>>>>>>>>>>>>>//
  //  CBS Results: mp2/aug-cc-pv[tq]z  //
  //<<<<<<<<<<<<<<<<<<<<<<<<<<<<<<<<<<<//


   ==> HF <==

   HI-zeta (4) Energy:               -76.065241142682


   ==> Helgaker 2-point correlated extrapolation for method: MP2 <==

   LO-zeta (3) Energy:               -76.343874615730
   HI-zeta (4) Energy:               -76.382500556517
   Alpha (exponent) Value:             3.000000000000
   Extrapolated Energy:              -76.410687053848

   @Extrapolated MP2/(T,Q):          -76.410687053848



   ==> Helgaker 2-point correlated extrapolation for method: HF <==

   LO-zeta (3) Energy:               -76.059889184829
   HI-zeta (4) Energy:               -76.065241142682
   Alpha (exponent) Value:             3.000000000000
   Extrapolated Energy:              -76.069146625440

   @Extrapolated HF/(T,Q):           -76.069146625440


   ==> Components <==

  ---------------------------------------------------------------------------------------------------------
                          Method / Basis                      Rqd      Energy [Eh]   Variable
  ---------------------------------------------------------------------------------------------------------
                              hf / aug-cc-pvtz                  *     -76.05988918   HF TOTAL ENERGY
                             mp2 / aug-cc-pvtz                  *     -76.34387462   MP2 TOTAL ENERGY
                              hf / aug-cc-pvqz                  *     -76.06524114   HF TOTAL ENERGY
                             mp2 / aug-cc-pvqz                  *     -76.38250056   MP2 TOTAL ENERGY
  ---------------------------------------------------------------------------------------------------------

   ==> Stages <==

  ---------------------------------------------------------------------------------------------------------
      Stage               Method / Basis                       Wt      Energy [Eh]   Scheme
  ---------------------------------------------------------------------------------------------------------
        scf                   hf / aug-cc-pvqz                  1     -76.06524114   xtpl_highest_1
       corl                  mp2 / aug-cc-pv[tq]z               1     -76.41068705   corl_xtpl_helgaker_2
       corl                   hf / aug-cc-pv[tq]z              -1     -76.06914663   corl_xtpl_helgaker_2
  ---------------------------------------------------------------------------------------------------------

   ==> CBS <==

  ---------------------------------------------------------------------------------------------------------
      Stage               Method / Basis                               Energy [Eh]   Scheme
  ---------------------------------------------------------------------------------------------------------
        scf                   hf / aug-cc-pvqz                        -76.06524114   xtpl_highest_1
       corl                  mp2 / aug-cc-pv[tq]z                      -0.34154043   corl_xtpl_helgaker_2
      total                  CBS                                      -76.40678157   
  ---------------------------------------------------------------------------------------------------------
   => Loading Basis Set <=

    Name: DEF2-SVP
    Role: ORBITAL
    Keyword: BASIS
    atoms 1   entry O          line   130 file /home/liuchw/anaconda3/envs/psi4env/share/psi4/basis/def2-svp.gbs 
    atoms 2-3 entry H          line    15 file /home/liuchw/anaconda3/envs/psi4env/share/psi4/basis/def2-svp.gbs 


       N-Body: Complex Energy (fragments = (2,), basis = (2,):   -76.40678157109022)

       N-Body: Computing complex (2/4) with fragments (2,) in the basis of fragments (1, 2).


Scratch directory: /scratch/liuchw/

  //>>>>>>>>>>>>>>>>>>>>>>>>>>>>>>>>>>>//
  //   CBS Setup: mp2/aug-cc-pv[tq]z   //
  //<<<<<<<<<<<<<<<<<<<<<<<<<<<<<<<<<<<//

    Naive listing of computations required.
             hf / aug-cc-pvqz              for  HF TOTAL ENERGY
            mp2 / aug-cc-pvtz              for  MP2 TOTAL ENERGY
            mp2 / aug-cc-pvqz              for  MP2 TOTAL ENERGY
             hf / aug-cc-pvtz              for  HF TOTAL ENERGY
             hf / aug-cc-pvqz              for  HF TOTAL ENERGY

    Enlightened listing of computations required.
            mp2 / aug-cc-pvtz              for  MP2 TOTAL ENERGY
            mp2 / aug-cc-pvqz              for  MP2 TOTAL ENERGY

    Full listing of computations to be obtained (required and bonus).
             hf / aug-cc-pvtz              for  HF TOTAL ENERGY
            mp2 / aug-cc-pvtz              for  MP2 TOTAL ENERGY
             hf / aug-cc-pvqz              for  HF TOTAL ENERGY
            mp2 / aug-cc-pvqz              for  MP2 TOTAL ENERGY

  //>>>>>>>>>>>>>>>>>>>>>>>>>>>>>>>>>>>>//
  // CBS Computation: MP2 / AUG-CC-PVTZ //
  //<<<<<<<<<<<<<<<<<<<<<<<<<<<<<<<<<<<<//


Scratch directory: /scratch/liuchw/

*** tstart() called on node95.bme.utexas.edu
*** at Thu Apr 23 18:40:02 2020

   => Loading Basis Set <=

    Name: AUG-CC-PVTZ
    Role: ORBITAL
    Keyword: BASIS
    atoms 1          entry P          line   824 file /home/liuchw/anaconda3/envs/psi4env/share/psi4/basis/aug-cc-pvtz.gbs 
    atoms 2-5, 9     entry O          line   331 file /home/liuchw/anaconda3/envs/psi4env/share/psi4/basis/aug-cc-pvtz.gbs 
    atoms 6-8, 10-11 entry H          line    40 file /home/liuchw/anaconda3/envs/psi4env/share/psi4/basis/aug-cc-pvtz.gbs 


         ---------------------------------------------------------
                                   SCF
               by Justin Turney, Rob Parrish, Andy Simmonett
                          and Daniel G. A. Smith
                              RHF Reference
                        8 Threads,  19073 MiB Core
         ---------------------------------------------------------

  ==> Geometry <==

    Molecular point group: c1
    Full point group: C1

    Geometry (in Angstrom), charge = 0, multiplicity = 1:

       Center              X                  Y                   Z               Mass       
    ------------   -----------------  -----------------  -----------------  -----------------
      Gh(P)          -0.157287260389     0.233705342598    -0.514019858288    30.973761998420
      Gh(O)           1.380952739611     0.149315342598    -0.124739858288    15.994914619570
      Gh(O)          -0.236517260389     1.567215342598    -1.392359858288    15.994914619570
      Gh(O)          -1.083547260389     0.117425342598     0.629860141712    15.994914619570
      Gh(O)          -0.423767260389    -0.867634657402    -1.629349858288    15.994914619570
      Gh(H)          -0.100187260389     2.354195342598    -0.854229858288     1.007825032230
      Gh(H)           0.224562739611    -0.832924657402    -2.340919858288     1.007825032230
      Gh(H)           1.460722739611    -0.262784657402     0.767080141712     1.007825032230
         O            0.545672739611    -1.364124657402     3.217110141712    15.994914619570
         H            0.705552739611    -1.048934657402     4.108100141712     1.007825032230
         H           -0.357767260389    -1.078654657402     2.999710141712     1.007825032230

  Running in c1 symmetry.

  Rotational constants: A =      0.15240  B =      0.04397  C =      0.04364 [cm^-1]
  Rotational constants: A =   4568.84881  B =   1318.16802  C =   1308.36553 [MHz]
  Nuclear repulsion =    9.116021152031735

  Charge       = 0
  Multiplicity = 1
  Electrons    = 10
  Nalpha       = 5
  Nbeta        = 5

  ==> Algorithm <==

  SCF Algorithm Type is DF.
  DIIS enabled.
  MOM disabled.
  Fractional occupation disabled.
  Guess Type is SAD.
  Energy threshold   = 1.00e-07
  Density threshold  = 1.00e-08
  Integral threshold = 0.00e+00

  ==> Primary Basis <==

  Basis Set: AUG-CC-PVTZ
    Blend: AUG-CC-PVTZ
    Number of shells: 131
    Number of basis function: 395
    Number of Cartesian functions: 459
    Spherical Harmonics?: true
    Max angular momentum: 3

   => Loading Basis Set <=

    Name: (AUG-CC-PVTZ AUX)
    Role: JKFIT
    Keyword: DF_BASIS_SCF
    atoms 1          entry P          line   644 file /home/liuchw/anaconda3/envs/psi4env/share/psi4/basis/aug-cc-pvtz-jkfit.gbs 
    atoms 2-5, 9     entry O          line   286 file /home/liuchw/anaconda3/envs/psi4env/share/psi4/basis/aug-cc-pvtz-jkfit.gbs 
    atoms 6-8, 10-11 entry H          line    70 file /home/liuchw/anaconda3/envs/psi4env/share/psi4/basis/aug-cc-pvtz-jkfit.gbs 

  ==> Pre-Iterations <==

   -------------------------------------------------------
    Irrep   Nso     Nmo     Nalpha   Nbeta   Ndocc  Nsocc
   -------------------------------------------------------
     A        395     395       0       0       0       0
   -------------------------------------------------------
    Total     395     395       5       5       5       0
   -------------------------------------------------------

  ==> Integral Setup <==

  DFHelper Memory: AOs need 1.017 GiB; user supplied 13.970 GiB. Using in-core AOs.

  ==> MemDFJK: Density-Fitted J/K Matrices <==

    J tasked:                   Yes
    K tasked:                   Yes
    wK tasked:                   No
    OpenMP threads:               8
    Memory [MiB]:             14305
    Algorithm:                 Core
    Schwarz Cutoff:           1E-12
    Mask sparsity (%):       6.8835
    Fitting Condition:        1E-10

   => Auxiliary Basis Set <=

  Basis Set: (AUG-CC-PVTZ AUX)
    Blend: AUG-CC-PVTZ-JKFIT
    Number of shells: 262
    Number of basis function: 896
    Number of Cartesian functions: 1110
    Spherical Harmonics?: true
    Max angular momentum: 4

  Minimum eigenvalue in the overlap matrix is 7.6115303030E-05.
  Using Symmetric Orthogonalization.

  SCF Guess: Superposition of Atomic Densities via on-the-fly atomic UHF.

  ==> Iterations <==

                           Total Energy        Delta E     RMS |[F,P]|

   @DF-RHF iter SAD:   -75.46775061049529   -7.54678e+01   0.00000e+00 
   @DF-RHF iter   1:   -75.97542999538720   -5.07679e-01   1.18479e-03 DIIS
   @DF-RHF iter   2:   -76.02770890067471   -5.22789e-02   8.12124e-04 DIIS
   @DF-RHF iter   3:   -76.05951281412045   -3.18039e-02   5.52583e-05 DIIS
   @DF-RHF iter   4:   -76.05991138176316   -3.98568e-04   1.34089e-05 DIIS
   @DF-RHF iter   5:   -76.05993699548752   -2.56137e-05   3.05513e-06 DIIS
   @DF-RHF iter   6:   -76.05993911168663   -2.11620e-06   6.73939e-07 DIIS
   @DF-RHF iter   7:   -76.05993922499290   -1.13306e-07   1.22757e-07 DIIS
   @DF-RHF iter   8:   -76.05993922829539   -3.30249e-09   2.07223e-08 DIIS
   @DF-RHF iter   9:   -76.05993922837008   -7.46923e-11   5.19050e-09 DIIS
  Energy and wave function converged.


  ==> Post-Iterations <==

    Orbital Energies [Eh]
    ---------------------

    Doubly Occupied:                                                      

       1A    -20.568122     2A     -1.348808     3A     -0.715183  
       4A     -0.581520     5A     -0.509416  

    Virtual:                                                              

       6A      0.020841     7A      0.034945     8A      0.044695  
       9A      0.046895    10A      0.061354    11A      0.070777  
      12A      0.084868    13A      0.085311    14A      0.092489  
      15A      0.134662    16A      0.138522    17A      0.142834  
      18A      0.147584    19A      0.160387    20A      0.166775  
      21A      0.174135    22A      0.175890    23A      0.189216  
      24A      0.191793    25A      0.200390    26A      0.209037  
      27A      0.213548    28A      0.221370    29A      0.223011  
      30A      0.231168    31A      0.250372    32A      0.252625  
      33A      0.263517    34A      0.271813    35A      0.276083  
      36A      0.293313    37A      0.297085    38A      0.317326  
      39A      0.326089    40A      0.341503    41A      0.355706  
      42A      0.359636    43A      0.363675    44A      0.373978  
      45A      0.377691    46A      0.386075    47A      0.393043  
      48A      0.400534    49A      0.409008    50A      0.430495  
      51A      0.431977    52A      0.437291    53A      0.445635  
      54A      0.454655    55A      0.460600    56A      0.477776  
      57A      0.480737    58A      0.490145    59A      0.503716  
      60A      0.510453    61A      0.520091    62A      0.529670  
      63A      0.538051    64A      0.626169    65A      0.671503  
      66A      0.681670    67A      0.685679    68A      0.702384  
      69A      0.710767    70A      0.723396    71A      0.734846  
      72A      0.750078    73A      0.752709    74A      0.762711  
      75A      0.771543    76A      0.778950    77A      0.782506  
      78A      0.795164    79A      0.803204    80A      0.813623  
      81A      0.819177    82A      0.835370    83A      0.840778  
      84A      0.848827    85A      0.859930    86A      0.871938  
      87A      0.875959    88A      0.894812    89A      0.899204  
      90A      0.907347    91A      0.923805    92A      0.935550  
      93A      0.939665    94A      0.946607    95A      0.951007  
      96A      0.953202    97A      0.959778    98A      0.971278  
      99A      0.973367   100A      0.984683   101A      0.992611  
     102A      1.000004   103A      1.011966   104A      1.016140  
     105A      1.024086   106A      1.030801   107A      1.043257  
     108A      1.061623   109A      1.068441   110A      1.072118  
     111A      1.097180   112A      1.101088   113A      1.115263  
     114A      1.126422   115A      1.141557   116A      1.144203  
     117A      1.156874   118A      1.176376   119A      1.182640  
     120A      1.203581   121A      1.227917   122A      1.228858  
     123A      1.251923   124A      1.261092   125A      1.279296  
     126A      1.302228   127A      1.318187   128A      1.322909  
     129A      1.338573   130A      1.357916   131A      1.368713  
     132A      1.380223   133A      1.393183   134A      1.424954  
     135A      1.438246   136A      1.447086   137A      1.450764  
     138A      1.478933   139A      1.489912   140A      1.494966  
     141A      1.513961   142A      1.538388   143A      1.554284  
     144A      1.571001   145A      1.582010   146A      1.607187  
     147A      1.616774   148A      1.650767   149A      1.661543  
     150A      1.695577   151A      1.723283   152A      1.744258  
     153A      1.759049   154A      1.812398   155A      1.832198  
     156A      1.837955   157A      1.851231   158A      1.859217  
     159A      1.881755   160A      1.898466   161A      1.920312  
     162A      1.947797   163A      1.950209   164A      1.987990  
     165A      2.049877   166A      2.059401   167A      2.101498  
     168A      2.131418   169A      2.168552   170A      2.323764  
     171A      2.346273   172A      2.351123   173A      2.376380  
     174A      2.392535   175A      2.405822   176A      2.420848  
     177A      2.434794   178A      2.447002   179A      2.456537  
     180A      2.472373   181A      2.483649   182A      2.495875  
     183A      2.507108   184A      2.526995   185A      2.536584  
     186A      2.554130   187A      2.575389   188A      2.586382  
     189A      2.595126   190A      2.615651   191A      2.623448  
     192A      2.630957   193A      2.649937   194A      2.658131  
     195A      2.667875   196A      2.681535   197A      2.698971  
     198A      2.720072   199A      2.732001   200A      2.741572  
     201A      2.755319   202A      2.763260   203A      2.776294  
     204A      2.788322   205A      2.796720   206A      2.809127  
     207A      2.817616   208A      2.843848   209A      2.862786  
     210A      2.880861   211A      2.888982   212A      2.894721  
     213A      2.898400   214A      2.918376   215A      2.937996  
     216A      2.963580   217A      2.971309   218A      2.999445  
     219A      3.022945   220A      3.043370   221A      3.100649  
     222A      3.118565   223A      3.150858   224A      3.200500  
     225A      3.221207   226A      3.232363   227A      3.252591  
     228A      3.262489   229A      3.279068   230A      3.286604  
     231A      3.318103   232A      3.327975   233A      3.346845  
     234A      3.365410   235A      3.385498   236A      3.423116  
     237A      3.441922   238A      3.494634   239A      3.516715  
     240A      3.533773   241A      3.577867   242A      3.649798  
     243A      3.697190   244A      3.719470   245A      3.748319  
     246A      3.783789   247A      3.810530   248A      3.915380  
     249A      3.977192   250A      4.023376   251A      4.027181  
     252A      4.089141   253A      4.104093   254A      4.138909  
     255A      4.181517   256A      4.205366   257A      4.243037  
     258A      4.271674   259A      4.298494   260A      4.323778  
     261A      4.357536   262A      4.403043   263A      4.413740  
     264A      4.433128   265A      4.456570   266A      4.517696  
     267A      4.528536   268A      4.556947   269A      4.579158  
     270A      4.601819   271A      4.620834   272A      4.651258  
     273A      4.696204   274A      4.708279   275A      4.763679  
     276A      4.870502   277A      4.891964   278A      4.911752  
     279A      4.948248   280A      4.973560   281A      5.003446  
     282A      5.017854   283A      5.073068   284A      5.078127  
     285A      5.114551   286A      5.154288   287A      5.160843  
     288A      5.290891   289A      5.338301   290A      5.355186  
     291A      5.395194   292A      5.431795   293A      5.520124  
     294A      5.669325   295A      5.702623   296A      5.732691  
     297A      5.751964   298A      5.797911   299A      5.952489  
     300A      5.968632   301A      6.104640   302A      6.199171  
     303A      6.261598   304A      6.355406   305A      6.419934  
     306A      6.552086   307A      6.767247   308A      6.826481  
     309A      6.891669   310A      6.910039   311A      6.937488  
     312A      7.163231   313A      7.318592   314A      7.335642  
     315A      7.342111   316A      7.363832   317A      7.417898  
     318A      7.551840   319A      7.579901   320A      7.639901  
     321A      7.692648   322A      7.730922   323A      7.761913  
     324A      7.771610   325A      7.778866   326A      7.814237  
     327A      7.821769   328A      7.826930   329A      7.851616  
     330A      7.867915   331A      7.883560   332A      7.894250  
     333A      7.907568   334A      7.925571   335A      7.936327  
     336A      7.946616   337A      7.967216   338A      7.992111  
     339A      8.000444   340A      8.222075   341A      8.257534  
     342A      8.258939   343A      8.376231   344A      8.393347  
     345A      8.437533   346A      8.582911   347A      8.630978  
     348A      8.660420   349A      8.821236   350A      9.420738  
     351A      9.729841   352A      9.764000   353A      9.813358  
     354A      9.816791   355A      9.875915   356A      9.894482  
     357A      9.925317   358A      9.951372   359A     10.044617  
     360A     10.090851   361A     10.113374   362A     10.173986  
     363A     10.187639   364A     10.250264   365A     10.347042  
     366A     10.383540   367A     10.647921   368A     10.672624  
     369A     10.732158   370A     10.881018   371A     11.587855  
     372A     11.691741   373A     11.713966   374A     11.845975  
     375A     11.857014   376A     11.899290   377A     11.973080  
     378A     12.127346   379A     12.295988   380A     12.550464  
     381A     12.586605   382A     12.918576   383A     13.742551  
     384A     13.881743   385A     13.920919   386A     15.754933  
     387A     17.871047   388A     23.040245   389A     23.160937  
     390A     23.312447   391A     60.024344   392A     63.449648  
     393A     63.543626   394A     64.792907   395A    123.914054  

    Final Occupation by Irrep:
              A 
    DOCC [     5 ]

  @DF-RHF Final Energy:   -76.05993922837008

   => Energetics <=

    Nuclear Repulsion Energy =              9.1160211520317347
    One-Electron Energy =                -122.9058177774502951
    Two-Electron Energy =                  37.7298573970484625
    Total Energy =                        -76.0599392283700979

Computation Completed


Properties will be evaluated at   0.000000,   0.000000,   0.000000 [a0]

Properties computed using the SCF density matrix

  Nuclear Dipole Moment: [e a0]
     X:     8.9066      Y:   -24.6431      Z:    62.0675

  Electronic Dipole Moment: [e a0]
     X:    -9.3990      Y:    25.0417      Z:   -61.6184

  Dipole Moment: [e a0]
     X:    -0.4924      Y:     0.3985      Z:     0.4490     Total:     0.7765

  Dipole Moment: [D]
     X:    -1.2516      Y:     1.0129      Z:     1.1413     Total:     1.9736


*** tstop() called on node95.bme.utexas.edu at Thu Apr 23 18:40:08 2020
Module time:
	user time   =      35.05 seconds =       0.58 minutes
	system time =       0.75 seconds =       0.01 minutes
	total time  =          6 seconds =       0.10 minutes
Total time:
	user time   =      64.44 seconds =       1.07 minutes
	system time =       1.81 seconds =       0.03 minutes
	total time  =         11 seconds =       0.18 minutes

*** tstart() called on node95.bme.utexas.edu
*** at Thu Apr 23 18:40:08 2020


  //>>>>>>>>>>>>>>>>>>>>>>>>>>>>>>>>>>>//
  //               DFMP2               //
  //<<<<<<<<<<<<<<<<<<<<<<<<<<<<<<<<<<<//

   => Loading Basis Set <=

    Name: (AUG-CC-PVTZ AUX)
    Role: RIFIT
    Keyword: DF_BASIS_MP2
    atoms 1          entry P          line   590 file /home/liuchw/anaconda3/envs/psi4env/share/psi4/basis/aug-cc-pvtz-ri.gbs 
    atoms 2-5, 9     entry O          line   264 file /home/liuchw/anaconda3/envs/psi4env/share/psi4/basis/aug-cc-pvtz-ri.gbs 
    atoms 6-8, 10-11 entry H          line    30 file /home/liuchw/anaconda3/envs/psi4env/share/psi4/basis/aug-cc-pvtz-ri.gbs 

	 --------------------------------------------------------
	                          DF-MP2                         
	      2nd-Order Density-Fitted Moller-Plesset Theory     
	              RMP2 Wavefunction,   8 Threads             
	                                                         
	        Rob Parrish, Justin Turney, Andy Simmonett,      
	           Ed Hohenstein, and C. David Sherrill          
	 --------------------------------------------------------

   => Auxiliary Basis Set <=

  Basis Set: (AUG-CC-PVTZ AUX)
    Blend: AUG-CC-PVTZ-RI
    Number of shells: 247
    Number of basis function: 907
    Number of Cartesian functions: 1146
    Spherical Harmonics?: true
    Max angular momentum: 4

	 --------------------------------------------------------
	                 NBF =   395, NAUX =   907
	 --------------------------------------------------------
	   CLASS    FOCC     OCC    AOCC    AVIR     VIR    FVIR
	   PAIRS       0       5       5     390     390       0
	 --------------------------------------------------------

	-----------------------------------------------------------
	 ==================> DF-MP2 Energies <==================== 
	-----------------------------------------------------------
	 Reference Energy          =     -76.0599392283700837 [Eh]
	 Singles Energy            =      -0.0000000000000000 [Eh]
	 Same-Spin Energy          =      -0.0684904373697842 [Eh]
	 Opposite-Spin Energy      =      -0.2157995294946554 [Eh]
	 Correlation Energy        =      -0.2842899668644396 [Eh]
	 Total Energy              =     -76.3442291952345187 [Eh]
	-----------------------------------------------------------
	 ================> DF-SCS-MP2 Energies <================== 
	-----------------------------------------------------------
	 SCS Same-Spin Scale       =       0.3333333333333333 [-]
	 SCS Opposite-Spin Scale   =       1.2000000000000000 [-]
	 SCS Same-Spin Energy      =      -0.0228301457899281 [Eh]
	 SCS Opposite-Spin Energy  =      -0.2589594353935865 [Eh]
	 SCS Correlation Energy    =      -0.2817895811835145 [Eh]
	 SCS Total Energy          =     -76.3417288095536009 [Eh]
	-----------------------------------------------------------


*** tstop() called on node95.bme.utexas.edu at Thu Apr 23 18:40:10 2020
Module time:
	user time   =      16.33 seconds =       0.27 minutes
	system time =       0.39 seconds =       0.01 minutes
	total time  =          2 seconds =       0.03 minutes
Total time:
	user time   =      80.78 seconds =       1.35 minutes
	system time =       2.20 seconds =       0.04 minutes
	total time  =         13 seconds =       0.22 minutes

  //>>>>>>>>>>>>>>>>>>>>>>>>>>>>>>>>>>>>//
  // CBS Computation: MP2 / AUG-CC-PVQZ //
  //<<<<<<<<<<<<<<<<<<<<<<<<<<<<<<<<<<<<//


Scratch directory: /scratch/liuchw/

*** tstart() called on node95.bme.utexas.edu
*** at Thu Apr 23 18:40:10 2020

   => Loading Basis Set <=

    Name: AUG-CC-PVQZ
    Role: ORBITAL
    Keyword: BASIS
    atoms 1          entry P          line  1030 file /home/liuchw/anaconda3/envs/psi4env/share/psi4/basis/aug-cc-pvqz.gbs 
    atoms 2-5, 9     entry O          line   423 file /home/liuchw/anaconda3/envs/psi4env/share/psi4/basis/aug-cc-pvqz.gbs 
    atoms 6-8, 10-11 entry H          line    40 file /home/liuchw/anaconda3/envs/psi4env/share/psi4/basis/aug-cc-pvqz.gbs 


         ---------------------------------------------------------
                                   SCF
               by Justin Turney, Rob Parrish, Andy Simmonett
                          and Daniel G. A. Smith
                              RHF Reference
                        8 Threads,  19073 MiB Core
         ---------------------------------------------------------

  ==> Geometry <==

    Molecular point group: c1
    Full point group: C1

    Geometry (in Angstrom), charge = 0, multiplicity = 1:

       Center              X                  Y                   Z               Mass       
    ------------   -----------------  -----------------  -----------------  -----------------
      Gh(P)          -0.157287260389     0.233705342598    -0.514019858288    30.973761998420
      Gh(O)           1.380952739611     0.149315342598    -0.124739858288    15.994914619570
      Gh(O)          -0.236517260389     1.567215342598    -1.392359858288    15.994914619570
      Gh(O)          -1.083547260389     0.117425342598     0.629860141712    15.994914619570
      Gh(O)          -0.423767260389    -0.867634657402    -1.629349858288    15.994914619570
      Gh(H)          -0.100187260389     2.354195342598    -0.854229858288     1.007825032230
      Gh(H)           0.224562739611    -0.832924657402    -2.340919858288     1.007825032230
      Gh(H)           1.460722739611    -0.262784657402     0.767080141712     1.007825032230
         O            0.545672739611    -1.364124657402     3.217110141712    15.994914619570
         H            0.705552739611    -1.048934657402     4.108100141712     1.007825032230
         H           -0.357767260389    -1.078654657402     2.999710141712     1.007825032230

  Running in c1 symmetry.

  Rotational constants: A =      0.15240  B =      0.04397  C =      0.04364 [cm^-1]
  Rotational constants: A =   4568.84881  B =   1318.16802  C =   1308.36553 [MHz]
  Nuclear repulsion =    9.116021152031735

  Charge       = 0
  Multiplicity = 1
  Electrons    = 10
  Nalpha       = 5
  Nbeta        = 5

  ==> Algorithm <==

  SCF Algorithm Type is DF.
  DIIS enabled.
  MOM disabled.
  Fractional occupation disabled.
  Guess Type is SAD.
  Energy threshold   = 1.00e-07
  Density threshold  = 1.00e-08
  Integral threshold = 0.00e+00

  ==> Primary Basis <==

  Basis Set: AUG-CC-PVQZ
    Blend: AUG-CC-PVQZ
    Number of shells: 192
    Number of basis function: 714
    Number of Cartesian functions: 909
    Spherical Harmonics?: true
    Max angular momentum: 4

   => Loading Basis Set <=

    Name: (AUG-CC-PVQZ AUX)
    Role: JKFIT
    Keyword: DF_BASIS_SCF
    atoms 1          entry P          line   716 file /home/liuchw/anaconda3/envs/psi4env/share/psi4/basis/aug-cc-pvqz-jkfit.gbs 
    atoms 2-5, 9     entry O          line   318 file /home/liuchw/anaconda3/envs/psi4env/share/psi4/basis/aug-cc-pvqz-jkfit.gbs 
    atoms 6-8, 10-11 entry H          line    70 file /home/liuchw/anaconda3/envs/psi4env/share/psi4/basis/aug-cc-pvqz-jkfit.gbs 

  ==> Pre-Iterations <==

   -------------------------------------------------------
    Irrep   Nso     Nmo     Nalpha   Nbeta   Ndocc  Nsocc
   -------------------------------------------------------
     A        714     714       0       0       0       0
   -------------------------------------------------------
    Total     714     714       5       5       5       0
   -------------------------------------------------------

  ==> Integral Setup <==

  DFHelper Memory: AOs need 4.436 GiB; user supplied 13.970 GiB. Using in-core AOs.

  ==> MemDFJK: Density-Fitted J/K Matrices <==

    J tasked:                   Yes
    K tasked:                   Yes
    wK tasked:                   No
    OpenMP threads:               8
    Memory [MiB]:             14305
    Algorithm:                 Core
    Schwarz Cutoff:           1E-12
    Mask sparsity (%):      11.7937
    Fitting Condition:        1E-10

   => Auxiliary Basis Set <=

  Basis Set: (AUG-CC-PVQZ AUX)
    Blend: AUG-CC-PVQZ-JKFIT
    Number of shells: 306
    Number of basis function: 1274
    Number of Cartesian functions: 1742
    Spherical Harmonics?: true
    Max angular momentum: 5

  Minimum eigenvalue in the overlap matrix is 1.9643368914E-05.
  Using Symmetric Orthogonalization.

  SCF Guess: Superposition of Atomic Densities via on-the-fly atomic UHF.

  ==> Iterations <==

                           Total Energy        Delta E     RMS |[F,P]|

   @DF-RHF iter SAD:   -75.47288630675914   -7.54729e+01   0.00000e+00 
   @DF-RHF iter   1:   -75.98045803288372   -5.07572e-01   6.56850e-04 DIIS
   @DF-RHF iter   2:   -76.03283087100904   -5.23728e-02   4.51229e-04 DIIS
   @DF-RHF iter   3:   -76.06483280551102   -3.20019e-02   3.07991e-05 DIIS
   @DF-RHF iter   4:   -76.06523344012828   -4.00635e-04   7.63919e-06 DIIS
   @DF-RHF iter   5:   -76.06525997255729   -2.65324e-05   1.73467e-06 DIIS
   @DF-RHF iter   6:   -76.06526217386548   -2.20131e-06   3.92930e-07 DIIS
   @DF-RHF iter   7:   -76.06526229913540   -1.25270e-07   7.38980e-08 DIIS
   @DF-RHF iter   8:   -76.06526230303103   -3.89564e-09   1.20078e-08 DIIS
   @DF-RHF iter   9:   -76.06526230311522   -8.41851e-11   2.93485e-09 DIIS
  Energy and wave function converged.


  ==> Post-Iterations <==

    Orbital Energies [Eh]
    ---------------------

    Doubly Occupied:                                                      

       1A    -20.565703     2A     -1.348098     3A     -0.715169  
       4A     -0.581590     5A     -0.509548  

    Virtual:                                                              

       6A      0.018493     7A      0.031541     8A      0.040441  
       9A      0.041903    10A      0.055660    11A      0.062192  
      12A      0.071946    13A      0.074611    14A      0.080376  
      15A      0.112471    16A      0.117404    17A      0.123028  
      18A      0.125988    19A      0.137793    20A      0.141074  
      21A      0.146961    22A      0.151445    23A      0.161339  
      24A      0.163410    25A      0.172653    26A      0.178114  
      27A      0.182410    28A      0.187114    29A      0.188954  
      30A      0.197541    31A      0.203881    32A      0.208458  
      33A      0.216132    34A      0.227665    35A      0.232922  
      36A      0.243412    37A      0.249104    38A      0.264267  
      39A      0.280249    40A      0.283172    41A      0.289393  
      42A      0.294625    43A      0.299999    44A      0.307675  
      45A      0.315031    46A      0.321005    47A      0.326618  
      48A      0.339155    49A      0.342922    50A      0.351341  
      51A      0.359969    52A      0.361653    53A      0.369835  
      54A      0.376977    55A      0.379612    56A      0.389251  
      57A      0.398272    58A      0.407733    59A      0.410227  
      60A      0.421220    61A      0.427980    62A      0.434609  
      63A      0.439530    64A      0.476840    65A      0.487902  
      66A      0.507935    67A      0.511016    68A      0.512925  
      69A      0.528312    70A      0.531215    71A      0.535080  
      72A      0.541856    73A      0.560331    74A      0.581256  
      75A      0.584737    76A      0.595078    77A      0.606495  
      78A      0.609455    79A      0.621793    80A      0.624891  
      81A      0.628344    82A      0.629127    83A      0.640602  
      84A      0.645031    85A      0.649086    86A      0.666167  
      87A      0.671788    88A      0.681226    89A      0.684266  
      90A      0.686957    91A      0.699695    92A      0.711528  
      93A      0.721376    94A      0.729131    95A      0.734346  
      96A      0.737489    97A      0.743763    98A      0.748604  
      99A      0.752213   100A      0.758660   101A      0.760803  
     102A      0.768859   103A      0.780335   104A      0.783498  
     105A      0.789143   106A      0.797102   107A      0.805085  
     108A      0.816002   109A      0.820874   110A      0.827139  
     111A      0.836705   112A      0.841349   113A      0.850991  
     114A      0.854512   115A      0.869738   116A      0.872817  
     117A      0.886592   118A      0.896107   119A      0.917299  
     120A      0.925479   121A      0.931446   122A      0.935991  
     123A      0.957586   124A      0.967231   125A      0.977734  
     126A      0.981512   127A      0.984657   128A      1.001781  
     129A      1.003640   130A      1.020524   131A      1.030488  
     132A      1.043897   133A      1.044135   134A      1.062709  
     135A      1.067201   136A      1.080979   137A      1.096450  
     138A      1.110589   139A      1.121554   140A      1.123796  
     141A      1.143455   142A      1.145600   143A      1.151194  
     144A      1.169739   145A      1.178938   146A      1.197912  
     147A      1.210054   148A      1.221817   149A      1.243725  
     150A      1.253190   151A      1.262520   152A      1.284182  
     153A      1.301612   154A      1.325111   155A      1.341124  
     156A      1.352124   157A      1.383297   158A      1.393387  
     159A      1.399090   160A      1.405122   161A      1.422743  
     162A      1.439724   163A      1.444564   164A      1.462481  
     165A      1.470708   166A      1.478861   167A      1.492848  
     168A      1.501544   169A      1.508499   170A      1.521289  
     171A      1.542043   172A      1.547842   173A      1.564324  
     174A      1.571174   175A      1.588104   176A      1.594330  
     177A      1.599589   178A      1.613348   179A      1.621845  
     180A      1.637047   181A      1.646357   182A      1.651910  
     183A      1.660060   184A      1.666859   185A      1.671356  
     186A      1.685789   187A      1.697427   188A      1.705456  
     189A      1.709473   190A      1.712100   191A      1.728058  
     192A      1.729349   193A      1.735491   194A      1.746916  
     195A      1.764954   196A      1.772520   197A      1.774989  
     198A      1.782162   199A      1.789929   200A      1.800512  
     201A      1.809454   202A      1.815104   203A      1.818082  
     204A      1.835460   205A      1.840954   206A      1.843604  
     207A      1.851226   208A      1.864602   209A      1.872845  
     210A      1.886608   211A      1.889434   212A      1.892923  
     213A      1.898543   214A      1.907487   215A      1.913964  
     216A      1.926785   217A      1.935563   218A      1.942490  
     219A      1.955342   220A      1.961795   221A      1.967707  
     222A      1.976929   223A      1.988025   224A      1.996786  
     225A      2.009674   226A      2.014941   227A      2.019517  
     228A      2.038870   229A      2.049227   230A      2.060940  
     231A      2.061388   232A      2.073279   233A      2.083236  
     234A      2.094267   235A      2.108396   236A      2.121181  
     237A      2.123385   238A      2.136139   239A      2.143126  
     240A      2.151897   241A      2.163055   242A      2.169885  
     243A      2.184281   244A      2.192997   245A      2.203224  
     246A      2.212211   247A      2.223365   248A      2.257186  
     249A      2.266027   250A      2.281998   251A      2.290221  
     252A      2.296382   253A      2.306150   254A      2.322831  
     255A      2.334343   256A      2.359877   257A      2.365646  
     258A      2.394844   259A      2.408108   260A      2.412910  
     261A      2.418340   262A      2.447432   263A      2.473356  
     264A      2.476766   265A      2.482390   266A      2.496382  
     267A      2.515737   268A      2.517319   269A      2.540257  
     270A      2.545087   271A      2.580100   272A      2.594511  
     273A      2.606203   274A      2.610344   275A      2.627685  
     276A      2.644548   277A      2.649785   278A      2.673996  
     279A      2.687835   280A      2.693938   281A      2.705104  
     282A      2.746380   283A      2.748841   284A      2.772086  
     285A      2.787600   286A      2.841101   287A      2.848307  
     288A      2.875766   289A      2.891425   290A      2.908479  
     291A      2.925481   292A      2.962745   293A      2.972597  
     294A      3.009826   295A      3.025924   296A      3.038032  
     297A      3.053867   298A      3.063599   299A      3.082534  
     300A      3.091567   301A      3.100064   302A      3.151451  
     303A      3.152978   304A      3.167375   305A      3.173923  
     306A      3.199355   307A      3.213870   308A      3.242224  
     309A      3.281875   310A      3.299072   311A      3.304686  
     312A      3.323714   313A      3.346926   314A      3.353717  
     315A      3.372760   316A      3.377546   317A      3.408619  
     318A      3.428791   319A      3.448800   320A      3.457885  
     321A      3.480940   322A      3.491382   323A      3.519676  
     324A      3.541939   325A      3.543273   326A      3.572661  
     327A      3.581224   328A      3.610577   329A      3.662672  
     330A      3.672015   331A      3.701483   332A      3.709793  
     333A      3.716588   334A      3.727528   335A      3.758497  
     336A      3.787622   337A      3.816298   338A      3.831073  
     339A      3.900156   340A      3.924996   341A      3.958580  
     342A      3.961506   343A      3.980182   344A      3.993901  
     345A      4.027578   346A      4.042228   347A      4.054859  
     348A      4.068628   349A      4.089922   350A      4.117829  
     351A      4.125134   352A      4.144705   353A      4.147723  
     354A      4.169165   355A      4.181973   356A      4.192805  
     357A      4.213178   358A      4.220210   359A      4.229879  
     360A      4.247462   361A      4.289101   362A      4.296958  
     363A      4.333509   364A      4.346893   365A      4.359889  
     366A      4.364380   367A      4.393944   368A      4.402503  
     369A      4.417849   370A      4.434063   371A      4.451994  
     372A      4.452622   373A      4.460138   374A      4.482779  
     375A      4.492974   376A      4.506879   377A      4.532213  
     378A      4.543192   379A      4.551633   380A      4.570848  
     381A      4.598439   382A      4.607811   383A      4.616707  
     384A      4.642104   385A      4.660325   386A      4.676001  
     387A      4.688858   388A      4.716258   389A      4.732977  
     390A      4.739370   391A      4.748101   392A      4.758207  
     393A      4.778292   394A      4.791758   395A      4.804292  
     396A      4.814429   397A      4.819049   398A      4.838883  
     399A      4.851333   400A      4.878935   401A      4.889187  
     402A      4.897730   403A      4.917644   404A      4.931566  
     405A      4.934857   406A      4.940086   407A      4.990153  
     408A      5.000592   409A      5.015479   410A      5.045548  
     411A      5.060273   412A      5.067564   413A      5.079813  
     414A      5.098789   415A      5.112571   416A      5.148441  
     417A      5.158663   418A      5.185451   419A      5.192245  
     420A      5.219502   421A      5.247351   422A      5.303891  
     423A      5.314430   424A      5.338211   425A      5.346346  
     426A      5.366282   427A      5.387539   428A      5.394689  
     429A      5.421184   430A      5.428213   431A      5.466043  
     432A      5.494132   433A      5.536707   434A      5.549303  
     435A      5.581924   436A      5.610634   437A      5.632857  
     438A      5.669254   439A      5.700971   440A      5.745029  
     441A      5.818437   442A      5.858873   443A      5.865787  
     444A      5.919475   445A      5.932156   446A      5.951227  
     447A      5.980379   448A      6.012469   449A      6.031896  
     450A      6.033668   451A      6.106509   452A      6.113747  
     453A      6.132530   454A      6.162890   455A      6.200009  
     456A      6.277794   457A      6.291507   458A      6.315573  
     459A      6.339329   460A      6.348200   461A      6.366762  
     462A      6.387236   463A      6.453971   464A      6.484978  
     465A      6.539020   466A      6.548637   467A      6.573252  
     468A      6.625253   469A      6.664817   470A      6.677103  
     471A      6.708311   472A      6.731731   473A      6.778256  
     474A      6.815293   475A      6.840939   476A      6.865925  
     477A      6.903047   478A      6.911168   479A      6.916932  
     480A      6.941624   481A      6.949685   482A      6.980862  
     483A      7.007111   484A      7.025675   485A      7.063754  
     486A      7.091274   487A      7.181595   488A      7.213988  
     489A      7.247454   490A      7.288281   491A      7.296334  
     492A      7.353260   493A      7.361162   494A      7.399894  
     495A      7.410925   496A      7.432735   497A      7.492301  
     498A      7.528157   499A      7.544032   500A      7.654527  
     501A      7.660723   502A      7.724655   503A      7.730770  
     504A      7.759673   505A      7.788236   506A      7.804670  
     507A      7.814461   508A      7.840662   509A      7.869824  
     510A      7.905309   511A      7.959683   512A      7.992831  
     513A      8.041442   514A      8.085057   515A      8.212976  
     516A      8.234260   517A      8.305623   518A      8.340797  
     519A      8.387758   520A      8.407866   521A      8.442397  
     522A      8.460915   523A      8.532891   524A      8.591147  
     525A      8.605915   526A      8.616480   527A      8.636711  
     528A      8.685598   529A      8.731441   530A      8.794559  
     531A      8.806793   532A      8.809306   533A      8.825302  
     534A      8.854992   535A      8.930599   536A      8.955327  
     537A      9.000807   538A      9.027889   539A      9.051137  
     540A      9.090340   541A      9.214897   542A      9.462557  
     543A      9.495844   544A      9.539162   545A      9.566103  
     546A      9.570397   547A      9.588269   548A      9.632647  
     549A      9.699818   550A      9.743189   551A      9.791585  
     552A      9.890384   553A      9.955384   554A      9.972283  
     555A     10.072266   556A     10.092575   557A     10.132167  
     558A     10.154806   559A     10.180141   560A     10.257724  
     561A     10.343426   562A     10.383298   563A     10.480824  
     564A     10.841162   565A     10.914984   566A     10.974914  
     567A     11.020419   568A     11.034961   569A     11.072668  
     570A     11.086977   571A     11.090295   572A     11.103411  
     573A     11.123685   574A     11.189023   575A     11.200192  
     576A     11.270276   577A     11.344766   578A     11.379271  
     579A     11.477678   580A     11.658771   581A     11.666766  
     582A     11.738599   583A     11.824136   584A     11.838568  
     585A     11.873102   586A     11.892578   587A     11.911523  
     588A     11.916411   589A     11.923283   590A     11.947137  
     591A     11.950839   592A     11.986166   593A     11.995404  
     594A     12.038119   595A     12.046595   596A     12.060167  
     597A     12.079321   598A     12.087132   599A     12.135615  
     600A     12.152395   601A     12.161850   602A     12.175896  
     603A     12.206547   604A     12.215917   605A     12.237378  
     606A     12.313021   607A     12.371546   608A     12.395593  
     609A     12.434218   610A     12.457143   611A     12.506684  
     612A     12.520813   613A     12.611591   614A     12.728995  
     615A     12.844479   616A     12.927787   617A     13.107775  
     618A     13.124356   619A     13.159085   620A     13.209484  
     621A     13.214726   622A     13.279266   623A     13.343847  
     624A     13.404273   625A     13.497787   626A     13.535971  
     627A     13.707065   628A     13.905917   629A     13.944218  
     630A     14.066601   631A     14.138429   632A     14.183445  
     633A     14.229857   634A     14.276781   635A     14.290161  
     636A     14.298119   637A     14.319008   638A     14.336814  
     639A     14.366269   640A     14.384468   641A     14.437066  
     642A     14.449900   643A     14.490802   644A     14.514651  
     645A     14.531993   646A     14.622478   647A     14.657464  
     648A     14.666673   649A     14.686908   650A     14.706105  
     651A     14.787471   652A     14.788646   653A     14.853980  
     654A     14.909553   655A     15.032997   656A     15.042956  
     657A     15.094398   658A     15.132486   659A     15.224867  
     660A     15.231913   661A     15.499904   662A     15.659521  
     663A     15.933201   664A     16.202869   665A     16.284064  
     666A     16.356474   667A     16.930234   668A     17.324672  
     669A     17.590768   670A     17.632356   671A     17.744764  
     672A     17.766645   673A     17.790328   674A     17.816065  
     675A     17.828807   676A     17.868708   677A     17.906098  
     678A     17.963768   679A     18.211262   680A     18.434333  
     681A     18.531799   682A     18.547713   683A     18.668497  
     684A     18.720817   685A     18.754552   686A     19.682750  
     687A     19.765985   688A     19.818502   689A     20.539802  
     690A     20.883721   691A     21.003530   692A     21.648468  
     693A     21.894084   694A     21.944826   695A     21.977511  
     696A     22.659278   697A     22.701445   698A     22.935434  
     699A     23.018404   700A     23.046721   701A     23.476073  
     702A     24.080592   703A     24.175009   704A     24.872314  
     705A     25.558407   706A     25.793953   707A     25.812006  
     708A     33.655308   709A     45.608610   710A    122.679487  
     711A    123.867132   712A    124.082020   713A    124.156157  
     714A    124.766234  

    Final Occupation by Irrep:
              A 
    DOCC [     5 ]

  @DF-RHF Final Energy:   -76.06526230311522

   => Energetics <=

    Nuclear Repulsion Energy =              9.1160211520317347
    One-Electron Energy =                -122.9223483488675157
    Two-Electron Energy =                  37.7410648937205622
    Total Energy =                        -76.0652623031152189

Computation Completed


Properties will be evaluated at   0.000000,   0.000000,   0.000000 [a0]

Properties computed using the SCF density matrix

  Nuclear Dipole Moment: [e a0]
     X:     8.9066      Y:   -24.6431      Z:    62.0675

  Electronic Dipole Moment: [e a0]
     X:    -9.3983      Y:    25.0415      Z:   -61.6190

  Dipole Moment: [e a0]
     X:    -0.4917      Y:     0.3984      Z:     0.4485     Total:     0.7756

  Dipole Moment: [D]
     X:    -1.2497      Y:     1.0125      Z:     1.1399     Total:     1.9714


*** tstop() called on node95.bme.utexas.edu at Thu Apr 23 18:40:28 2020
Module time:
	user time   =     121.57 seconds =       2.03 minutes
	system time =       2.38 seconds =       0.04 minutes
	total time  =         18 seconds =       0.30 minutes
Total time:
	user time   =     202.40 seconds =       3.37 minutes
	system time =       4.59 seconds =       0.08 minutes
	total time  =         31 seconds =       0.52 minutes

*** tstart() called on node95.bme.utexas.edu
*** at Thu Apr 23 18:40:28 2020


  //>>>>>>>>>>>>>>>>>>>>>>>>>>>>>>>>>>>//
  //               DFMP2               //
  //<<<<<<<<<<<<<<<<<<<<<<<<<<<<<<<<<<<//

   => Loading Basis Set <=

    Name: (AUG-CC-PVQZ AUX)
    Role: RIFIT
    Keyword: DF_BASIS_MP2
    atoms 1          entry P          line   734 file /home/liuchw/anaconda3/envs/psi4env/share/psi4/basis/aug-cc-pvqz-ri.gbs 
    atoms 2-5, 9     entry O          line   332 file /home/liuchw/anaconda3/envs/psi4env/share/psi4/basis/aug-cc-pvqz-ri.gbs 
    atoms 6-8, 10-11 entry H          line    30 file /home/liuchw/anaconda3/envs/psi4env/share/psi4/basis/aug-cc-pvqz-ri.gbs 

	 --------------------------------------------------------
	                          DF-MP2                         
	      2nd-Order Density-Fitted Moller-Plesset Theory     
	              RMP2 Wavefunction,   8 Threads             
	                                                         
	        Rob Parrish, Justin Turney, Andy Simmonett,      
	           Ed Hohenstein, and C. David Sherrill          
	 --------------------------------------------------------

   => Auxiliary Basis Set <=

  Basis Set: (AUG-CC-PVQZ AUX)
    Blend: AUG-CC-PVQZ-RI
    Number of shells: 324
    Number of basis function: 1434
    Number of Cartesian functions: 1978
    Spherical Harmonics?: true
    Max angular momentum: 5

	 --------------------------------------------------------
	                 NBF =   714, NAUX =  1434
	 --------------------------------------------------------
	   CLASS    FOCC     OCC    AOCC    AVIR     VIR    FVIR
	   PAIRS       0       5       5     709     709       0
	 --------------------------------------------------------

	-----------------------------------------------------------
	 ==================> DF-MP2 Energies <==================== 
	-----------------------------------------------------------
	 Reference Energy          =     -76.0652623031152189 [Eh]
	 Singles Energy            =      -0.0000000000000000 [Eh]
	 Same-Spin Energy          =      -0.0727900244118707 [Eh]
	 Opposite-Spin Energy      =      -0.2445864824125267 [Eh]
	 Correlation Energy        =      -0.3173765068243974 [Eh]
	 Total Energy              =     -76.3826388099396212 [Eh]
	-----------------------------------------------------------
	 ================> DF-SCS-MP2 Energies <================== 
	-----------------------------------------------------------
	 SCS Same-Spin Scale       =       0.3333333333333333 [-]
[...]
     244A      1.905748   245A      1.920576   246A      1.927859  
     247A      1.935440   248A      1.943319   249A      1.945590  
     250A      1.959896   251A      1.977707   252A      1.986342  
     253A      1.995219   254A      2.004022   255A      2.010444  
     256A      2.020960   257A      2.032096   258A      2.036995  
     259A      2.045546   260A      2.053697   261A      2.071453  
     262A      2.077078   263A      2.085637   264A      2.107927  
     265A      2.117470   266A      2.120303   267A      2.134670  
     268A      2.150209   269A      2.157112   270A      2.163874  
     271A      2.181359   272A      2.189256   273A      2.206491  
     274A      2.208042   275A      2.217589   276A      2.238480  
     277A      2.248783   278A      2.260861   279A      2.263650  
     280A      2.281204   281A      2.285736   282A      2.306283  
     283A      2.315412   284A      2.318436   285A      2.335268  
     286A      2.339226   287A      2.354352   288A      2.372629  
     289A      2.384359   290A      2.391048   291A      2.412841  
     292A      2.422935   293A      2.432095   294A      2.446368  
     295A      2.455477   296A      2.467326   297A      2.498824  
     298A      2.503614   299A      2.512229   300A      2.526196  
     301A      2.531434   302A      2.540337   303A      2.545393  
     304A      2.571264   305A      2.597502   306A      2.619639  
     307A      2.630909   308A      2.648890   309A      2.668775  
     310A      2.688638   311A      2.705107   312A      2.732164  
     313A      2.749882   314A      2.782301   315A      2.812427  
     316A      2.850326   317A      2.864599   318A      2.891448  
     319A      2.925497   320A      2.981288   321A      2.998321  
     322A      3.004883   323A      3.039392   324A      3.063057  
     325A      3.064811   326A      3.085963   327A      3.086244  
     328A      3.103518   329A      3.111543   330A      3.127896  
     331A      3.137784   332A      3.156706   333A      3.161567  
     334A      3.175085   335A      3.183921   336A      3.222973  
     337A      3.231756   338A      3.258230   339A      3.277004  
     340A      3.302553   341A      3.320370   342A      3.334748  
     343A      3.349687   344A      3.376970   345A      3.385207  
     346A      3.390700   347A      3.422286   348A      3.425381  
     349A      3.451474   350A      3.469273   351A      3.501686  
     352A      3.508260   353A      3.534027   354A      3.556165  
     355A      3.563764   356A      3.566670   357A      3.608302  
     358A      3.639273   359A      3.666592   360A      3.679701  
     361A      3.686351   362A      3.707229   363A      3.722165  
     364A      3.735836   365A      3.748867   366A      3.767235  
     367A      3.777042   368A      3.799449   369A      3.810699  
     370A      3.823736   371A      3.842400   372A      3.857773  
     373A      3.874506   374A      3.881328   375A      3.891399  
     376A      3.920492   377A      3.935726   378A      3.940461  
     379A      3.959521   380A      3.981227   381A      3.992782  
     382A      3.998318   383A      4.036217   384A      4.052771  
     385A      4.061538   386A      4.081287   387A      4.108509  
     388A      4.144217   389A      4.155201   390A      4.169423  
     391A      4.193782   392A      4.197804   393A      4.206525  
     394A      4.225392   395A      4.237585   396A      4.243193  
     397A      4.268322   398A      4.275488   399A      4.282290  
     400A      4.288875   401A      4.301112   402A      4.318750  
     403A      4.341174   404A      4.352541   405A      4.362933  
     406A      4.384716   407A      4.390269   408A      4.402121  
     409A      4.408265   410A      4.426028   411A      4.444686  
     412A      4.453376   413A      4.475888   414A      4.490997  
     415A      4.494641   416A      4.507800   417A      4.529012  
     418A      4.545204   419A      4.556978   420A      4.563938  
     421A      4.566904   422A      4.591229   423A      4.634029  
     424A      4.640414   425A      4.648876   426A      4.668303  
     427A      4.672815   428A      4.711572   429A      4.728502  
     430A      4.750058   431A      4.757609   432A      4.760843  
     433A      4.795184   434A      4.809879   435A      4.819204  
     436A      4.833216   437A      4.839311   438A      4.858318  
     439A      4.865226   440A      4.884273   441A      4.896161  
     442A      4.897735   443A      4.920040   444A      4.935252  
     445A      4.959629   446A      4.964927   447A      4.968864  
     448A      5.010490   449A      5.030520   450A      5.047100  
     451A      5.049555   452A      5.076794   453A      5.105163  
     454A      5.115137   455A      5.132698   456A      5.159239  
     457A      5.178470   458A      5.203966   459A      5.216381  
     460A      5.230470   461A      5.242357   462A      5.268577  
     463A      5.296354   464A      5.326667   465A      5.357066  
     466A      5.369001   467A      5.381749   468A      5.393538  
     469A      5.409723   470A      5.434164   471A      5.493843  
     472A      5.513045   473A      5.526156   474A      5.558916  
     475A      5.608680   476A      5.642755   477A      5.645651  
     478A      5.686961   479A      5.723730   480A      5.768494  
     481A      5.793169   482A      5.822711   483A      5.867132  
     484A      5.883736   485A      5.915174   486A      5.942250  
     487A      5.949168   488A      5.985254   489A      5.995672  
     490A      6.023477   491A      6.050226   492A      6.066070  
     493A      6.112656   494A      6.122680   495A      6.172676  
     496A      6.202803   497A      6.214025   498A      6.276767  
     499A      6.324142   500A      6.368175   501A      6.379438  
     502A      6.469044   503A      6.532220   504A      6.592113  
     505A      6.901015   506A      6.910820   507A      6.922651  
     508A      6.937300   509A      6.954097   510A      6.968526  
     511A      6.986724   512A      7.000113   513A      7.034909  
     514A      7.044185   515A      7.108108   516A      7.729498  
     517A      7.804135   518A      7.835037   519A      7.843628  
     520A      7.868075   521A      7.873684   522A      7.891473  
     523A      7.904757   524A      7.913642   525A      7.917345  
     526A      7.937465   527A      7.948599   528A      7.960682  
     529A      7.982612   530A      7.995671   531A      8.002832  
     532A      8.044338   533A      8.102816   534A      8.123279  
     535A      8.156754   536A      8.195539   537A      8.213163  
     538A      8.236987   539A      8.267369   540A      8.310602  
     541A      8.600554   542A      8.683330   543A      8.688302  
     544A      8.692372   545A      8.729362   546A      8.769600  
     547A      8.800182   548A      8.822526   549A      8.845300  
     550A      8.888375   551A      8.904222   552A      8.925686  
     553A      8.957664   554A      8.989484   555A      8.996427  
     556A      9.036538   557A      9.057569   558A      9.072835  
     559A      9.086260   560A      9.146734   561A      9.221385  
     562A      9.241243   563A      9.277230   564A      9.383044  
     565A      9.638234   566A      9.779602   567A      9.851515  
     568A      9.892491   569A      9.933397   570A      9.947688  
     571A      9.967661   572A      9.969949   573A      9.982771  
     574A     10.011237   575A     10.022241   576A     10.083603  
     577A     10.094457   578A     10.133039   579A     10.209462  
     580A     10.294757   581A     10.383667   582A     10.481979  
     583A     10.719264   584A     10.805098   585A     10.814038  
     586A     10.851125   587A     10.885342   588A     10.900895  
     589A     10.919675   590A     10.935033   591A     10.952399  
     592A     10.984734   593A     11.007823   594A     11.031507  
     595A     11.047028   596A     11.052762   597A     11.060978  
     598A     11.071602   599A     11.076647   600A     11.089921  
     601A     11.106221   602A     11.113823   603A     11.137406  
     604A     11.154417   605A     11.158875   606A     11.181614  
     607A     11.207728   608A     11.226871   609A     11.228823  
     610A     11.259338   611A     11.312420   612A     11.332432  
     613A     11.347470   614A     11.351773   615A     11.380543  
     616A     11.426163   617A     11.445589   618A     11.457949  
     619A     11.473930   620A     11.489577   621A     11.504135  
     622A     11.561706   623A     11.676013   624A     11.720409  
     625A     11.731141   626A     11.748210   627A     11.831805  
     628A     11.842353   629A     11.858621   630A     11.887567  
     631A     11.908827   632A     11.926263   633A     11.938252  
     634A     11.975954   635A     12.026083   636A     12.044214  
     637A     12.095760   638A     12.101149   639A     12.122305  
     640A     12.140784   641A     12.167650   642A     12.170043  
     643A     12.185697   644A     12.203357   645A     12.209623  
     646A     12.225963   647A     12.234905   648A     12.238644  
     649A     12.286986   650A     12.308015   651A     12.320875  
     652A     12.325988   653A     12.382084   654A     12.392787  
     655A     12.444195   656A     12.474520   657A     12.525747  
     658A     12.547377   659A     12.559025   660A     12.630006  
     661A     12.661871   662A     12.695623   663A     12.732010  
     664A     12.791845   665A     12.850199   666A     12.872238  
     667A     12.884720   668A     12.913475   669A     12.931894  
     670A     12.964253   671A     13.093218   672A     13.107015  
     673A     13.178746   674A     13.212878   675A     13.306126  
     676A     13.362286   677A     13.401064   678A     13.417355  
     679A     13.438562   680A     13.463973   681A     13.512651  
     682A     13.527906   683A     13.531527   684A     13.562775  
     685A     13.598999   686A     13.672022   687A     13.744650  
     688A     13.948598   689A     14.073476   690A     14.266010  
     691A     14.445331   692A     14.453170   693A     14.580448  
     694A     14.604066   695A     14.614708   696A     14.713410  
     697A     14.740069   698A     14.785426   699A     14.790761  
     700A     14.856575   701A     14.935079   702A     14.969248  
     703A     15.234073   704A     16.933629   705A     17.021936  
     706A     17.224879   707A     17.252014   708A     17.327634  
     709A     21.837939   710A     44.037371   711A     44.877020  
     712A     45.088159   713A     45.414249   714A     45.615363  

    Final Occupation by Irrep:
              A 
    DOCC [    30 ]

  @DF-RHF Final Energy:  -718.32618294404415

   => Energetics <=

    Nuclear Repulsion Energy =            351.9196504665656562
    One-Electron Energy =               -1693.4308397244180924
    Two-Electron Energy =                 623.1850063138083442
    Total Energy =                       -718.3261829440441488

Computation Completed


Properties will be evaluated at   0.000000,   0.000000,   0.000000 [a0]

Properties computed using the SCF density matrix

  Nuclear Dipole Moment: [e a0]
     X:     1.9576      Y:    -1.0317      Z:     4.8634

  Electronic Dipole Moment: [e a0]
     X:    -1.0464      Y:     1.7875      Z:    -4.9014

  Dipole Moment: [e a0]
     X:     0.9112      Y:     0.7558      Z:    -0.0379     Total:     1.1844

  Dipole Moment: [D]
     X:     2.3160      Y:     1.9209      Z:    -0.0964     Total:     3.0105


*** tstop() called on node95.bme.utexas.edu at Thu Apr 23 18:42:26 2020
Module time:
	user time   =     158.82 seconds =       2.65 minutes
	system time =       3.00 seconds =       0.05 minutes
	total time  =         23 seconds =       0.38 minutes
Total time:
	user time   =     957.00 seconds =      15.95 minutes
	system time =      21.03 seconds =       0.35 minutes
	total time  =        149 seconds =       2.48 minutes

*** tstart() called on node95.bme.utexas.edu
*** at Thu Apr 23 18:42:26 2020


  //>>>>>>>>>>>>>>>>>>>>>>>>>>>>>>>>>>>//
  //               DFMP2               //
  //<<<<<<<<<<<<<<<<<<<<<<<<<<<<<<<<<<<//

   => Loading Basis Set <=

    Name: (AUG-CC-PVQZ AUX)
    Role: RIFIT
    Keyword: DF_BASIS_MP2
    atoms 1          entry P          line   734 file /home/liuchw/anaconda3/envs/psi4env/share/psi4/basis/aug-cc-pvqz-ri.gbs 
    atoms 2-5, 9     entry O          line   332 file /home/liuchw/anaconda3/envs/psi4env/share/psi4/basis/aug-cc-pvqz-ri.gbs 
    atoms 6-8, 10-11 entry H          line    30 file /home/liuchw/anaconda3/envs/psi4env/share/psi4/basis/aug-cc-pvqz-ri.gbs 

	 --------------------------------------------------------
	                          DF-MP2                         
	      2nd-Order Density-Fitted Moller-Plesset Theory     
	              RMP2 Wavefunction,   8 Threads             
	                                                         
	        Rob Parrish, Justin Turney, Andy Simmonett,      
	           Ed Hohenstein, and C. David Sherrill          
	 --------------------------------------------------------

   => Auxiliary Basis Set <=

  Basis Set: (AUG-CC-PVQZ AUX)
    Blend: AUG-CC-PVQZ-RI
    Number of shells: 324
    Number of basis function: 1434
    Number of Cartesian functions: 1978
    Spherical Harmonics?: true
    Max angular momentum: 5

	 --------------------------------------------------------
	                 NBF =   714, NAUX =  1434
	 --------------------------------------------------------
	   CLASS    FOCC     OCC    AOCC    AVIR     VIR    FVIR
	   PAIRS       0      30      30     684     684       0
	 --------------------------------------------------------

	-----------------------------------------------------------
	 ==================> DF-MP2 Energies <==================== 
	-----------------------------------------------------------
	 Reference Energy          =    -718.3261829440441488 [Eh]
	 Singles Energy            =      -0.0000000000000000 [Eh]
	 Same-Spin Energy          =      -0.4178554462153328 [Eh]
	 Opposite-Spin Energy      =      -1.2913642241521566 [Eh]
	 Correlation Energy        =      -1.7092196703674893 [Eh]
	 Total Energy              =    -720.0354026144116233 [Eh]
	-----------------------------------------------------------
	 ================> DF-SCS-MP2 Energies <================== 
	-----------------------------------------------------------
	 SCS Same-Spin Scale       =       0.3333333333333333 [-]
	 SCS Opposite-Spin Scale   =       1.2000000000000000 [-]
	 SCS Same-Spin Energy      =      -0.1392851487384442 [Eh]
	 SCS Opposite-Spin Energy  =      -1.5496370689825878 [Eh]
	 SCS Correlation Energy    =      -1.6889222177210321 [Eh]
	 SCS Total Energy          =    -720.0151051617651774 [Eh]
	-----------------------------------------------------------


*** tstop() called on node95.bme.utexas.edu at Thu Apr 23 18:42:42 2020
Module time:
	user time   =      94.06 seconds =       1.57 minutes
	system time =       1.98 seconds =       0.03 minutes
	total time  =         16 seconds =       0.27 minutes
Total time:
	user time   =    1051.07 seconds =      17.52 minutes
	system time =      23.01 seconds =       0.38 minutes
	total time  =        165 seconds =       2.75 minutes

  //>>>>>>>>>>>>>>>>>>>>>>>>>>>>>>>>>>>//
  //  CBS Results: mp2/aug-cc-pv[tq]z  //
  //<<<<<<<<<<<<<<<<<<<<<<<<<<<<<<<<<<<//


   ==> HF <==

   HI-zeta (4) Energy:               -718.326182944044


   ==> Helgaker 2-point correlated extrapolation for method: MP2 <==

   LO-zeta (3) Energy:               -719.819551173906
   HI-zeta (4) Energy:               -720.035402614412
   Alpha (exponent) Value:             3.000000000000
   Extrapolated Energy:              -720.192915827754

   @Extrapolated MP2/(T,Q):          -720.192915827754



   ==> Helgaker 2-point correlated extrapolation for method: HF <==

   LO-zeta (3) Energy:               -718.287975644679
   HI-zeta (4) Energy:               -718.326182944044
   Alpha (exponent) Value:             3.000000000000
   Extrapolated Energy:              -718.354063946283

   @Extrapolated HF/(T,Q):           -718.354063946283


   ==> Components <==

  ---------------------------------------------------------------------------------------------------------
                          Method / Basis                      Rqd      Energy [Eh]   Variable
  ---------------------------------------------------------------------------------------------------------
                              hf / aug-cc-pvtz                  *    -718.28797564   HF TOTAL ENERGY
                             mp2 / aug-cc-pvtz                  *    -719.81955117   MP2 TOTAL ENERGY
                              hf / aug-cc-pvqz                  *    -718.32618294   HF TOTAL ENERGY
                             mp2 / aug-cc-pvqz                  *    -720.03540261   MP2 TOTAL ENERGY
  ---------------------------------------------------------------------------------------------------------

   ==> Stages <==

  ---------------------------------------------------------------------------------------------------------
      Stage               Method / Basis                       Wt      Energy [Eh]   Scheme
  ---------------------------------------------------------------------------------------------------------
        scf                   hf / aug-cc-pvqz                  1    -718.32618294   xtpl_highest_1
       corl                  mp2 / aug-cc-pv[tq]z               1    -720.19291583   corl_xtpl_helgaker_2
       corl                   hf / aug-cc-pv[tq]z              -1    -718.35406395   corl_xtpl_helgaker_2
  ---------------------------------------------------------------------------------------------------------

   ==> CBS <==

  ---------------------------------------------------------------------------------------------------------
      Stage               Method / Basis                               Energy [Eh]   Scheme
  ---------------------------------------------------------------------------------------------------------
        scf                   hf / aug-cc-pvqz                       -718.32618294   xtpl_highest_1
       corl                  mp2 / aug-cc-pv[tq]z                      -1.83885188   corl_xtpl_helgaker_2
      total                  CBS                                     -720.16503483   
  ---------------------------------------------------------------------------------------------------------
   => Loading Basis Set <=

    Name: DEF2-SVP
    Role: ORBITAL
    Keyword: BASIS
    atoms 1          entry P          line   300 file /home/liuchw/anaconda3/envs/psi4env/share/psi4/basis/def2-svp.gbs 
    atoms 2-5, 9     entry O          line   130 file /home/liuchw/anaconda3/envs/psi4env/share/psi4/basis/def2-svp.gbs 
    atoms 6-8, 10-11 entry H          line    15 file /home/liuchw/anaconda3/envs/psi4env/share/psi4/basis/def2-svp.gbs 


       N-Body: Complex Energy (fragments = (1, 2), basis = (1, 2):  -720.16503482551445)

   ==> N-Body: Counterpoise Corrected (CP) energies <==

   n-Body     Total Energy [Eh]       I.E. [kcal/mol]      Delta [kcal/mol]
        1     -720.155601753773        0.000000000000        0.000000000000
        2     -720.165087283901       -5.952260019704       -5.952260019704

   => Loading Basis Set <=

    Name: DEF2-SVP
    Role: ORBITAL
    Keyword: BASIS
    atoms 1          entry P          line   300 file /home/liuchw/anaconda3/envs/psi4env/share/psi4/basis/def2-svp.gbs 
    atoms 2-5, 9     entry O          line   130 file /home/liuchw/anaconda3/envs/psi4env/share/psi4/basis/def2-svp.gbs 
    atoms 6-8, 10-11 entry H          line    15 file /home/liuchw/anaconda3/envs/psi4env/share/psi4/basis/def2-svp.gbs 


    Psi4 stopped on: Thursday, 23 April 2020 06:42PM
    Psi4 wall time for execution: 0:02:45.43

*** Psi4 exiting successfully. Buy a developer a beer!
