
    -----------------------------------------------------------------------
          Psi4: An Open-Source Ab Initio Electronic Structure Package
                               Psi4 1.4a2.dev224 

                         Git: Rev {master} e453b16 


    R. M. Parrish, L. A. Burns, D. G. A. Smith, A. C. Simmonett,
    A. E. DePrince III, E. G. Hohenstein, U. Bozkaya, A. Yu. Sokolov,
    R. Di Remigio, R. M. Richard, J. F. Gonthier, A. M. James,
    H. R. McAlexander, A. Kumar, M. Saitow, X. Wang, B. P. Pritchard,
    P. Verma, H. F. Schaefer III, K. Patkowski, R. A. King, E. F. Valeev,
    F. A. Evangelista, J. M. Turney, T. D. Crawford, and C. D. Sherrill,
    J. Chem. Theory Comput. 13(7) pp 3185--3197 (2017).
    (doi: 10.1021/acs.jctc.7b00174)


                         Additional Contributions by
    P. Kraus, H. Kruse, M. H. Lechner, M. C. Schieber, R. A. Shaw,
    A. Alenaizan, R. Galvelis, Z. L. Glick, S. Lehtola, and J. P. Misiewicz

    -----------------------------------------------------------------------


    Psi4 started on: Saturday, 11 April 2020 04:29PM

    Process ID: 18233
    Host:       node37.bme.utexas.edu
    PSIDATADIR: /home/liuchw/anaconda3/envs/psi4env/share/psi4
    Memory:     500.0 MiB
    Threads:    6
    
  ==> Input File <==

--------------------------------------------------------------------------
#Generated by lconvert.py for cbs job

memory 40 GB

molecule  {
0 1
  P       -0.3304560     0.1646340     0.2641460
  O        1.2077810     0.0802390     0.6534290
  O       -0.4096900     1.4981440    -0.6141910
  O       -1.2567170     0.0483500     1.4080310
  O       -0.5969430    -0.9367150    -0.8511770
  H       -0.2733620     2.2851210    -0.0760630
  H        0.0513860    -0.9020020    -1.5627540
  H        1.2875480    -0.3318580     1.5452470
--
0 1
  O        0.7728310    -0.9513630     2.9233890
  H        0.9327090    -0.6361700     3.8143810
  H       -0.1306090    -0.6658970     2.7059960
units angstrom
no_reorient
symmetry c1
}

set {
scf_type DF
mp2_type DF
e_convergence 7
reference rhf
}

energy('mp2/aug-cc-pv[tq]z', bsse_type='cp')
--------------------------------------------------------------------------

  Memory set to  37.253 GiB by Python driver.

Scratch directory: /scratch//


   ===> N-Body Interaction Abacus <===
        BSSE Treatment:                     cp
        Number of 1-body computations:     4
        Number of 2-body computations:     1

   ==> N-Body: Now computing 1-body complexes <==


       N-Body: Computing complex (1/4) with fragments (2,) in the basis of fragments (2,).


Scratch directory: /scratch//

  //>>>>>>>>>>>>>>>>>>>>>>>>>>>>>>>>>>>//
  //   CBS Setup: mp2/aug-cc-pv[tq]z   //
  //<<<<<<<<<<<<<<<<<<<<<<<<<<<<<<<<<<<//

    Naive listing of computations required.
             hf / aug-cc-pvqz              for  HF TOTAL ENERGY
            mp2 / aug-cc-pvtz              for  MP2 TOTAL ENERGY
            mp2 / aug-cc-pvqz              for  MP2 TOTAL ENERGY
             hf / aug-cc-pvtz              for  HF TOTAL ENERGY
             hf / aug-cc-pvqz              for  HF TOTAL ENERGY

    Enlightened listing of computations required.
            mp2 / aug-cc-pvtz              for  MP2 TOTAL ENERGY
            mp2 / aug-cc-pvqz              for  MP2 TOTAL ENERGY

    Full listing of computations to be obtained (required and bonus).
             hf / aug-cc-pvtz              for  HF TOTAL ENERGY
            mp2 / aug-cc-pvtz              for  MP2 TOTAL ENERGY
             hf / aug-cc-pvqz              for  HF TOTAL ENERGY
            mp2 / aug-cc-pvqz              for  MP2 TOTAL ENERGY

  //>>>>>>>>>>>>>>>>>>>>>>>>>>>>>>>>>>>>//
  // CBS Computation: MP2 / AUG-CC-PVTZ //
  //<<<<<<<<<<<<<<<<<<<<<<<<<<<<<<<<<<<<//


Scratch directory: /scratch//

*** tstart() called on node37.bme.utexas.edu
*** at Sat Apr 11 16:29:08 2020

   => Loading Basis Set <=

    Name: AUG-CC-PVTZ
    Role: ORBITAL
    Keyword: BASIS
    atoms 1   entry O          line   331 file /home/liuchw/anaconda3/envs/psi4env/share/psi4/basis/aug-cc-pvtz.gbs 
    atoms 2-3 entry H          line    40 file /home/liuchw/anaconda3/envs/psi4env/share/psi4/basis/aug-cc-pvtz.gbs 


         ---------------------------------------------------------
                                   SCF
               by Justin Turney, Rob Parrish, Andy Simmonett
                          and Daniel G. A. Smith
                              RHF Reference
                        6 Threads,  38146 MiB Core
         ---------------------------------------------------------

  ==> Geometry <==

    Molecular point group: c1
    Full point group: C1

    Geometry (in Angstrom), charge = 0, multiplicity = 1:

       Center              X                  Y                   Z               Mass       
    ------------   -----------------  -----------------  -----------------  -----------------
         O            0.883839112795    -0.957108231468     2.311663471641    15.994914619570
         H            1.043717112795    -0.641915231468     3.202655471641     1.007825032230
         H           -0.019600887205    -0.671642231468     2.094270471641     1.007825032230

  Running in c1 symmetry.

  Rotational constants: A =     18.10585  B =      0.13098  C =      0.13063 [cm^-1]
  Rotational constants: A = 542799.66824  B =   3926.55270  C =   3916.05148 [MHz]
  Nuclear repulsion =    9.116022942296210

  Charge       = 0
  Multiplicity = 1
  Electrons    = 10
  Nalpha       = 5
  Nbeta        = 5

  ==> Algorithm <==

  SCF Algorithm Type is DF.
  DIIS enabled.
  MOM disabled.
  Fractional occupation disabled.
  Guess Type is SAD.
  Energy threshold   = 1.00e-07
  Density threshold  = 1.00e-08
  Integral threshold = 0.00e+00

  ==> Primary Basis <==

  Basis Set: AUG-CC-PVTZ
    Blend: AUG-CC-PVTZ
    Number of shells: 32
    Number of basis function: 92
    Number of Cartesian functions: 105
    Spherical Harmonics?: true
    Max angular momentum: 3

   => Loading Basis Set <=

    Name: (AUG-CC-PVTZ AUX)
    Role: JKFIT
    Keyword: DF_BASIS_SCF
    atoms 1   entry O          line   286 file /home/liuchw/anaconda3/envs/psi4env/share/psi4/basis/aug-cc-pvtz-jkfit.gbs 
    atoms 2-3 entry H          line    70 file /home/liuchw/anaconda3/envs/psi4env/share/psi4/basis/aug-cc-pvtz-jkfit.gbs 

  ==> Pre-Iterations <==

   -------------------------------------------------------
    Irrep   Nso     Nmo     Nalpha   Nbeta   Ndocc  Nsocc
   -------------------------------------------------------
     A         92      92       0       0       0       0
   -------------------------------------------------------
    Total      92      92       5       5       5       0
   -------------------------------------------------------

  ==> Integral Setup <==

  DFHelper Memory: AOs need 0.015 GiB; user supplied 27.940 GiB. Using in-core AOs.

  ==> MemDFJK: Density-Fitted J/K Matrices <==

    J tasked:                   Yes
    K tasked:                   Yes
    wK tasked:                   No
    OpenMP threads:               6
    Memory [MiB]:             28610
    Algorithm:                 Core
    Schwarz Cutoff:           1E-12
    Mask sparsity (%):       0.0000
    Fitting Condition:        1E-10

   => Auxiliary Basis Set <=

  Basis Set: (AUG-CC-PVTZ AUX)
    Blend: AUG-CC-PVTZ-JKFIT
    Number of shells: 58
    Number of basis function: 196
    Number of Cartesian functions: 241
    Spherical Harmonics?: true
    Max angular momentum: 4

  Minimum eigenvalue in the overlap matrix is 3.8812682351E-04.
  Using Symmetric Orthogonalization.

  SCF Guess: Superposition of Atomic Densities via on-the-fly atomic UHF.

  ==> Iterations <==

                           Total Energy        Delta E     RMS |[F,P]|

   @DF-RHF iter SAD:   -75.46775124320564   -7.54678e+01   0.00000e+00 
   @DF-RHF iter   1:   -75.97538852469710   -5.07637e-01   5.08654e-03 DIIS
   @DF-RHF iter   2:   -76.02765969258036   -5.22712e-02   3.48653e-03 DIIS
   @DF-RHF iter   3:   -76.05946300365703   -3.18033e-02   2.37218e-04 DIIS
   @DF-RHF iter   4:   -76.05986145266037   -3.98449e-04   5.75368e-05 DIIS
   @DF-RHF iter   5:   -76.05988703436549   -2.55817e-05   1.31109e-05 DIIS
   @DF-RHF iter   6:   -76.05988914752008   -2.11315e-06   2.88998e-06 DIIS
   @DF-RHF iter   7:   -76.05988926043297   -1.12913e-07   5.25475e-07 DIIS
   @DF-RHF iter   8:   -76.05988926371023   -3.27726e-09   8.86934e-08 DIIS
   @DF-RHF iter   9:   -76.05988926378430   -7.40670e-11   2.22375e-08 DIIS
   @DF-RHF iter  10:   -76.05988926378868   -4.37694e-12   3.20606e-09 DIIS
  Energy and wave function converged.


  ==> Post-Iterations <==

    Orbital Energies [Eh]
    ---------------------

    Doubly Occupied:                                                      

       1A    -20.568194     2A     -1.348855     3A     -0.715227  
       4A     -0.581567     5A     -0.509422  

    Virtual:                                                              

       6A      0.029392     7A      0.047594     8A      0.136050  
       9A      0.158758    10A      0.174695    11A      0.182766  
      12A      0.227177    13A      0.244553    14A      0.264874  
      15A      0.301215    16A      0.310855    17A      0.365427  
      18A      0.436382    19A      0.465433    20A      0.599807  
      21A      0.656685    22A      0.708861    23A      0.721715  
      24A      0.731920    25A      0.827943    26A      0.844817  
      27A      0.892408    28A      0.911592    29A      0.920629  
      30A      0.921342    31A      0.929344    32A      0.963940  
      33A      1.019137    34A      1.042455    35A      1.082605  
      36A      1.108785    37A      1.173943    38A      1.178469  
      39A      1.262450    40A      1.509411    41A      1.545425  
      42A      1.583861    43A      1.803497    44A      1.806927  
      45A      1.982309    46A      2.112172    47A      2.261308  
      48A      2.315390    49A      2.325962    50A      2.416416  
      51A      2.417932    52A      2.441330    53A      2.478784  
      54A      2.683946    55A      2.700766    56A      2.763186  
      57A      2.827376    58A      2.881260    59A      3.640550  
      60A      3.744787    61A      4.009441    62A      4.079511  
      63A      4.176629    64A      4.235058    65A      4.300932  
      66A      4.376025    67A      4.386475    68A      4.398882  
      69A      4.505986    70A      4.712354    71A      4.820583  
      72A      5.123694    73A      5.141196    74A      5.257229  
      75A      5.308124    76A      5.503924    77A      5.672672  
      78A      6.158786    79A      6.524033    80A      6.712846  
      81A      6.878406    82A      7.133250    83A      7.250949  
      84A      7.305453    85A      7.313322    86A      7.325515  
      87A      7.362943    88A      7.526409    89A      7.894651  
      90A      7.918205    91A      8.772294    92A     15.595317  

    Final Occupation by Irrep:
              A 
    DOCC [     5 ]

  @DF-RHF Final Energy:   -76.05988926378868

   => Energetics <=

    Nuclear Repulsion Energy =              9.1160229422962100
    One-Electron Energy =                -122.9052923186075787
    Two-Electron Energy =                  37.7293801125226835
    Total Energy =                        -76.0598892637886763

Computation Completed


Properties will be evaluated at   0.000000,   0.000000,   0.000000 [a0]

Properties computed using the SCF density matrix

  Nuclear Dipole Moment: [e a0]
     X:    15.2970      Y:   -16.9516      Z:    44.9570

  Electronic Dipole Moment: [e a0]
     X:   -15.7892      Y:    17.3506      Z:   -44.5080

  Dipole Moment: [e a0]
     X:    -0.4922      Y:     0.3989      Z:     0.4490     Total:     0.7765

  Dipole Moment: [D]
     X:    -1.2511      Y:     1.0140      Z:     1.1412     Total:     1.9738


*** tstop() called on node37.bme.utexas.edu at Sat Apr 11 16:29:09 2020
Module time:
	user time   =       4.91 seconds =       0.08 minutes
	system time =       0.33 seconds =       0.01 minutes
	total time  =          1 seconds =       0.02 minutes
Total time:
	user time   =       4.91 seconds =       0.08 minutes
	system time =       0.33 seconds =       0.01 minutes
	total time  =          1 seconds =       0.02 minutes

*** tstart() called on node37.bme.utexas.edu
*** at Sat Apr 11 16:29:09 2020


  //>>>>>>>>>>>>>>>>>>>>>>>>>>>>>>>>>>>//
  //               DFMP2               //
  //<<<<<<<<<<<<<<<<<<<<<<<<<<<<<<<<<<<//

   => Loading Basis Set <=

    Name: (AUG-CC-PVTZ AUX)
    Role: RIFIT
    Keyword: DF_BASIS_MP2
    atoms 1   entry O          line   264 file /home/liuchw/anaconda3/envs/psi4env/share/psi4/basis/aug-cc-pvtz-ri.gbs 
    atoms 2-3 entry H          line    30 file /home/liuchw/anaconda3/envs/psi4env/share/psi4/basis/aug-cc-pvtz-ri.gbs 

	 --------------------------------------------------------
	                          DF-MP2                         
	      2nd-Order Density-Fitted Moller-Plesset Theory     
	              RMP2 Wavefunction,   6 Threads             
	                                                         
	        Rob Parrish, Justin Turney, Andy Simmonett,      
	           Ed Hohenstein, and C. David Sherrill          
	 --------------------------------------------------------

   => Auxiliary Basis Set <=

  Basis Set: (AUG-CC-PVTZ AUX)
    Blend: AUG-CC-PVTZ-RI
    Number of shells: 56
    Number of basis function: 198
    Number of Cartesian functions: 246
    Spherical Harmonics?: true
    Max angular momentum: 4

	 --------------------------------------------------------
	                 NBF =    92, NAUX =   198
	 --------------------------------------------------------
	   CLASS    FOCC     OCC    AOCC    AVIR     VIR    FVIR
	   PAIRS       0       5       5      87      87       0
	 --------------------------------------------------------

	-----------------------------------------------------------
	 ==================> DF-MP2 Energies <==================== 
	-----------------------------------------------------------
	 Reference Energy          =     -76.0598892637886763 [Eh]
	 Singles Energy            =      -0.0000000000000000 [Eh]
	 Same-Spin Energy          =      -0.0684574851053211 [Eh]
	 Opposite-Spin Energy      =      -0.2155279693147234 [Eh]
	 Correlation Energy        =      -0.2839854544200445 [Eh]
	 Total Energy              =     -76.3438747182087241 [Eh]
	-----------------------------------------------------------
	 ================> DF-SCS-MP2 Energies <================== 
	-----------------------------------------------------------
	 SCS Same-Spin Scale       =       0.3333333333333333 [-]
	 SCS Opposite-Spin Scale   =       1.2000000000000000 [-]
	 SCS Same-Spin Energy      =      -0.0228191617017737 [Eh]
	 SCS Opposite-Spin Energy  =      -0.2586335631776681 [Eh]
	 SCS Correlation Energy    =      -0.2814527248794417 [Eh]
	 SCS Total Energy          =     -76.3413419886681197 [Eh]
	-----------------------------------------------------------


*** tstop() called on node37.bme.utexas.edu at Sat Apr 11 16:29:10 2020
Module time:
	user time   =       2.01 seconds =       0.03 minutes
	system time =       0.14 seconds =       0.00 minutes
	total time  =          1 seconds =       0.02 minutes
Total time:
	user time   =       6.92 seconds =       0.12 minutes
	system time =       0.47 seconds =       0.01 minutes
	total time  =          2 seconds =       0.03 minutes

  //>>>>>>>>>>>>>>>>>>>>>>>>>>>>>>>>>>>>//
  // CBS Computation: MP2 / AUG-CC-PVQZ //
  //<<<<<<<<<<<<<<<<<<<<<<<<<<<<<<<<<<<<//


Scratch directory: /scratch//

*** tstart() called on node37.bme.utexas.edu
*** at Sat Apr 11 16:29:10 2020

   => Loading Basis Set <=

    Name: AUG-CC-PVQZ
    Role: ORBITAL
    Keyword: BASIS
    atoms 1   entry O          line   423 file /home/liuchw/anaconda3/envs/psi4env/share/psi4/basis/aug-cc-pvqz.gbs 
    atoms 2-3 entry H          line    40 file /home/liuchw/anaconda3/envs/psi4env/share/psi4/basis/aug-cc-pvqz.gbs 


         ---------------------------------------------------------
                                   SCF
               by Justin Turney, Rob Parrish, Andy Simmonett
                          and Daniel G. A. Smith
                              RHF Reference
                        6 Threads,  38146 MiB Core
         ---------------------------------------------------------

  ==> Geometry <==

    Molecular point group: c1
    Full point group: C1

    Geometry (in Angstrom), charge = 0, multiplicity = 1:

       Center              X                  Y                   Z               Mass       
    ------------   -----------------  -----------------  -----------------  -----------------
         O            0.883839112795    -0.957108231468     2.311663471641    15.994914619570
         H            1.043717112795    -0.641915231468     3.202655471641     1.007825032230
         H           -0.019600887205    -0.671642231468     2.094270471641     1.007825032230

  Running in c1 symmetry.

  Rotational constants: A =     18.10585  B =      0.13098  C =      0.13063 [cm^-1]
  Rotational constants: A = 542799.66824  B =   3926.55270  C =   3916.05148 [MHz]
  Nuclear repulsion =    9.116022942296210

  Charge       = 0
  Multiplicity = 1
  Electrons    = 10
  Nalpha       = 5
  Nbeta        = 5

  ==> Algorithm <==

  SCF Algorithm Type is DF.
  DIIS enabled.
  MOM disabled.
  Fractional occupation disabled.
  Guess Type is SAD.
  Energy threshold   = 1.00e-07
  Density threshold  = 1.00e-08
  Integral threshold = 0.00e+00

  ==> Primary Basis <==

  Basis Set: AUG-CC-PVQZ
    Blend: AUG-CC-PVQZ
    Number of shells: 48
    Number of basis function: 172
    Number of Cartesian functions: 215
    Spherical Harmonics?: true
    Max angular momentum: 4

   => Loading Basis Set <=

    Name: (AUG-CC-PVQZ AUX)
    Role: JKFIT
    Keyword: DF_BASIS_SCF
    atoms 1   entry O          line   318 file /home/liuchw/anaconda3/envs/psi4env/share/psi4/basis/aug-cc-pvqz-jkfit.gbs 
    atoms 2-3 entry H          line    70 file /home/liuchw/anaconda3/envs/psi4env/share/psi4/basis/aug-cc-pvqz-jkfit.gbs 

  ==> Pre-Iterations <==

   -------------------------------------------------------
    Irrep   Nso     Nmo     Nalpha   Nbeta   Ndocc  Nsocc
   -------------------------------------------------------
     A        172     172       0       0       0       0
   -------------------------------------------------------
    Total     172     172       5       5       5       0
   -------------------------------------------------------

  ==> Integral Setup <==

  DFHelper Memory: AOs need 0.074 GiB; user supplied 27.940 GiB. Using in-core AOs.

  ==> MemDFJK: Density-Fitted J/K Matrices <==

    J tasked:                   Yes
    K tasked:                   Yes
    wK tasked:                   No
    OpenMP threads:               6
    Memory [MiB]:             28610
    Algorithm:                 Core
    Schwarz Cutoff:           1E-12
    Mask sparsity (%):       0.0000
    Fitting Condition:        1E-10

   => Auxiliary Basis Set <=

  Basis Set: (AUG-CC-PVQZ AUX)
    Blend: AUG-CC-PVQZ-JKFIT
    Number of shells: 70
    Number of basis function: 294
    Number of Cartesian functions: 400
    Spherical Harmonics?: true
    Max angular momentum: 5

  Minimum eigenvalue in the overlap matrix is 8.8370354447E-05.
  Using Symmetric Orthogonalization.

  SCF Guess: Superposition of Atomic Densities via on-the-fly atomic UHF.

  ==> Iterations <==

                           Total Energy        Delta E     RMS |[F,P]|

   @DF-RHF iter SAD:   -75.47288693654718   -7.54729e+01   0.00000e+00 
   @DF-RHF iter   1:   -75.98044014260843   -5.07553e-01   2.72662e-03 DIIS
   @DF-RHF iter   2:   -76.03280984979178   -5.23697e-02   1.87306e-03 DIIS
   @DF-RHF iter   3:   -76.06481177489391   -3.20019e-02   1.27843e-04 DIIS
   @DF-RHF iter   4:   -76.06521236488857   -4.00590e-04   3.17099e-05 DIIS
   @DF-RHF iter   5:   -76.06523889326127   -2.65284e-05   7.19904e-06 DIIS
   @DF-RHF iter   6:   -76.06524109325767   -2.20000e-06   1.63049e-06 DIIS
   @DF-RHF iter   7:   -76.06524121837016   -1.25112e-07   3.06290e-07 DIIS
   @DF-RHF iter   8:   -76.06524122224850   -3.87834e-09   4.97445e-08 DIIS
   @DF-RHF iter   9:   -76.06524122233148   -8.29772e-11   1.21646e-08 DIIS
   @DF-RHF iter  10:   -76.06524122233643   -4.94538e-12   1.79055e-09 DIIS
  Energy and wave function converged.


  ==> Post-Iterations <==

    Orbital Energies [Eh]
    ---------------------

    Doubly Occupied:                                                      

       1A    -20.565730     2A     -1.348124     3A     -0.715192  
       4A     -0.581615     5A     -0.509555  

    Virtual:                                                              

       6A      0.026910     7A      0.043002     8A      0.114283  
       9A      0.133466    10A      0.150718    11A      0.158395  
      12A      0.185036    13A      0.196918    14A      0.208917  
      15A      0.238397    16A      0.257633    17A      0.290989  
      18A      0.356565    19A      0.389139    20A      0.470172  
      21A      0.507853    22A      0.542356    23A      0.546624  
      24A      0.555822    25A      0.613573    26A      0.633441  
      27A      0.647815    28A      0.663378    29A      0.666557  
      30A      0.686548    31A      0.706202    32A      0.716792  
      33A      0.768995    34A      0.785620    35A      0.802948  
      36A      0.803157    37A      0.844529    38A      0.855123  
      39A      0.968770    40A      1.130109    41A      1.134619  
      42A      1.208954    43A      1.330185    44A      1.429898  
      45A      1.479135    46A      1.508131    47A      1.513208  
      48A      1.526947    49A      1.554331    50A      1.594142  
      51A      1.618733    52A      1.634929    53A      1.663123  
      54A      1.665613    55A      1.689383    56A      1.702880  
      57A      1.730307    58A      1.756350    59A      1.771471  
      60A      1.780646    61A      1.835617    62A      1.865201  
      63A      1.888583    64A      1.908961    65A      1.969246  
      66A      2.012229    67A      2.033163    68A      2.033573  
      69A      2.102522    70A      2.209566    71A      2.220505  
      72A      2.308409    73A      2.452667    74A      2.624950  
      75A      2.628623    76A      2.880155    77A      2.951565  
      78A      2.996486    79A      3.032833    80A      3.053509  
      81A      3.081431    82A      3.272026    83A      3.280240  
      84A      3.296208    85A      3.500706    86A      3.589868  
      87A      3.644655    88A      3.688079    89A      3.717612  
      90A      3.752217    91A      3.923659    92A      4.074968  
      93A      4.164669    94A      4.171070    95A      4.177220  
      96A      4.180737    97A      4.243046    98A      4.330878  
      99A      4.430182   100A      4.567361   101A      4.693950  
     102A      4.745766   103A      4.785474   104A      4.794761  
     105A      4.804984   106A      4.871214   107A      4.994783  
     108A      5.247331   109A      5.313774   110A      5.508626  
     111A      5.514454   112A      5.851266   113A      5.871453  
     114A      6.065671   115A      6.215779   116A      6.830952  
     117A      6.857117   118A      6.867593   119A      6.922422  
     120A      7.701362   121A      7.781402   122A      7.782912  
     123A      7.814939   124A      7.829123   125A      7.898450  
     126A      7.928589   127A      8.012659   128A      8.191705  
     129A      8.235081   130A      8.519066   131A      8.622706  
     132A      8.645310   133A      8.721269   134A      8.766651  
     135A      8.844520   136A      8.988808   137A      9.038429  
     138A      9.175017   139A      9.612459   140A      9.842718  
     141A      9.903395   142A      9.907744   143A      9.985326  
     144A     10.341190   145A     10.446289   146A     10.697755  
     147A     11.004042   148A     11.058712   149A     11.107016  
     150A     11.267519   151A     11.323271   152A     11.413733  
     153A     11.694913   154A     11.785065   155A     11.836844  
     156A     11.986196   157A     12.186531   158A     12.190683  
     159A     12.568980   160A     12.703462   161A     12.806761  
     162A     12.889524   163A     13.194318   164A     13.935844  
     165A     13.997186   166A     14.441972   167A     14.777499  
     168A     14.839796   169A     15.203982   170A     16.815897  
     171A     17.234715   172A     45.430185  

    Final Occupation by Irrep:
              A 
    DOCC [     5 ]

  @DF-RHF Final Energy:   -76.06524122233643

   => Energetics <=

    Nuclear Repulsion Energy =              9.1160229422962100
    One-Electron Energy =                -122.9220969514350941
    Two-Electron Energy =                  37.7408327868024642
    Total Energy =                        -76.0652412223364252

Computation Completed


Properties will be evaluated at   0.000000,   0.000000,   0.000000 [a0]

Properties computed using the SCF density matrix

  Nuclear Dipole Moment: [e a0]
     X:    15.2970      Y:   -16.9516      Z:    44.9570

  Electronic Dipole Moment: [e a0]
     X:   -15.7887      Y:    17.3501      Z:   -44.5085

  Dipole Moment: [e a0]
     X:    -0.4917      Y:     0.3985      Z:     0.4485     Total:     0.7757

  Dipole Moment: [D]
     X:    -1.2497      Y:     1.0129      Z:     1.1399     Total:     1.9716


*** tstop() called on node37.bme.utexas.edu at Sat Apr 11 16:29:11 2020
Module time:
	user time   =       8.30 seconds =       0.14 minutes
	system time =       0.54 seconds =       0.01 minutes
	total time  =          1 seconds =       0.02 minutes
Total time:
	user time   =      15.27 seconds =       0.25 minutes
	system time =       1.01 seconds =       0.02 minutes
	total time  =          3 seconds =       0.05 minutes

*** tstart() called on node37.bme.utexas.edu
*** at Sat Apr 11 16:29:11 2020


  //>>>>>>>>>>>>>>>>>>>>>>>>>>>>>>>>>>>//
  //               DFMP2               //
  //<<<<<<<<<<<<<<<<<<<<<<<<<<<<<<<<<<<//

   => Loading Basis Set <=

    Name: (AUG-CC-PVQZ AUX)
    Role: RIFIT
    Keyword: DF_BASIS_MP2
    atoms 1   entry O          line   332 file /home/liuchw/anaconda3/envs/psi4env/share/psi4/basis/aug-cc-pvqz-ri.gbs 
    atoms 2-3 entry H          line    30 file /home/liuchw/anaconda3/envs/psi4env/share/psi4/basis/aug-cc-pvqz-ri.gbs 

	 --------------------------------------------------------
	                          DF-MP2                         
	      2nd-Order Density-Fitted Moller-Plesset Theory     
	              RMP2 Wavefunction,   6 Threads             
	                                                         
	        Rob Parrish, Justin Turney, Andy Simmonett,      
	           Ed Hohenstein, and C. David Sherrill          
	 --------------------------------------------------------

   => Auxiliary Basis Set <=

  Basis Set: (AUG-CC-PVQZ AUX)
    Blend: AUG-CC-PVQZ-RI
    Number of shells: 76
    Number of basis function: 328
    Number of Cartesian functions: 447
    Spherical Harmonics?: true
    Max angular momentum: 5

	 --------------------------------------------------------
	                 NBF =   172, NAUX =   328
	 --------------------------------------------------------
	   CLASS    FOCC     OCC    AOCC    AVIR     VIR    FVIR
	   PAIRS       0       5       5     167     167       0
	 --------------------------------------------------------

	-----------------------------------------------------------
	 ==================> DF-MP2 Energies <==================== 
	-----------------------------------------------------------
	 Reference Energy          =     -76.0652412223364252 [Eh]
	 Singles Energy            =      -0.0000000000000000 [Eh]
	 Same-Spin Energy          =      -0.0727782995331422 [Eh]
	 Opposite-Spin Energy      =      -0.2444811360465559 [Eh]
	 Correlation Energy        =      -0.3172594355796981 [Eh]
	 Total Energy              =     -76.3825006579161254 [Eh]
	-----------------------------------------------------------
	 ================> DF-SCS-MP2 Energies <================== 
	-----------------------------------------------------------
	 SCS Same-Spin Scale       =       0.3333333333333333 [-]
	 SCS Opposite-Spin Scale   =       1.2000000000000000 [-]
	 SCS Same-Spin Energy      =      -0.0242594331777141 [Eh]
	 SCS Opposite-Spin Energy  =      -0.2933773632558671 [Eh]
	 SCS Correlation Energy    =      -0.3176367964335812 [Eh]
	 SCS Total Energy          =     -76.3828780187700005 [Eh]
	-----------------------------------------------------------


*** tstop() called on node37.bme.utexas.edu at Sat Apr 11 16:29:12 2020
Module time:
	user time   =       2.95 seconds =       0.05 minutes
	system time =       0.20 seconds =       0.00 minutes
	total time  =          1 seconds =       0.02 minutes
Total time:
	user time   =      18.22 seconds =       0.30 minutes
	system time =       1.21 seconds =       0.02 minutes
	total time  =          4 seconds =       0.07 minutes

  //>>>>>>>>>>>>>>>>>>>>>>>>>>>>>>>>>>>//
  //  CBS Results: mp2/aug-cc-pv[tq]z  //
  //<<<<<<<<<<<<<<<<<<<<<<<<<<<<<<<<<<<//


   ==> HF <==

   HI-zeta (4) Energy:               -76.065241222336


   ==> Helgaker 2-point correlated extrapolation for method: MP2 <==

   LO-zeta (3) Energy:               -76.343874718209
   HI-zeta (4) Energy:               -76.382500657916
   Alpha (exponent) Value:             3.000000000000
   Extrapolated Energy:              -76.410687154459

   @Extrapolated MP2/(T,Q):          -76.410687154459



   ==> Helgaker 2-point correlated extrapolation for method: HF <==

   LO-zeta (3) Energy:               -76.059889263789
   HI-zeta (4) Energy:               -76.065241222336
   Alpha (exponent) Value:             3.000000000000
   Extrapolated Energy:              -76.069146705601

   @Extrapolated HF/(T,Q):           -76.069146705601


   ==> Components <==

  ---------------------------------------------------------------------------------------------------------
                          Method / Basis                      Rqd      Energy [Eh]   Variable
  ---------------------------------------------------------------------------------------------------------
                              hf / aug-cc-pvtz                  *     -76.05988926   HF TOTAL ENERGY
                             mp2 / aug-cc-pvtz                  *     -76.34387472   MP2 TOTAL ENERGY
                              hf / aug-cc-pvqz                  *     -76.06524122   HF TOTAL ENERGY
                             mp2 / aug-cc-pvqz                  *     -76.38250066   MP2 TOTAL ENERGY
  ---------------------------------------------------------------------------------------------------------

   ==> Stages <==

  ---------------------------------------------------------------------------------------------------------
      Stage               Method / Basis                       Wt      Energy [Eh]   Scheme
  ---------------------------------------------------------------------------------------------------------
        scf                   hf / aug-cc-pvqz                  1     -76.06524122   xtpl_highest_1
       corl                  mp2 / aug-cc-pv[tq]z               1     -76.41068715   corl_xtpl_helgaker_2
       corl                   hf / aug-cc-pv[tq]z              -1     -76.06914671   corl_xtpl_helgaker_2
  ---------------------------------------------------------------------------------------------------------

   ==> CBS <==

  ---------------------------------------------------------------------------------------------------------
      Stage               Method / Basis                               Energy [Eh]   Scheme
  ---------------------------------------------------------------------------------------------------------
        scf                   hf / aug-cc-pvqz                        -76.06524122   xtpl_highest_1
       corl                  mp2 / aug-cc-pv[tq]z                      -0.34154045   corl_xtpl_helgaker_2
      total                  CBS                                      -76.40678167   
  ---------------------------------------------------------------------------------------------------------
   => Loading Basis Set <=

    Name: DEF2-SVP
    Role: ORBITAL
    Keyword: BASIS
    atoms 1   entry O          line   130 file /home/liuchw/anaconda3/envs/psi4env/share/psi4/basis/def2-svp.gbs 
    atoms 2-3 entry H          line    15 file /home/liuchw/anaconda3/envs/psi4env/share/psi4/basis/def2-svp.gbs 


       N-Body: Complex Energy (fragments = (2,), basis = (2,):   -76.40678167119479)

       N-Body: Computing complex (2/4) with fragments (2,) in the basis of fragments (1, 2).


Scratch directory: /scratch//

  //>>>>>>>>>>>>>>>>>>>>>>>>>>>>>>>>>>>//
  //   CBS Setup: mp2/aug-cc-pv[tq]z   //
  //<<<<<<<<<<<<<<<<<<<<<<<<<<<<<<<<<<<//

    Naive listing of computations required.
             hf / aug-cc-pvqz              for  HF TOTAL ENERGY
            mp2 / aug-cc-pvtz              for  MP2 TOTAL ENERGY
            mp2 / aug-cc-pvqz              for  MP2 TOTAL ENERGY
             hf / aug-cc-pvtz              for  HF TOTAL ENERGY
             hf / aug-cc-pvqz              for  HF TOTAL ENERGY

    Enlightened listing of computations required.
            mp2 / aug-cc-pvtz              for  MP2 TOTAL ENERGY
            mp2 / aug-cc-pvqz              for  MP2 TOTAL ENERGY

    Full listing of computations to be obtained (required and bonus).
             hf / aug-cc-pvtz              for  HF TOTAL ENERGY
            mp2 / aug-cc-pvtz              for  MP2 TOTAL ENERGY
             hf / aug-cc-pvqz              for  HF TOTAL ENERGY
            mp2 / aug-cc-pvqz              for  MP2 TOTAL ENERGY

  //>>>>>>>>>>>>>>>>>>>>>>>>>>>>>>>>>>>>//
  // CBS Computation: MP2 / AUG-CC-PVTZ //
  //<<<<<<<<<<<<<<<<<<<<<<<<<<<<<<<<<<<<//


Scratch directory: /scratch//

*** tstart() called on node37.bme.utexas.edu
*** at Sat Apr 11 16:29:13 2020

   => Loading Basis Set <=

    Name: AUG-CC-PVTZ
    Role: ORBITAL
    Keyword: BASIS
    atoms 1          entry P          line   824 file /home/liuchw/anaconda3/envs/psi4env/share/psi4/basis/aug-cc-pvtz.gbs 
    atoms 2-5, 9     entry O          line   331 file /home/liuchw/anaconda3/envs/psi4env/share/psi4/basis/aug-cc-pvtz.gbs 
    atoms 6-8, 10-11 entry H          line    40 file /home/liuchw/anaconda3/envs/psi4env/share/psi4/basis/aug-cc-pvtz.gbs 


         ---------------------------------------------------------
                                   SCF
               by Justin Turney, Rob Parrish, Andy Simmonett
                          and Daniel G. A. Smith
                              RHF Reference
                        6 Threads,  38146 MiB Core
         ---------------------------------------------------------

  ==> Geometry <==

    Molecular point group: c1
    Full point group: C1

    Geometry (in Angstrom), charge = 0, multiplicity = 1:

       Center              X                  Y                   Z               Mass       
    ------------   -----------------  -----------------  -----------------  -----------------
      Gh(P)          -0.219447887205     0.158888768532    -0.347579528359    30.973761998420
      Gh(O)           1.318789112795     0.074493768532     0.041703471641    15.994914619570
      Gh(O)          -0.298681887205     1.492398768532    -1.225916528359    15.994914619570
      Gh(O)          -1.145708887205     0.042604768532     0.796305471641    15.994914619570
      Gh(O)          -0.485934887205    -0.942460231468    -1.462902528359    15.994914619570
      Gh(H)          -0.162353887205     2.279375768532    -0.687788528359     1.007825032230
      Gh(H)           0.162394112795    -0.907747231468    -2.174479528359     1.007825032230
      Gh(H)           1.398556112795    -0.337603231468     0.933521471641     1.007825032230
         O            0.883839112795    -0.957108231468     2.311663471641    15.994914619570
         H            1.043717112795    -0.641915231468     3.202655471641     1.007825032230
         H           -0.019600887205    -0.671642231468     2.094270471641     1.007825032230

  Running in c1 symmetry.

  Rotational constants: A =      0.15210  B =      0.06352  C =      0.06291 [cm^-1]
  Rotational constants: A =   4559.88793  B =   1904.20684  C =   1886.04720 [MHz]
  Nuclear repulsion =    9.116022942296210

  Charge       = 0
  Multiplicity = 1
  Electrons    = 10
  Nalpha       = 5
  Nbeta        = 5

  ==> Algorithm <==

  SCF Algorithm Type is DF.
  DIIS enabled.
  MOM disabled.
  Fractional occupation disabled.
  Guess Type is SAD.
  Energy threshold   = 1.00e-07
  Density threshold  = 1.00e-08
  Integral threshold = 0.00e+00

  ==> Primary Basis <==

  Basis Set: AUG-CC-PVTZ
    Blend: AUG-CC-PVTZ
    Number of shells: 131
    Number of basis function: 395
    Number of Cartesian functions: 459
    Spherical Harmonics?: true
    Max angular momentum: 3

   => Loading Basis Set <=

    Name: (AUG-CC-PVTZ AUX)
    Role: JKFIT
    Keyword: DF_BASIS_SCF
    atoms 1          entry P          line   644 file /home/liuchw/anaconda3/envs/psi4env/share/psi4/basis/aug-cc-pvtz-jkfit.gbs 
    atoms 2-5, 9     entry O          line   286 file /home/liuchw/anaconda3/envs/psi4env/share/psi4/basis/aug-cc-pvtz-jkfit.gbs 
    atoms 6-8, 10-11 entry H          line    70 file /home/liuchw/anaconda3/envs/psi4env/share/psi4/basis/aug-cc-pvtz-jkfit.gbs 

  ==> Pre-Iterations <==

   -------------------------------------------------------
    Irrep   Nso     Nmo     Nalpha   Nbeta   Ndocc  Nsocc
   -------------------------------------------------------
     A        395     395       0       0       0       0
   -------------------------------------------------------
    Total     395     395       5       5       5       0
   -------------------------------------------------------

  ==> Integral Setup <==

  DFHelper Memory: AOs need 1.053 GiB; user supplied 27.940 GiB. Using in-core AOs.

  ==> MemDFJK: Density-Fitted J/K Matrices <==

    J tasked:                   Yes
    K tasked:                   Yes
    wK tasked:                   No
    OpenMP threads:               6
    Memory [MiB]:             28610
    Algorithm:                 Core
    Schwarz Cutoff:           1E-12
    Mask sparsity (%):       3.1315
    Fitting Condition:        1E-10

   => Auxiliary Basis Set <=

  Basis Set: (AUG-CC-PVTZ AUX)
    Blend: AUG-CC-PVTZ-JKFIT
    Number of shells: 262
    Number of basis function: 896
    Number of Cartesian functions: 1110
    Spherical Harmonics?: true
    Max angular momentum: 4

  Minimum eigenvalue in the overlap matrix is 6.2676934501E-05.
  Using Symmetric Orthogonalization.

  SCF Guess: Superposition of Atomic Densities via on-the-fly atomic UHF.

  ==> Iterations <==

                           Total Energy        Delta E     RMS |[F,P]|

   @DF-RHF iter SAD:   -75.46775117647942   -7.54678e+01   0.00000e+00 
   @DF-RHF iter   1:   -75.97552583512250   -5.07775e-01   1.18487e-03 DIIS
   @DF-RHF iter   2:   -76.02781551735836   -5.22897e-02   8.12143e-04 DIIS
   @DF-RHF iter   3:   -76.05961153572233   -3.17960e-02   5.52708e-05 DIIS
   @DF-RHF iter   4:   -76.06001015219364   -3.98616e-04   1.34208e-05 DIIS
   @DF-RHF iter   5:   -76.06003582841555   -2.56762e-05   3.05913e-06 DIIS
   @DF-RHF iter   6:   -76.06003795067096   -2.12226e-06   6.75449e-07 DIIS
   @DF-RHF iter   7:   -76.06003806459820   -1.13927e-07   1.23310e-07 DIIS
   @DF-RHF iter   8:   -76.06003806793781   -3.33961e-09   2.08153e-08 DIIS
   @DF-RHF iter   9:   -76.06003806801355   -7.57439e-11   5.20426e-09 DIIS
  Energy and wave function converged.


  ==> Post-Iterations <==

    Orbital Energies [Eh]
    ---------------------

    Doubly Occupied:                                                      

       1A    -20.567982     2A     -1.348715     3A     -0.715097  
       4A     -0.581444     5A     -0.509393  

    Virtual:                                                              

       6A      0.020050     7A      0.036532     8A      0.044649  
       9A      0.047484    10A      0.065853    11A      0.072826  
      12A      0.084024    13A      0.085199    14A      0.094320  
      15A      0.133706    16A      0.139926    17A      0.144410  
      18A      0.149247    19A      0.162854    20A      0.165512  
      21A      0.176699    22A      0.184662    23A      0.190042  
      24A      0.191857    25A      0.203686    26A      0.209931  
      27A      0.218415    28A      0.219407    29A      0.229409  
      30A      0.235907    31A      0.256508    32A      0.266203  
      33A      0.275336    34A      0.276689    35A      0.280660  
      36A      0.301369    37A      0.309077    38A      0.339462  
      39A      0.353174    40A      0.359847    41A      0.363644  
      42A      0.365361    43A      0.373316    44A      0.384859  
      45A      0.389702    46A      0.394944    47A      0.403157  
      48A      0.415834    49A      0.426910    50A      0.440614  
      51A      0.451229    52A      0.454253    53A      0.456309  
      54A      0.465594    55A      0.476987    56A      0.488044  
      57A      0.493454    58A      0.495850    59A      0.523458  
      60A      0.542128    61A      0.550731    62A      0.568236  
      63A      0.584779    64A      0.641769    65A      0.681151  
      66A      0.692341    67A      0.695089    68A      0.717474  
      69A      0.724614    70A      0.742680    71A      0.751660  
      72A      0.754738    73A      0.766598    74A      0.773388  
      75A      0.782590    76A      0.794675    77A      0.805431  
      78A      0.814172    79A      0.827926    80A      0.829872  
      81A      0.844890    82A      0.856306    83A      0.862527  
      84A      0.882547    85A      0.888472    86A      0.897114  
      87A      0.907458    88A      0.917440    89A      0.928030  
      90A      0.936413    91A      0.944408    92A      0.946654  
      93A      0.961570    94A      0.963368    95A      0.983753  
      96A      0.991263    97A      0.997468    98A      1.005498  
      99A      1.014515   100A      1.027276   101A      1.032630  
     102A      1.041523   103A      1.051586   104A      1.066908  
     105A      1.079758   106A      1.087271   107A      1.091427  
     108A      1.114097   109A      1.124934   110A      1.134239  
     111A      1.138092   112A      1.164634   113A      1.172178  
     114A      1.185967   115A      1.197072   116A      1.221835  
     117A      1.248708   118A      1.264743   119A      1.279722  
     120A      1.289433   121A      1.300175   122A      1.311071  
     123A      1.328312   124A      1.341180   125A      1.355713  
     126A      1.364105   127A      1.367728   128A      1.390146  
     129A      1.406283   130A      1.435640   131A      1.438364  
     132A      1.454479   133A      1.474587   134A      1.478239  
     135A      1.488518   136A      1.503895   137A      1.520369  
     138A      1.532161   139A      1.550812   140A      1.580572  
     141A      1.590435   142A      1.613034   143A      1.619691  
     144A      1.629462   145A      1.652436   146A      1.672850  
     147A      1.687830   148A      1.710408   149A      1.746626  
     150A      1.772013   151A      1.798435   152A      1.827354  
     153A      1.841947   154A      1.855736   155A      1.858808  
     156A      1.882433   157A      1.892817   158A      1.917277  
     159A      1.939832   160A      1.964363   161A      1.979616  
     162A      1.989030   163A      2.008322   164A      2.070745  
     165A      2.124690   166A      2.145481   167A      2.161879  
     168A      2.168620   169A      2.311873   170A      2.378758  
     171A      2.393779   172A      2.417405   173A      2.437534  
     174A      2.451261   175A      2.463195   176A      2.470862  
     177A      2.505233   178A      2.519061   179A      2.521238  
     180A      2.533267   181A      2.546816   182A      2.562989  
     183A      2.582850   184A      2.588874   185A      2.603723  
     186A      2.615463   187A      2.626274   188A      2.640214  
     189A      2.654456   190A      2.670615   191A      2.689408  
     192A      2.698576   193A      2.706004   194A      2.739149  
     195A      2.746877   196A      2.753871   197A      2.769187  
     198A      2.773481   199A      2.791205   200A      2.798241  
     201A      2.806071   202A      2.832179   203A      2.842471  
     204A      2.859892   205A      2.870954   206A      2.880862  
     207A      2.889254   208A      2.898095   209A      2.919007  
     210A      2.937103   211A      2.957944   212A      2.979360  
     213A      2.996479   214A      3.002120   215A      3.028955  
     216A      3.050466   217A      3.067163   218A      3.098745  
     219A      3.134180   220A      3.154672   221A      3.171435  
     222A      3.199785   223A      3.240311   224A      3.252804  
     225A      3.258982   226A      3.281933   227A      3.294209  
     228A      3.296796   229A      3.319176   230A      3.370310  
     231A      3.371254   232A      3.396858   233A      3.400103  
     234A      3.426737   235A      3.444306   236A      3.498717  
     237A      3.521765   238A      3.535160   239A      3.589502  
     240A      3.637760   241A      3.680626   242A      3.704378  
     243A      3.743929   244A      3.775176   245A      3.860304  
     246A      3.928806   247A      3.995699   248A      4.029413  
     249A      4.035084   250A      4.085942   251A      4.102971  
     252A      4.134385   253A      4.147565   254A      4.199317  
     255A      4.240799   256A      4.304856   257A      4.327742  
     258A      4.334358   259A      4.359834   260A      4.401661  
     261A      4.440681   262A      4.473225   263A      4.529616  
     264A      4.555769   265A      4.568580   266A      4.592126  
     267A      4.610731   268A      4.630884   269A      4.661005  
     270A      4.706382   271A      4.723145   272A      4.776119  
     273A      4.784602   274A      4.841786   275A      4.902082  
     276A      4.959583   277A      4.984851   278A      4.992717  
     279A      5.015243   280A      5.030809   281A      5.065011  
     282A      5.086139   283A      5.092297   284A      5.166344  
     285A      5.223754   286A      5.298028   287A      5.326972  
     288A      5.381386   289A      5.404675   290A      5.436979  
     291A      5.500546   292A      5.582816   293A      5.671831  
     294A      5.723107   295A      5.743469   296A      5.801341  
     297A      5.830764   298A      5.927267   299A      5.968350  
     300A      6.050208   301A      6.143613   302A      6.338784  
     303A      6.381097   304A      6.432327   305A      6.520690  
     306A      6.619645   307A      6.885759   308A      6.902911  
     309A      6.943565   310A      6.964226   311A      7.100801  
     312A      7.295105   313A      7.357217   314A      7.435602  
     315A      7.470580   316A      7.499256   317A      7.602979  
     318A      7.688993   319A      7.709400   320A      7.731450  
     321A      7.753383   322A      7.789265   323A      7.793564  
     324A      7.809256   325A      7.828915   326A      7.841475  
     327A      7.843105   328A      7.859728   329A      7.877200  
     330A      7.894594   331A      7.899401   332A      7.919065  
     333A      7.942043   334A      8.000809   335A      8.041927  
     336A      8.057181   337A      8.102614   338A      8.145524  
     339A      8.208569   340A      8.262040   341A      8.274470  
     342A      8.350022   343A      8.394059   344A      8.444331  
     345A      8.601830   346A      8.644748   347A      8.736981  
     348A      8.828548   349A      8.971123   350A      9.663034  
     351A      9.760691   352A      9.804239   353A      9.824594  
     354A      9.841542   355A      9.901911   356A      9.932338  
     357A      9.989668   358A     10.043589   359A     10.090261  
     360A     10.115193   361A     10.151275   362A     10.184389  
     363A     10.255425   364A     10.265209   365A     10.370699  
     366A     10.424034   367A     10.665892   368A     10.735481  
     369A     10.781390   370A     10.967684   371A     11.628507  
     372A     11.759590   373A     11.817428   374A     11.896105  
     375A     11.924577   376A     12.016287   377A     12.126396  
     378A     12.199749   379A     12.376539   380A     12.573452  
     381A     12.606127   382A     12.938618   383A     13.765990  
     384A     13.940306   385A     14.039527   386A     17.065067  
     387A     18.117319   388A     23.075435   389A     23.239031  
     390A     23.534863   391A     61.243752   392A     63.576950  
     393A     64.370737   394A     65.660996   395A    123.925683  

    Final Occupation by Irrep:
              A 
    DOCC [     5 ]

  @DF-RHF Final Energy:   -76.06003806801355

   => Energetics <=

    Nuclear Repulsion Energy =              9.1160229422962100
    One-Electron Energy =                -122.9068566329077612
    Two-Electron Energy =                  37.7307956225980092
    Total Energy =                        -76.0600380680135402

Computation Completed


Properties will be evaluated at   0.000000,   0.000000,   0.000000 [a0]

Properties computed using the SCF density matrix

  Nuclear Dipole Moment: [e a0]
     X:    15.2970      Y:   -16.9516      Z:    44.9570

  Electronic Dipole Moment: [e a0]
     X:   -15.7890      Y:    17.3499      Z:   -44.5085

  Dipole Moment: [e a0]
     X:    -0.4920      Y:     0.3983      Z:     0.4485     Total:     0.7758

  Dipole Moment: [D]
     X:    -1.2505      Y:     1.0123      Z:     1.1400     Total:     1.9718


*** tstop() called on node37.bme.utexas.edu at Sat Apr 11 16:29:21 2020
Module time:
	user time   =      36.24 seconds =       0.60 minutes
	system time =       2.47 seconds =       0.04 minutes
	total time  =          8 seconds =       0.13 minutes
Total time:
	user time   =      56.27 seconds =       0.94 minutes
	system time =       3.76 seconds =       0.06 minutes
	total time  =         13 seconds =       0.22 minutes

*** tstart() called on node37.bme.utexas.edu
*** at Sat Apr 11 16:29:21 2020


  //>>>>>>>>>>>>>>>>>>>>>>>>>>>>>>>>>>>//
  //               DFMP2               //
  //<<<<<<<<<<<<<<<<<<<<<<<<<<<<<<<<<<<//

   => Loading Basis Set <=

    Name: (AUG-CC-PVTZ AUX)
    Role: RIFIT
    Keyword: DF_BASIS_MP2
    atoms 1          entry P          line   590 file /home/liuchw/anaconda3/envs/psi4env/share/psi4/basis/aug-cc-pvtz-ri.gbs 
    atoms 2-5, 9     entry O          line   264 file /home/liuchw/anaconda3/envs/psi4env/share/psi4/basis/aug-cc-pvtz-ri.gbs 
    atoms 6-8, 10-11 entry H          line    30 file /home/liuchw/anaconda3/envs/psi4env/share/psi4/basis/aug-cc-pvtz-ri.gbs 

	 --------------------------------------------------------
	                          DF-MP2                         
	      2nd-Order Density-Fitted Moller-Plesset Theory     
	              RMP2 Wavefunction,   6 Threads             
	                                                         
	        Rob Parrish, Justin Turney, Andy Simmonett,      
	           Ed Hohenstein, and C. David Sherrill          
	 --------------------------------------------------------

   => Auxiliary Basis Set <=

  Basis Set: (AUG-CC-PVTZ AUX)
    Blend: AUG-CC-PVTZ-RI
    Number of shells: 247
    Number of basis function: 907
    Number of Cartesian functions: 1146
    Spherical Harmonics?: true
    Max angular momentum: 4

	 --------------------------------------------------------
	                 NBF =   395, NAUX =   907
	 --------------------------------------------------------
	   CLASS    FOCC     OCC    AOCC    AVIR     VIR    FVIR
	   PAIRS       0       5       5     390     390       0
	 --------------------------------------------------------

	-----------------------------------------------------------
	 ==================> DF-MP2 Energies <==================== 
	-----------------------------------------------------------
	 Reference Energy          =     -76.0600380680135544 [Eh]
	 Singles Energy            =      -0.0000000000000000 [Eh]
	 Same-Spin Energy          =      -0.0685863106180124 [Eh]
	 Opposite-Spin Energy      =      -0.2169260992648664 [Eh]
	 Correlation Energy        =      -0.2855124098828788 [Eh]
	 Total Energy              =     -76.3455504778964382 [Eh]
	-----------------------------------------------------------
	 ================> DF-SCS-MP2 Energies <================== 
	-----------------------------------------------------------
	 SCS Same-Spin Scale       =       0.3333333333333333 [-]
	 SCS Opposite-Spin Scale   =       1.2000000000000000 [-]
	 SCS Same-Spin Energy      =      -0.0228621035393375 [Eh]
	 SCS Opposite-Spin Energy  =      -0.2603113191178397 [Eh]
	 SCS Correlation Energy    =      -0.2831734226571772 [Eh]
	 SCS Total Energy          =     -76.3432114906707255 [Eh]
	-----------------------------------------------------------


*** tstop() called on node37.bme.utexas.edu at Sat Apr 11 16:29:24 2020
Module time:
	user time   =      16.57 seconds =       0.28 minutes
	system time =       0.85 seconds =       0.01 minutes
	total time  =          3 seconds =       0.05 minutes
Total time:
	user time   =      72.85 seconds =       1.21 minutes
	system time =       4.61 seconds =       0.08 minutes
	total time  =         16 seconds =       0.27 minutes

  //>>>>>>>>>>>>>>>>>>>>>>>>>>>>>>>>>>>>//
  // CBS Computation: MP2 / AUG-CC-PVQZ //
  //<<<<<<<<<<<<<<<<<<<<<<<<<<<<<<<<<<<<//


Scratch directory: /scratch//

*** tstart() called on node37.bme.utexas.edu
*** at Sat Apr 11 16:29:24 2020

   => Loading Basis Set <=

    Name: AUG-CC-PVQZ
    Role: ORBITAL
    Keyword: BASIS
    atoms 1          entry P          line  1030 file /home/liuchw/anaconda3/envs/psi4env/share/psi4/basis/aug-cc-pvqz.gbs 
    atoms 2-5, 9     entry O          line   423 file /home/liuchw/anaconda3/envs/psi4env/share/psi4/basis/aug-cc-pvqz.gbs 
    atoms 6-8, 10-11 entry H          line    40 file /home/liuchw/anaconda3/envs/psi4env/share/psi4/basis/aug-cc-pvqz.gbs 


         ---------------------------------------------------------
                                   SCF
               by Justin Turney, Rob Parrish, Andy Simmonett
                          and Daniel G. A. Smith
                              RHF Reference
                        6 Threads,  38146 MiB Core
         ---------------------------------------------------------

  ==> Geometry <==

    Molecular point group: c1
    Full point group: C1

    Geometry (in Angstrom), charge = 0, multiplicity = 1:

       Center              X                  Y                   Z               Mass       
    ------------   -----------------  -----------------  -----------------  -----------------
      Gh(P)          -0.219447887205     0.158888768532    -0.347579528359    30.973761998420
      Gh(O)           1.318789112795     0.074493768532     0.041703471641    15.994914619570
      Gh(O)          -0.298681887205     1.492398768532    -1.225916528359    15.994914619570
      Gh(O)          -1.145708887205     0.042604768532     0.796305471641    15.994914619570
      Gh(O)          -0.485934887205    -0.942460231468    -1.462902528359    15.994914619570
      Gh(H)          -0.162353887205     2.279375768532    -0.687788528359     1.007825032230
      Gh(H)           0.162394112795    -0.907747231468    -2.174479528359     1.007825032230
      Gh(H)           1.398556112795    -0.337603231468     0.933521471641     1.007825032230
         O            0.883839112795    -0.957108231468     2.311663471641    15.994914619570
         H            1.043717112795    -0.641915231468     3.202655471641     1.007825032230
         H           -0.019600887205    -0.671642231468     2.094270471641     1.007825032230

  Running in c1 symmetry.

  Rotational constants: A =      0.15210  B =      0.06352  C =      0.06291 [cm^-1]
  Rotational constants: A =   4559.88793  B =   1904.20684  C =   1886.04720 [MHz]
  Nuclear repulsion =    9.116022942296210

  Charge       = 0
  Multiplicity = 1
  Electrons    = 10
  Nalpha       = 5
  Nbeta        = 5

  ==> Algorithm <==

  SCF Algorithm Type is DF.
  DIIS enabled.
  MOM disabled.
  Fractional occupation disabled.
  Guess Type is SAD.
  Energy threshold   = 1.00e-07
  Density threshold  = 1.00e-08
  Integral threshold = 0.00e+00

  ==> Primary Basis <==

  Basis Set: AUG-CC-PVQZ
    Blend: AUG-CC-PVQZ
    Number of shells: 192
    Number of basis function: 714
    Number of Cartesian functions: 909
    Spherical Harmonics?: true
    Max angular momentum: 4

   => Loading Basis Set <=

    Name: (AUG-CC-PVQZ AUX)
    Role: JKFIT
    Keyword: DF_BASIS_SCF
    atoms 1          entry P          line   716 file /home/liuchw/anaconda3/envs/psi4env/share/psi4/basis/aug-cc-pvqz-jkfit.gbs 
    atoms 2-5, 9     entry O          line   318 file /home/liuchw/anaconda3/envs/psi4env/share/psi4/basis/aug-cc-pvqz-jkfit.gbs 
    atoms 6-8, 10-11 entry H          line    70 file /home/liuchw/anaconda3/envs/psi4env/share/psi4/basis/aug-cc-pvqz-jkfit.gbs 

  ==> Pre-Iterations <==

   -------------------------------------------------------
    Irrep   Nso     Nmo     Nalpha   Nbeta   Ndocc  Nsocc
   -------------------------------------------------------
     A        714     714       0       0       0       0
   -------------------------------------------------------
    Total     714     714       5       5       5       0
   -------------------------------------------------------

  ==> Integral Setup <==

  DFHelper Memory: AOs need 4.667 GiB; user supplied 27.940 GiB. Using in-core AOs.

  ==> MemDFJK: Density-Fitted J/K Matrices <==

    J tasked:                   Yes
    K tasked:                   Yes
    wK tasked:                   No
    OpenMP threads:               6
    Memory [MiB]:             28610
    Algorithm:                 Core
    Schwarz Cutoff:           1E-12
    Mask sparsity (%):       6.8702
    Fitting Condition:        1E-10

   => Auxiliary Basis Set <=

  Basis Set: (AUG-CC-PVQZ AUX)
    Blend: AUG-CC-PVQZ-JKFIT
    Number of shells: 306
    Number of basis function: 1274
    Number of Cartesian functions: 1742
    Spherical Harmonics?: true
    Max angular momentum: 5

  Minimum eigenvalue in the overlap matrix is 1.1946503366E-05.
  Using Symmetric Orthogonalization.

  SCF Guess: Superposition of Atomic Densities via on-the-fly atomic UHF.

  ==> Iterations <==

                           Total Energy        Delta E     RMS |[F,P]|

   @DF-RHF iter SAD:   -75.47288691490385   -7.54729e+01   0.00000e+00 
   @DF-RHF iter   1:   -75.98049374521950   -5.07607e-01   6.56858e-04 DIIS
   @DF-RHF iter   2:   -76.03286998782141   -5.23762e-02   4.51260e-04 DIIS
   @DF-RHF iter   3:   -76.06486806341833   -3.19981e-02   3.08050e-05 DIIS
   @DF-RHF iter   4:   -76.06526875626426   -4.00693e-04   7.63936e-06 DIIS
   @DF-RHF iter   5:   -76.06529528526842   -2.65290e-05   1.73585e-06 DIIS
   @DF-RHF iter   6:   -76.06529748911824   -2.20385e-06   3.93178e-07 DIIS
   @DF-RHF iter   7:   -76.06529761456011   -1.25442e-07   7.39940e-08 DIIS
   @DF-RHF iter   8:   -76.06529761846907   -3.90897e-09   1.20401e-08 DIIS
   @DF-RHF iter   9:   -76.06529761855344   -8.43698e-11   2.93950e-09 DIIS
  Energy and wave function converged.


  ==> Post-Iterations <==

    Orbital Energies [Eh]
    ---------------------

    Doubly Occupied:                                                      

       1A    -20.565688     2A     -1.348072     3A     -0.715147  
       4A     -0.581576     5A     -0.509537  

    Virtual:                                                              

       6A      0.017663     7A      0.032928     8A      0.040370  
       9A      0.042339    10A      0.059646    11A      0.063673  
      12A      0.071133    13A      0.074132    14A      0.081761  
      15A      0.111493    16A      0.118615    17A      0.124323  
      18A      0.128681    19A      0.138430    20A      0.140166  
      21A      0.150376    22A      0.157668    23A      0.163078  
      24A      0.165839    25A      0.175490    26A      0.179866  
      27A      0.185909    28A      0.188970    29A      0.191675  
      30A      0.201890    31A      0.215104    32A      0.219269  
      33A      0.223771    34A      0.234823    35A      0.242408  
      36A      0.248759    37A      0.253436    38A      0.280907  
      39A      0.289495    40A      0.293325    41A      0.302371  
      42A      0.304263    43A      0.307354    44A      0.320317  
      45A      0.323584    46A      0.330839    47A      0.338958  
      48A      0.341948    49A      0.354226    50A      0.360123  
      51A      0.370111    52A      0.372950    53A      0.377997  
      54A      0.383295    55A      0.393895    56A      0.401539  
      57A      0.407411    58A      0.412061    59A      0.428704  
      60A      0.441517    61A      0.442415    62A      0.448554  
      63A      0.467310    64A      0.490289    65A      0.496773  
      66A      0.511411    67A      0.517617    68A      0.522167  
      69A      0.531269    70A      0.544937    71A      0.548693  
      72A      0.576676    73A      0.583034    74A      0.592334  
      75A      0.599855    76A      0.600882    77A      0.609076  
      78A      0.623708    79A      0.631252    80A      0.637896  
      81A      0.643360    82A      0.647601    83A      0.663669  
      84A      0.665389    85A      0.676369    86A      0.683768  
      87A      0.691708    88A      0.700536    89A      0.707394  
      90A      0.712209    91A      0.730149    92A      0.738236  
      93A      0.740702    94A      0.747992    95A      0.754463  
      96A      0.758786    97A      0.762968    98A      0.772421  
      99A      0.778182   100A      0.783986   101A      0.789156  
     102A      0.795627   103A      0.806782   104A      0.815187  
     105A      0.824375   106A      0.827927   107A      0.832360  
     108A      0.848638   109A      0.850734   110A      0.856089  
     111A      0.864282   112A      0.874238   113A      0.884823  
     114A      0.904413   115A      0.918853   116A      0.927238  
     117A      0.943955   118A      0.946824   119A      0.955949  
     120A      0.971967   121A      0.976604   122A      0.982780  
     123A      0.994137   124A      1.002234   125A      1.005134  
     126A      1.013748   127A      1.031911   128A      1.036855  
     129A      1.049471   130A      1.067107   131A      1.072923  
     132A      1.080965   133A      1.093423   134A      1.097205  
     135A      1.113726   136A      1.126115   137A      1.128220  
     138A      1.146938   139A      1.150458   140A      1.175266  
     141A      1.183825   142A      1.186033   143A      1.202758  
     144A      1.217152   145A      1.228203   146A      1.245567  
     147A      1.255381   148A      1.263676   149A      1.280263  
     150A      1.294481   151A      1.317395   152A      1.332643  
     153A      1.340469   154A      1.348779   155A      1.362180  
     156A      1.382621   157A      1.402960   158A      1.409937  
     159A      1.429542   160A      1.443388   161A      1.448440  
     162A      1.462638   163A      1.475825   164A      1.485349  
     165A      1.502941   166A      1.521372   167A      1.541632  
     168A      1.551329   169A      1.566117   170A      1.580286  
     171A      1.611458   172A      1.613382   173A      1.626183  
     174A      1.628092   175A      1.640156   176A      1.643927  
     177A      1.657197   178A      1.661492   179A      1.665013  
     180A      1.681575   181A      1.684307   182A      1.708377  
     183A      1.711155   184A      1.726360   185A      1.744410  
     186A      1.746479   187A      1.753988   188A      1.760514  
     189A      1.767111   190A      1.780301   191A      1.785939  
     192A      1.797524   193A      1.804041   194A      1.811128  
     195A      1.815610   196A      1.820777   197A      1.837684  
     198A      1.848144   199A      1.849688   200A      1.857010  
     201A      1.868614   202A      1.878824   203A      1.892726  
     204A      1.895665   205A      1.902918   206A      1.907344  
     207A      1.922671   208A      1.934523   209A      1.945524  
     210A      1.955042   211A      1.961523   212A      1.967791  
     213A      1.973975   214A      1.982902   215A      2.007459  
     216A      2.015373   217A      2.019892   218A      2.036240  
     219A      2.044539   220A      2.052068   221A      2.061624  
     222A      2.064412   223A      2.081318   224A      2.087260  
     225A      2.092104   226A      2.107904   227A      2.112187  
     228A      2.121008   229A      2.130103   230A      2.147160  
     231A      2.148978   232A      2.159059   233A      2.181444  
     234A      2.187432   235A      2.202368   236A      2.219028  
     237A      2.226797   238A      2.250067   239A      2.267600  
     240A      2.279800   241A      2.295338   242A      2.304134  
     243A      2.306889   244A      2.322609   245A      2.332126  
     246A      2.349170   247A      2.366555   248A      2.375047  
     249A      2.384811   250A      2.401195   251A      2.411866  
     252A      2.412624   253A      2.436190   254A      2.445500  
     255A      2.457037   256A      2.497360   257A      2.502509  
     258A      2.509280   259A      2.529827   260A      2.536311  
     261A      2.547334   262A      2.549728   263A      2.573916  
     264A      2.589999   265A      2.597808   266A      2.622177  
     267A      2.636469   268A      2.642149   269A      2.658510  
     270A      2.673285   271A      2.684267   272A      2.698478  
     273A      2.710963   274A      2.716273   275A      2.722887  
     276A      2.764913   277A      2.768069   278A      2.784724  
     279A      2.798751   280A      2.807929   281A      2.830285  
     282A      2.858120   283A      2.876254   284A      2.902594  
     285A      2.919967   286A      2.953213   287A      2.956344  
     288A      2.995613   289A      3.009959   290A      3.016049  
     291A      3.025925   292A      3.067715   293A      3.091745  
     294A      3.094493   295A      3.112262   296A      3.126691  
     297A      3.159243   298A      3.174558   299A      3.198606  
     300A      3.218095   301A      3.226198   302A      3.234565  
     303A      3.244386   304A      3.274744   305A      3.302551  
     306A      3.320625   307A      3.336108   308A      3.369214  
     309A      3.381406   310A      3.393770   311A      3.404071  
     312A      3.418691   313A      3.457239   314A      3.470031  
     315A      3.478401   316A      3.496472   317A      3.532050  
     318A      3.539520   319A      3.553858   320A      3.580769  
     321A      3.589712   322A      3.597016   323A      3.617563  
     324A      3.645155   325A      3.662848   326A      3.690733  
     327A      3.708417   328A      3.717490   329A      3.745336  
     330A      3.785099   331A      3.801132   332A      3.807105  
     333A      3.844571   334A      3.870437   335A      3.922686  
     336A      3.950528   337A      3.960459   338A      3.975425  
     339A      3.998118   340A      4.009712   341A      4.055885  
     342A      4.065649   343A      4.090899   344A      4.095488  
     345A      4.114935   346A      4.130332   347A      4.135847  
     348A      4.156209   349A      4.182164   350A      4.193523  
     351A      4.217312   352A      4.245616   353A      4.275023  
     354A      4.298180   355A      4.304902   356A      4.324263  
     357A      4.341025   358A      4.353221   359A      4.379016  
     360A      4.407216   361A      4.417988   362A      4.436946  
     363A      4.449218   364A      4.454596   365A      4.471572  
     366A      4.480054   367A      4.518522   368A      4.522057  
     369A      4.528592   370A      4.545617   371A      4.553940  
     372A      4.583420   373A      4.598402   374A      4.616942  
     375A      4.623464   376A      4.643780   377A      4.654617  
     378A      4.681924   379A      4.691854   380A      4.694501  
     381A      4.716629   382A      4.731526   383A      4.746025  
     384A      4.768427   385A      4.782203   386A      4.796139  
     387A      4.814706   388A      4.823800   389A      4.840457  
     390A      4.862119   391A      4.875339   392A      4.899734  
     393A      4.912706   394A      4.915672   395A      4.935861  
     396A      4.943079   397A      4.956978   398A      4.967856  
     399A      4.985172   400A      4.996885   401A      5.020324  
     402A      5.037537   403A      5.051384   404A      5.085177  
     405A      5.097889   406A      5.116487   407A      5.127841  
     408A      5.142592   409A      5.166228   410A      5.181285  
     411A      5.209281   412A      5.221906   413A      5.228633  
     414A      5.237861   415A      5.253960   416A      5.289609  
     417A      5.308373   418A      5.324222   419A      5.352201  
     420A      5.354489   421A      5.370977   422A      5.405639  
     423A      5.438098   424A      5.470920   425A      5.483900  
     426A      5.530509   427A      5.562539   428A      5.568987  
     429A      5.573846   430A      5.608573   431A      5.624473  
     432A      5.649294   433A      5.671370   434A      5.703319  
     435A      5.741558   436A      5.759892   437A      5.791064  
     438A      5.824561   439A      5.828954   440A      5.896869  
     441A      5.950732   442A      5.977517   443A      6.012246  
     444A      6.040190   445A      6.058143   446A      6.079564  
     447A      6.103094   448A      6.138095   449A      6.148058  
     450A      6.197476   451A      6.219814   452A      6.238556  
     453A      6.264516   454A      6.291768   455A      6.312527  
     456A      6.353517   457A      6.371722   458A      6.399890  
     459A      6.431839   460A      6.444590   461A      6.479085  
     462A      6.516857   463A      6.548957   464A      6.574849  
     465A      6.586570   466A      6.645655   467A      6.656206  
     468A      6.696763   469A      6.715565   470A      6.779600  
     471A      6.793894   472A      6.827950   473A      6.860943  
     474A      6.880833   475A      6.900540   476A      6.949273  
     477A      6.968917   478A      6.986059   479A      7.022208  
     480A      7.030638   481A      7.066303   482A      7.108443  
     483A      7.136730   484A      7.148423   485A      7.185089  
     486A      7.225647   487A      7.261137   488A      7.290489  
     489A      7.323040   490A      7.355148   491A      7.377919  
     492A      7.419077   493A      7.426929   494A      7.458425  
     495A      7.475661   496A      7.487747   497A      7.537050  
     498A      7.607763   499A      7.646535   500A      7.691001  
     501A      7.746982   502A      7.778718   503A      7.803001  
     504A      7.813250   505A      7.827404   506A      7.885185  
     507A      7.947928   508A      8.010861   509A      8.049931  
     510A      8.062755   511A      8.124108   512A      8.169098  
     513A      8.182522   514A      8.254752   515A      8.312161  
     516A      8.396121   517A      8.418827   518A      8.435436  
     519A      8.446640   520A      8.527870   521A      8.542434  
     522A      8.602342   523A      8.614053   524A      8.629581  
     525A      8.728285   526A      8.796722   527A      8.822251  
     528A      8.836423   529A      8.890619   530A      8.912799  
     531A      8.961279   532A      8.992300   533A      9.013025  
     534A      9.073145   535A      9.109709   536A      9.194111  
     537A      9.245421   538A      9.298985   539A      9.331359  
     540A      9.415250   541A      9.491880   542A      9.519929  
     543A      9.556755   544A      9.607812   545A      9.644694  
     546A      9.675208   547A      9.753944   548A      9.759107  
     549A      9.793088   550A      9.845160   551A      9.905279  
     552A     10.014321   553A     10.113370   554A     10.118727  
     555A     10.146959   556A     10.194576   557A     10.208650  
     558A     10.313470   559A     10.362215   560A     10.429922  
     561A     10.588002   562A     10.617275   563A     10.847477  
     564A     10.979753   565A     11.002622   566A     11.048705  
     567A     11.093608   568A     11.110213   569A     11.157012  
     570A     11.190841   571A     11.212340   572A     11.239384  
     573A     11.290581   574A     11.360262   575A     11.396266  
     576A     11.510516   577A     11.646634   578A     11.704855  
     579A     11.810681   580A     11.832157   581A     11.861241  
     582A     11.881628   583A     11.905011   584A     11.924500  
     585A     11.948237   586A     11.965889   587A     11.966547  
     588A     11.976202   589A     12.004108   590A     12.017746  
     591A     12.059507   592A     12.060301   593A     12.085744  
     594A     12.097919   595A     12.141881   596A     12.167666  
     597A     12.186328   598A     12.205692   599A     12.220550  
     600A     12.248489   601A     12.296833   602A     12.309597  
     603A     12.395985   604A     12.406871   605A     12.434441  
     606A     12.446556   607A     12.477860   608A     12.523103  
     609A     12.571790   610A     12.608430   611A     12.691079  
     612A     12.724724   613A     12.803252   614A     12.910421  
     615A     12.989594   616A     13.135215   617A     13.165771  
     618A     13.209264   619A     13.219649   620A     13.259692  
     621A     13.317898   622A     13.396251   623A     13.438462  
     624A     13.515286   625A     13.657929   626A     13.741052  
     627A     13.779646   628A     13.956991   629A     14.053196  
     630A     14.234259   631A     14.272071   632A     14.291528  
     633A     14.304113   634A     14.312028   635A     14.334041  
     636A     14.341965   637A     14.375145   638A     14.400360  
     639A     14.420872   640A     14.458181   641A     14.489457  
     642A     14.508925   643A     14.565637   644A     14.586445  
     645A     14.622376   646A     14.655347   647A     14.678439  
     648A     14.712309   649A     14.720613   650A     14.744441  
     651A     14.874941   652A     14.950117   653A     15.018513  
     654A     15.035476   655A     15.050566   656A     15.085665  
     657A     15.154872   658A     15.243876   659A     15.335905  
     660A     15.351085   661A     15.648804   662A     15.760142  
     663A     16.066014   664A     16.299149   665A     16.349216  
     666A     16.461557   667A     17.111519   668A     17.471024  
     669A     17.636186   670A     17.728946   671A     17.757425  
     672A     17.822625   673A     17.835353   674A     17.860723  
     675A     17.876681   676A     17.909718   677A     18.013130  
     678A     18.066226   679A     18.324103   680A     18.511985  
     681A     18.546343   682A     18.559205   683A     18.727120  
     684A     18.760991   685A     18.795268   686A     19.740752  
     687A     19.830827   688A     19.887306   689A     20.626027  
     690A     20.929821   691A     21.102777   692A     21.746167  
     693A     21.936025   694A     21.985255   695A     22.033215  
     696A     22.741251   697A     22.790666   698A     22.960108  
     699A     23.119372   700A     23.170342   701A     23.557963  
     702A     24.102624   703A     24.251714   704A     24.987802  
     705A     25.687437   706A     25.806267   707A     25.840509  
     708A     33.749113   709A     46.484028   710A    123.029147  
     711A    124.067001   712A    124.110523   713A    124.241540  
     714A    124.843200  

    Final Occupation by Irrep:
              A 
    DOCC [     5 ]

  @DF-RHF Final Energy:   -76.06529761855344

   => Energetics <=

    Nuclear Repulsion Energy =              9.1160229422962100
    One-Electron Energy =                -122.9225960774350028
    Two-Electron Energy =                  37.7412755165853540
    Total Energy =                        -76.0652976185534442

Computation Completed


Properties will be evaluated at   0.000000,   0.000000,   0.000000 [a0]

Properties computed using the SCF density matrix

  Nuclear Dipole Moment: [e a0]
     X:    15.2970      Y:   -16.9516      Z:    44.9570

  Electronic Dipole Moment: [e a0]
     X:   -15.7886      Y:    17.3500      Z:   -44.5086

  Dipole Moment: [e a0]
     X:    -0.4916      Y:     0.3984      Z:     0.4484     Total:     0.7755

  Dipole Moment: [D]
     X:    -1.2496      Y:     1.0126      Z:     1.1397     Total:     1.9712


*** tstop() called on node37.bme.utexas.edu at Sat Apr 11 16:30:01 2020
Module time:
	user time   =     149.89 seconds =       2.50 minutes
	system time =      20.11 seconds =       0.34 minutes
	total time  =         37 seconds =       0.62 minutes
Total time:
	user time   =     222.79 seconds =       3.71 minutes
	system time =      24.72 seconds =       0.41 minutes
	total time  =         53 seconds =       0.88 minutes

*** tstart() called on node37.bme.utexas.edu
*** at Sat Apr 11 16:30:01 2020


  //>>>>>>>>>>>>>>>>>>>>>>>>>>>>>>>>>>>//
  //               DFMP2               //
  //<<<<<<<<<<<<<<<<<<<<<<<<<<<<<<<<<<<//

   => Loading Basis Set <=

    Name: (AUG-CC-PVQZ AUX)
    Role: RIFIT
    Keyword: DF_BASIS_MP2
    atoms 1          entry P          line   734 file /home/liuchw/anaconda3/envs/psi4env/share/psi4/basis/aug-cc-pvqz-ri.gbs 
    atoms 2-5, 9     entry O          line   332 file /home/liuchw/anaconda3/envs/psi4env/share/psi4/basis/aug-cc-pvqz-ri.gbs 
    atoms 6-8, 10-11 entry H          line    30 file /home/liuchw/anaconda3/envs/psi4env/share/psi4/basis/aug-cc-pvqz-ri.gbs 

	 --------------------------------------------------------
	                          DF-MP2                         
	      2nd-Order Density-Fitted Moller-Plesset Theory     
	              RMP2 Wavefunction,   6 Threads             
	                                                         
	        Rob Parrish, Justin Turney, Andy Simmonett,      
	           Ed Hohenstein, and C. David Sherrill          
	 --------------------------------------------------------

   => Auxiliary Basis Set <=

  Basis Set: (AUG-CC-PVQZ AUX)
    Blend: AUG-CC-PVQZ-RI
    Number of shells: 324
    Number of basis function: 1434
    Number of Cartesian functions: 1978
    Spherical Harmonics?: true
    Max angular momentum: 5

	 --------------------------------------------------------
	                 NBF =   714, NAUX =  1434
	 --------------------------------------------------------
	   CLASS    FOCC     OCC    AOCC    AVIR     VIR    FVIR
	   PAIRS       0       5       5     709     709       0
	 --------------------------------------------------------

	-----------------------------------------------------------
	 ==================> DF-MP2 Energies <==================== 
	-----------------------------------------------------------
	 Reference Energy          =     -76.0652976185534442 [Eh]
	 Singles Energy            =      -0.0000000000000000 [Eh]
	 Same-Spin Energy          =      -0.0728536253196243 [Eh]
	 Opposite-Spin Energy      =      -0.2451186984017304 [Eh]
	 Correlation Energy        =      -0.3179723237213547 [Eh]
	 Total Energy              =     -76.3832699422747936 [Eh]
	-----------------------------------------------------------
	 ================> DF-SCS-MP2 Energies <================== 
	-----------------------------------------------------------
	 SCS Same-Spin Scale       =       0.3333333333333333 [-]
[...]
     244A      1.994732   245A      2.009156   246A      2.018225  
     247A      2.024675   248A      2.035091   249A      2.045695  
     250A      2.059714   251A      2.063144   252A      2.067239  
     253A      2.074963   254A      2.095962   255A      2.111742  
     256A      2.116063   257A      2.128724   258A      2.132176  
     259A      2.145793   260A      2.160251   261A      2.167539  
     262A      2.187294   263A      2.189737   264A      2.204363  
     265A      2.223587   266A      2.237367   267A      2.248215  
     268A      2.251329   269A      2.271349   270A      2.279203  
     271A      2.294283   272A      2.305101   273A      2.309697  
     274A      2.315666   275A      2.326451   276A      2.338572  
     277A      2.355762   278A      2.361278   279A      2.366691  
     280A      2.375486   281A      2.400163   282A      2.405420  
     283A      2.421689   284A      2.426425   285A      2.447314  
     286A      2.451440   287A      2.459164   288A      2.469977  
     289A      2.483908   290A      2.494207   291A      2.525666  
     292A      2.539455   293A      2.549713   294A      2.556084  
     295A      2.565342   296A      2.581295   297A      2.608373  
     298A      2.619115   299A      2.627867   300A      2.639960  
     301A      2.660537   302A      2.662777   303A      2.676045  
     304A      2.711564   305A      2.724723   306A      2.735445  
     307A      2.749781   308A      2.769303   309A      2.810618  
     310A      2.820703   311A      2.848202   312A      2.873732  
     313A      2.881653   314A      2.922715   315A      2.936890  
     316A      2.953966   317A      2.976902   318A      3.017934  
     319A      3.020145   320A      3.061234   321A      3.077525  
     322A      3.086854   323A      3.125015   324A      3.134130  
     325A      3.144775   326A      3.163722   327A      3.176575  
     328A      3.193790   329A      3.202830   330A      3.237174  
     331A      3.255636   332A      3.264985   333A      3.273837  
     334A      3.294899   335A      3.327011   336A      3.332202  
     337A      3.349902   338A      3.389013   339A      3.400830  
     340A      3.410703   341A      3.418844   342A      3.441151  
     343A      3.446619   344A      3.467631   345A      3.483110  
     346A      3.500207   347A      3.533416   348A      3.543259  
     349A      3.557992   350A      3.573467   351A      3.594192  
     352A      3.600383   353A      3.636911   354A      3.639673  
     355A      3.658780   356A      3.697263   357A      3.704537  
     358A      3.731275   359A      3.742849   360A      3.758400  
     361A      3.770158   362A      3.788214   363A      3.796375  
     364A      3.821717   365A      3.838688   366A      3.869594  
     367A      3.875713   368A      3.881411   369A      3.900523  
     370A      3.917043   371A      3.934664   372A      3.939498  
     373A      3.952826   374A      3.965858   375A      3.995280  
     376A      4.012078   377A      4.015861   378A      4.045521  
     379A      4.061121   380A      4.083621   381A      4.091911  
     382A      4.109148   383A      4.143151   384A      4.164400  
     385A      4.175428   386A      4.216348   387A      4.231314  
     388A      4.242881   389A      4.251535   390A      4.274638  
     391A      4.291988   392A      4.305796   393A      4.316452  
     394A      4.330665   395A      4.338579   396A      4.347868  
     397A      4.373751   398A      4.389507   399A      4.392075  
     400A      4.409529   401A      4.422804   402A      4.438762  
     403A      4.458682   404A      4.468673   405A      4.477093  
     406A      4.488584   407A      4.508315   408A      4.517974  
     409A      4.540388   410A      4.560529   411A      4.569398  
     412A      4.576763   413A      4.584452   414A      4.602374  
     415A      4.631203   416A      4.638585   417A      4.658140  
     418A      4.677370   419A      4.691546   420A      4.701790  
     421A      4.719327   422A      4.745854   423A      4.749673  
     424A      4.775519   425A      4.791727   426A      4.793779  
     427A      4.816461   428A      4.828314   429A      4.845101  
     430A      4.854086   431A      4.871738   432A      4.887595  
     433A      4.901193   434A      4.914367   435A      4.947828  
     436A      4.951813   437A      4.968134   438A      4.982703  
     439A      4.997638   440A      5.000148   441A      5.026751  
     442A      5.059735   443A      5.062900   444A      5.086064  
     445A      5.102845   446A      5.115232   447A      5.133271  
     448A      5.158247   449A      5.162780   450A      5.181961  
     451A      5.211653   452A      5.218463   453A      5.226841  
     454A      5.252197   455A      5.266795   456A      5.274453  
     457A      5.293316   458A      5.335573   459A      5.340051  
     460A      5.383321   461A      5.390031   462A      5.425306  
     463A      5.433713   464A      5.451855   465A      5.502033  
     466A      5.513902   467A      5.536610   468A      5.562763  
     469A      5.574874   470A      5.621690   471A      5.654281  
     472A      5.660483   473A      5.692447   474A      5.710391  
     475A      5.728372   476A      5.758442   477A      5.792038  
     478A      5.837678   479A      5.873910   480A      5.886157  
     481A      5.908442   482A      5.922976   483A      5.972174  
     484A      6.000399   485A      6.028976   486A      6.038839  
     487A      6.058811   488A      6.089970   489A      6.122090  
     490A      6.146881   491A      6.166184   492A      6.205202  
     493A      6.227288   494A      6.266294   495A      6.299373  
     496A      6.303968   497A      6.364975   498A      6.397064  
     499A      6.478018   500A      6.507708   501A      6.550203  
     502A      6.592327   503A      6.700659   504A      6.854776  
     505A      6.957055   506A      6.965577   507A      6.977616  
     508A      6.998123   509A      7.037538   510A      7.044848  
     511A      7.065632   512A      7.101755   513A      7.163313  
     514A      7.185371   515A      7.280389   516A      7.772563  
     517A      7.825311   518A      7.886957   519A      7.903572  
     520A      7.917690   521A      7.935939   522A      7.947464  
     523A      7.957020   524A      7.983173   525A      8.004281  
     526A      8.029634   527A      8.045921   528A      8.070552  
     529A      8.098129   530A      8.127061   531A      8.134554  
     532A      8.190952   533A      8.211771   534A      8.222253  
     535A      8.269370   536A      8.319789   537A      8.373800  
     538A      8.413512   539A      8.503753   540A      8.700881  
     541A      8.740905   542A      8.761530   543A      8.843014  
     544A      8.852110   545A      8.880292   546A      8.944692  
     547A      8.973314   548A      8.981565   549A      9.002306  
     550A      9.022190   551A      9.063762   552A      9.075400  
     553A      9.100182   554A      9.148298   555A      9.167127  
     556A      9.225484   557A      9.236139   558A      9.239867  
     559A      9.271982   560A      9.292706   561A      9.317494  
     562A      9.459312   563A      9.652734   564A      9.696658  
     565A      9.786931   566A      9.830166   567A      9.906339  
     568A      9.955414   569A      9.992788   570A     10.021653  
     571A     10.035767   572A     10.061210   573A     10.093608  
     574A     10.128182   575A     10.159639   576A     10.185432  
     577A     10.220110   578A     10.243436   579A     10.330279  
     580A     10.436238   581A     10.543461   582A     10.585555  
     583A     10.777341   584A     10.914957   585A     10.921962  
     586A     10.938706   587A     10.948033   588A     10.963937  
     589A     10.990202   590A     11.011477   591A     11.028448  
     592A     11.052052   593A     11.069317   594A     11.081461  
     595A     11.092701   596A     11.121624   597A     11.125974  
     598A     11.146596   599A     11.166249   600A     11.189800  
     601A     11.192677   602A     11.227507   603A     11.228175  
     604A     11.258584   605A     11.288592   606A     11.295453  
     607A     11.345864   608A     11.351182   609A     11.389658  
     610A     11.415720   611A     11.456055   612A     11.468164  
     613A     11.486689   614A     11.500588   615A     11.523953  
     616A     11.532575   617A     11.577256   618A     11.596420  
     619A     11.648240   620A     11.713837   621A     11.716293  
     622A     11.746697   623A     11.753924   624A     11.874207  
     625A     11.880252   626A     11.900243   627A     11.905976  
     628A     11.925564   629A     11.933430   630A     11.959356  
     631A     11.992882   632A     12.046411   633A     12.077947  
     634A     12.114918   635A     12.133954   636A     12.143476  
     637A     12.155429   638A     12.192104   639A     12.194826  
     640A     12.219499   641A     12.225983   642A     12.239281  
     643A     12.258402   644A     12.270999   645A     12.279722  
     646A     12.302878   647A     12.314919   648A     12.344836  
     649A     12.379106   650A     12.399283   651A     12.429599  
     652A     12.469053   653A     12.471669   654A     12.503266  
     655A     12.566635   656A     12.597223   657A     12.607835  
     658A     12.652710   659A     12.708428   660A     12.731746  
     661A     12.753153   662A     12.780747   663A     12.877630  
     664A     12.886327   665A     12.894490   666A     12.936812  
     667A     12.963123   668A     13.007564   669A     13.115175  
     670A     13.136225   671A     13.139296   672A     13.193927  
     673A     13.290227   674A     13.354661   675A     13.429219  
     676A     13.442724   677A     13.461084   678A     13.508399  
     679A     13.530371   680A     13.548726   681A     13.585476  
     682A     13.596679   683A     13.606578   684A     13.652287  
     685A     13.708906   686A     13.784089   687A     13.925648  
     688A     14.050131   689A     14.310654   690A     14.426255  
     691A     14.545374   692A     14.591921   693A     14.609161  
     694A     14.615750   695A     14.720550   696A     14.746618  
     697A     14.816972   698A     14.882177   699A     14.944088  
     700A     14.954119   701A     14.994507   702A     15.123981  
     703A     15.352598   704A     17.085708   705A     17.237474  
     706A     17.275522   707A     17.346352   708A     17.488772  
     709A     21.910980   710A     44.302484   711A     45.040239  
     712A     45.157783   713A     45.486649   714A     46.466842  

    Final Occupation by Irrep:
              A 
    DOCC [    30 ]

  @DF-RHF Final Energy:  -718.33092391519335

   => Energetics <=

    Nuclear Repulsion Energy =            372.7916039538404220
    One-Electron Energy =               -1735.0643786646694480
    Two-Electron Energy =                 643.9418507956356734
    Total Energy =                       -718.3309239151933525

Computation Completed


Properties will be evaluated at   0.000000,   0.000000,   0.000000 [a0]

Properties computed using the SCF density matrix

  Nuclear Dipole Moment: [e a0]
     X:     2.4744      Y:    -0.4096      Z:     3.4796

  Electronic Dipole Moment: [e a0]
     X:    -1.6148      Y:     1.1091      Z:    -3.3466

  Dipole Moment: [e a0]
     X:     0.8596      Y:     0.6994      Z:     0.1330     Total:     1.1162

  Dipole Moment: [D]
     X:     2.1850      Y:     1.7778      Z:     0.3381     Total:     2.8371


*** tstop() called on node37.bme.utexas.edu at Sat Apr 11 16:32:56 2020
Module time:
	user time   =     170.56 seconds =       2.84 minutes
	system time =      11.80 seconds =       0.20 minutes
	total time  =         34 seconds =       0.57 minutes
Total time:
	user time   =    1021.31 seconds =      17.02 minutes
	system time =      76.15 seconds =       1.27 minutes
	total time  =        228 seconds =       3.80 minutes

*** tstart() called on node37.bme.utexas.edu
*** at Sat Apr 11 16:32:56 2020


  //>>>>>>>>>>>>>>>>>>>>>>>>>>>>>>>>>>>//
  //               DFMP2               //
  //<<<<<<<<<<<<<<<<<<<<<<<<<<<<<<<<<<<//

   => Loading Basis Set <=

    Name: (AUG-CC-PVQZ AUX)
    Role: RIFIT
    Keyword: DF_BASIS_MP2
    atoms 1          entry P          line   734 file /home/liuchw/anaconda3/envs/psi4env/share/psi4/basis/aug-cc-pvqz-ri.gbs 
    atoms 2-5, 9     entry O          line   332 file /home/liuchw/anaconda3/envs/psi4env/share/psi4/basis/aug-cc-pvqz-ri.gbs 
    atoms 6-8, 10-11 entry H          line    30 file /home/liuchw/anaconda3/envs/psi4env/share/psi4/basis/aug-cc-pvqz-ri.gbs 

	 --------------------------------------------------------
	                          DF-MP2                         
	      2nd-Order Density-Fitted Moller-Plesset Theory     
	              RMP2 Wavefunction,   6 Threads             
	                                                         
	        Rob Parrish, Justin Turney, Andy Simmonett,      
	           Ed Hohenstein, and C. David Sherrill          
	 --------------------------------------------------------

   => Auxiliary Basis Set <=

  Basis Set: (AUG-CC-PVQZ AUX)
    Blend: AUG-CC-PVQZ-RI
    Number of shells: 324
    Number of basis function: 1434
    Number of Cartesian functions: 1978
    Spherical Harmonics?: true
    Max angular momentum: 5

	 --------------------------------------------------------
	                 NBF =   714, NAUX =  1434
	 --------------------------------------------------------
	   CLASS    FOCC     OCC    AOCC    AVIR     VIR    FVIR
	   PAIRS       0      30      30     684     684       0
	 --------------------------------------------------------

	-----------------------------------------------------------
	 ==================> DF-MP2 Energies <==================== 
	-----------------------------------------------------------
	 Reference Energy          =    -718.3309239151933525 [Eh]
	 Singles Energy            =      -0.0000000000000000 [Eh]
	 Same-Spin Energy          =      -0.4222902406069262 [Eh]
	 Opposite-Spin Energy      =      -1.2947257907577485 [Eh]
	 Correlation Energy        =      -1.7170160313646747 [Eh]
	 Total Energy              =    -720.0479399465580173 [Eh]
	-----------------------------------------------------------
	 ================> DF-SCS-MP2 Energies <================== 
	-----------------------------------------------------------
	 SCS Same-Spin Scale       =       0.3333333333333333 [-]
	 SCS Opposite-Spin Scale   =       1.2000000000000000 [-]
	 SCS Same-Spin Energy      =      -0.1407634135356420 [Eh]
	 SCS Opposite-Spin Energy  =      -1.5536709489092981 [Eh]
	 SCS Correlation Energy    =      -1.6944343624449401 [Eh]
	 SCS Total Energy          =    -720.0253582776382473 [Eh]
	-----------------------------------------------------------


*** tstop() called on node37.bme.utexas.edu at Sat Apr 11 16:33:17 2020
Module time:
	user time   =      91.35 seconds =       1.52 minutes
	system time =       4.93 seconds =       0.08 minutes
	total time  =         21 seconds =       0.35 minutes
Total time:
	user time   =    1112.66 seconds =      18.54 minutes
	system time =      81.08 seconds =       1.35 minutes
	total time  =        249 seconds =       4.15 minutes

  //>>>>>>>>>>>>>>>>>>>>>>>>>>>>>>>>>>>//
  //  CBS Results: mp2/aug-cc-pv[tq]z  //
  //<<<<<<<<<<<<<<<<<<<<<<<<<<<<<<<<<<<//


   ==> HF <==

   HI-zeta (4) Energy:               -718.330923915193


   ==> Helgaker 2-point correlated extrapolation for method: MP2 <==

   LO-zeta (3) Energy:               -719.833164120942
   HI-zeta (4) Energy:               -720.047939946558
   Alpha (exponent) Value:             3.000000000000
   Extrapolated Energy:              -720.204668251737

   @Extrapolated MP2/(T,Q):          -720.204668251737



   ==> Helgaker 2-point correlated extrapolation for method: HF <==

   LO-zeta (3) Energy:               -718.292753986152
   HI-zeta (4) Energy:               -718.330923915193
   Alpha (exponent) Value:             3.000000000000
   Extrapolated Energy:              -718.358777647197

   @Extrapolated HF/(T,Q):           -718.358777647197


   ==> Components <==

  ---------------------------------------------------------------------------------------------------------
                          Method / Basis                      Rqd      Energy [Eh]   Variable
  ---------------------------------------------------------------------------------------------------------
                              hf / aug-cc-pvtz                  *    -718.29275399   HF TOTAL ENERGY
                             mp2 / aug-cc-pvtz                  *    -719.83316412   MP2 TOTAL ENERGY
                              hf / aug-cc-pvqz                  *    -718.33092392   HF TOTAL ENERGY
                             mp2 / aug-cc-pvqz                  *    -720.04793995   MP2 TOTAL ENERGY
  ---------------------------------------------------------------------------------------------------------

   ==> Stages <==

  ---------------------------------------------------------------------------------------------------------
      Stage               Method / Basis                       Wt      Energy [Eh]   Scheme
  ---------------------------------------------------------------------------------------------------------
        scf                   hf / aug-cc-pvqz                  1    -718.33092392   xtpl_highest_1
       corl                  mp2 / aug-cc-pv[tq]z               1    -720.20466825   corl_xtpl_helgaker_2
       corl                   hf / aug-cc-pv[tq]z              -1    -718.35877765   corl_xtpl_helgaker_2
  ---------------------------------------------------------------------------------------------------------

   ==> CBS <==

  ---------------------------------------------------------------------------------------------------------
      Stage               Method / Basis                               Energy [Eh]   Scheme
  ---------------------------------------------------------------------------------------------------------
        scf                   hf / aug-cc-pvqz                       -718.33092392   xtpl_highest_1
       corl                  mp2 / aug-cc-pv[tq]z                      -1.84589060   corl_xtpl_helgaker_2
      total                  CBS                                     -720.17681452   
  ---------------------------------------------------------------------------------------------------------
   => Loading Basis Set <=

    Name: DEF2-SVP
    Role: ORBITAL
    Keyword: BASIS
    atoms 1          entry P          line   300 file /home/liuchw/anaconda3/envs/psi4env/share/psi4/basis/def2-svp.gbs 
    atoms 2-5, 9     entry O          line   130 file /home/liuchw/anaconda3/envs/psi4env/share/psi4/basis/def2-svp.gbs 
    atoms 6-8, 10-11 entry H          line    15 file /home/liuchw/anaconda3/envs/psi4env/share/psi4/basis/def2-svp.gbs 


       N-Body: Complex Energy (fragments = (1, 2), basis = (1, 2):  -720.17681451973363)

   ==> N-Body: Counterpoise Corrected (CP) energies <==

   n-Body     Total Energy [Eh]       I.E. [kcal/mol]      Delta [kcal/mol]
        1     -720.155601639741        0.000000000000        0.000000000000
        2     -720.176771582912      -13.284339899137      -13.284339899137

   => Loading Basis Set <=

    Name: DEF2-SVP
    Role: ORBITAL
    Keyword: BASIS
    atoms 1          entry P          line   300 file /home/liuchw/anaconda3/envs/psi4env/share/psi4/basis/def2-svp.gbs 
    atoms 2-5, 9     entry O          line   130 file /home/liuchw/anaconda3/envs/psi4env/share/psi4/basis/def2-svp.gbs 
    atoms 6-8, 10-11 entry H          line    15 file /home/liuchw/anaconda3/envs/psi4env/share/psi4/basis/def2-svp.gbs 


    Psi4 stopped on: Saturday, 11 April 2020 04:33PM
    Psi4 wall time for execution: 0:04:09.40

*** Psi4 exiting successfully. Buy a developer a beer!
