
    -----------------------------------------------------------------------
          Psi4: An Open-Source Ab Initio Electronic Structure Package
                               Psi4 1.4a2.dev224 

                         Git: Rev {master} e453b16 


    R. M. Parrish, L. A. Burns, D. G. A. Smith, A. C. Simmonett,
    A. E. DePrince III, E. G. Hohenstein, U. Bozkaya, A. Yu. Sokolov,
    R. Di Remigio, R. M. Richard, J. F. Gonthier, A. M. James,
    H. R. McAlexander, A. Kumar, M. Saitow, X. Wang, B. P. Pritchard,
    P. Verma, H. F. Schaefer III, K. Patkowski, R. A. King, E. F. Valeev,
    F. A. Evangelista, J. M. Turney, T. D. Crawford, and C. D. Sherrill,
    J. Chem. Theory Comput. 13(7) pp 3185--3197 (2017).
    (doi: 10.1021/acs.jctc.7b00174)


                         Additional Contributions by
    P. Kraus, H. Kruse, M. H. Lechner, M. C. Schieber, R. A. Shaw,
    A. Alenaizan, R. Galvelis, Z. L. Glick, S. Lehtola, and J. P. Misiewicz

    -----------------------------------------------------------------------


    Psi4 started on: Saturday, 11 April 2020 05:15PM

    Process ID: 28112
    Host:       node36.bme.utexas.edu
    PSIDATADIR: /home/liuchw/anaconda3/envs/psi4env/share/psi4
    Memory:     500.0 MiB
    Threads:    6
    
  ==> Input File <==

--------------------------------------------------------------------------
#Generated by lconvert.py for cbs job

memory 40 GB

molecule  {
0 1
  P       -0.0345390    -0.2187240     1.1983610
  O        0.9939770    -0.6610930     0.0634880
  O        0.6964510     1.0805890     1.7108350
  O       -0.3834980    -1.2496500     2.2006320
  O       -1.3532430     0.2543680     0.4330890
  H        0.4678340     1.2714430     2.6453060
  H       -1.1668910     0.9332110    -0.2253710
  H        0.8496650    -1.5791460    -0.1922880
--
0 1
  P       -0.2100670     0.2220590     5.4369560
  O        0.9333660     0.5706890     6.4950260
  O       -0.1203010     1.4224410     4.3258960
  O       -1.5637070     0.1306660     6.0109350
  O        0.4630070    -0.9643500     4.6762420
  H       -0.8619240     2.0209400     4.4766970
  H        0.0787770    -1.1498840     3.7785980
  H        0.5243070     0.7370120     7.3512720
units angstrom
no_reorient
symmetry c1
}

set {
scf_type DF
mp2_type DF
e_convergence 7
reference rhf
}

energy('mp2/aug-cc-pv[tq]z', bsse_type='cp')
--------------------------------------------------------------------------

  Memory set to  37.253 GiB by Python driver.

Scratch directory: /scratch//


   ===> N-Body Interaction Abacus <===
        BSSE Treatment:                     cp
        Number of 1-body computations:     4
        Number of 2-body computations:     1

   ==> N-Body: Now computing 1-body complexes <==


       N-Body: Computing complex (1/4) with fragments (2,) in the basis of fragments (2,).


Scratch directory: /scratch//

  //>>>>>>>>>>>>>>>>>>>>>>>>>>>>>>>>>>>//
  //   CBS Setup: mp2/aug-cc-pv[tq]z   //
  //<<<<<<<<<<<<<<<<<<<<<<<<<<<<<<<<<<<//

    Naive listing of computations required.
             hf / aug-cc-pvqz              for  HF TOTAL ENERGY
            mp2 / aug-cc-pvtz              for  MP2 TOTAL ENERGY
            mp2 / aug-cc-pvqz              for  MP2 TOTAL ENERGY
             hf / aug-cc-pvtz              for  HF TOTAL ENERGY
             hf / aug-cc-pvqz              for  HF TOTAL ENERGY

    Enlightened listing of computations required.
            mp2 / aug-cc-pvtz              for  MP2 TOTAL ENERGY
            mp2 / aug-cc-pvqz              for  MP2 TOTAL ENERGY

    Full listing of computations to be obtained (required and bonus).
             hf / aug-cc-pvtz              for  HF TOTAL ENERGY
            mp2 / aug-cc-pvtz              for  MP2 TOTAL ENERGY
             hf / aug-cc-pvqz              for  HF TOTAL ENERGY
            mp2 / aug-cc-pvqz              for  MP2 TOTAL ENERGY

  //>>>>>>>>>>>>>>>>>>>>>>>>>>>>>>>>>>>>//
  // CBS Computation: MP2 / AUG-CC-PVTZ //
  //<<<<<<<<<<<<<<<<<<<<<<<<<<<<<<<<<<<<//


Scratch directory: /scratch//

*** tstart() called on node36.bme.utexas.edu
*** at Sat Apr 11 17:15:37 2020

   => Loading Basis Set <=

    Name: AUG-CC-PVTZ
    Role: ORBITAL
    Keyword: BASIS
    atoms 1   entry P          line   824 file /home/liuchw/anaconda3/envs/psi4env/share/psi4/basis/aug-cc-pvtz.gbs 
    atoms 2-5 entry O          line   331 file /home/liuchw/anaconda3/envs/psi4env/share/psi4/basis/aug-cc-pvtz.gbs 
    atoms 6-8 entry H          line    40 file /home/liuchw/anaconda3/envs/psi4env/share/psi4/basis/aug-cc-pvtz.gbs 


         ---------------------------------------------------------
                                   SCF
               by Justin Turney, Rob Parrish, Andy Simmonett
                          and Daniel G. A. Smith
                              RHF Reference
                        6 Threads,  38146 MiB Core
         ---------------------------------------------------------

  ==> Geometry <==

    Molecular point group: c1
    Full point group: C1

    Geometry (in Angstrom), charge = 0, multiplicity = 1:

       Center              X                  Y                   Z               Mass       
    ------------   -----------------  -----------------  -----------------  -----------------
         P           -0.143587466139     0.162402368205     2.180979232921    30.973761998420
         O            0.999845533861     0.511032368205     3.239049232921    15.994914619570
         O           -0.053821466139     1.362784368205     1.069919232921    15.994914619570
         O           -1.497227466139     0.071009368205     2.754958232921    15.994914619570
         O            0.529486533861    -1.024006631795     1.420265232921    15.994914619570
         H           -0.795444466139     1.961283368205     1.220720232921     1.007825032230
         H            0.145256533861    -1.209540631795     0.522621232921     1.007825032230
         H            0.590786533861     0.677355368205     4.095295232921     1.007825032230

  Running in c1 symmetry.

  Rotational constants: A =      0.15245  B =      0.03005  C =      0.02953 [cm^-1]
  Rotational constants: A =   4570.41783  B =    900.92219  C =    885.33091 [MHz]
  Nuclear repulsion =  279.725579709908914

  Charge       = 0
  Multiplicity = 1
  Electrons    = 50
  Nalpha       = 25
  Nbeta        = 25

  ==> Algorithm <==

  SCF Algorithm Type is DF.
  DIIS enabled.
  MOM disabled.
  Fractional occupation disabled.
  Guess Type is SAD.
  Energy threshold   = 1.00e-07
  Density threshold  = 1.00e-08
  Integral threshold = 0.00e+00

  ==> Primary Basis <==

  Basis Set: AUG-CC-PVTZ
    Blend: AUG-CC-PVTZ
    Number of shells: 99
    Number of basis function: 303
    Number of Cartesian functions: 354
    Spherical Harmonics?: true
    Max angular momentum: 3

   => Loading Basis Set <=

    Name: (AUG-CC-PVTZ AUX)
    Role: JKFIT
    Keyword: DF_BASIS_SCF
    atoms 1   entry P          line   644 file /home/liuchw/anaconda3/envs/psi4env/share/psi4/basis/aug-cc-pvtz-jkfit.gbs 
    atoms 2-5 entry O          line   286 file /home/liuchw/anaconda3/envs/psi4env/share/psi4/basis/aug-cc-pvtz-jkfit.gbs 
    atoms 6-8 entry H          line    70 file /home/liuchw/anaconda3/envs/psi4env/share/psi4/basis/aug-cc-pvtz-jkfit.gbs 

  ==> Pre-Iterations <==

   -------------------------------------------------------
    Irrep   Nso     Nmo     Nalpha   Nbeta   Ndocc  Nsocc
   -------------------------------------------------------
     A        303     303       0       0       0       0
   -------------------------------------------------------
    Total     303     303      25      25      25       0
   -------------------------------------------------------

  ==> Integral Setup <==

  DFHelper Memory: AOs need 0.504 GiB; user supplied 27.940 GiB. Using in-core AOs.

  ==> MemDFJK: Density-Fitted J/K Matrices <==

    J tasked:                   Yes
    K tasked:                   Yes
    wK tasked:                   No
    OpenMP threads:               6
    Memory [MiB]:             28610
    Algorithm:                 Core
    Schwarz Cutoff:           1E-12
    Mask sparsity (%):       0.2984
    Fitting Condition:        1E-10

   => Auxiliary Basis Set <=

  Basis Set: (AUG-CC-PVTZ AUX)
    Blend: AUG-CC-PVTZ-JKFIT
    Number of shells: 204
    Number of basis function: 700
    Number of Cartesian functions: 869
    Spherical Harmonics?: true
    Max angular momentum: 4

  Minimum eigenvalue in the overlap matrix is 8.2501471396E-05.
  Using Symmetric Orthogonalization.

  SCF Guess: Superposition of Atomic Densities via on-the-fly atomic UHF.

  ==> Iterations <==

                           Total Energy        Delta E     RMS |[F,P]|

   @DF-RHF iter SAD:  -641.44831832533839   -6.41448e+02   0.00000e+00 
   @DF-RHF iter   1:  -641.98433613932559   -5.36018e-01   2.63554e-03 DIIS
   @DF-RHF iter   2:  -642.13600533495730   -1.51669e-01   1.68522e-03 DIIS
   @DF-RHF iter   3:  -642.21596658205328   -7.99612e-02   1.59421e-04 DIIS
   @DF-RHF iter   4:  -642.21718806943773   -1.22149e-03   7.95744e-05 DIIS
   @DF-RHF iter   5:  -642.21742857300421   -2.40504e-04   1.75841e-05 DIIS
   @DF-RHF iter   6:  -642.21744690476396   -1.83318e-05   4.13385e-06 DIIS
   @DF-RHF iter   7:  -642.21744863706215   -1.73230e-06   1.05374e-06 DIIS
   @DF-RHF iter   8:  -642.21744874632338   -1.09261e-07   3.49778e-07 DIIS
   @DF-RHF iter   9:  -642.21744875783793   -1.15145e-08   1.23916e-07 DIIS
   @DF-RHF iter  10:  -642.21744875910906   -1.27113e-09   4.73838e-08 DIIS
   @DF-RHF iter  11:  -642.21744875930301   -1.93950e-10   1.16383e-08 DIIS
   @DF-RHF iter  12:  -642.21744875932495   -2.19416e-11   3.32597e-09 DIIS
  Energy and wave function converged.


  ==> Post-Iterations <==

    Orbital Energies [Eh]
    ---------------------

    Doubly Occupied:                                                      

       1A    -80.119495     2A    -20.627339     3A    -20.612847  
       4A    -20.604979     5A    -20.525163     6A     -7.636248  
       7A     -5.534707     8A     -5.534370     9A     -5.533313  
      10A     -1.470189    11A     -1.401816    12A     -1.386782  
      13A     -1.308167    14A     -0.876947    15A     -0.766187  
      16A     -0.738701    17A     -0.691094    18A     -0.651631  
      19A     -0.635422    20A     -0.598707    21A     -0.591879  
      22A     -0.554400    23A     -0.538697    24A     -0.481514  
      25A     -0.477293  

    Virtual:                                                              

      26A      0.023159    27A      0.035872    28A      0.043647  
      29A      0.074423    30A      0.084442    31A      0.093396  
      32A      0.110202    33A      0.141028    34A      0.144691  
      35A      0.148429    36A      0.150866    37A      0.159149  
      38A      0.183712    39A      0.201491    40A      0.210402  
      41A      0.214280    42A      0.227630    43A      0.231125  
      44A      0.248298    45A      0.253137    46A      0.257230  
      47A      0.268614    48A      0.273733    49A      0.281182  
      50A      0.290981    51A      0.303291    52A      0.333198  
      53A      0.334530    54A      0.350252    55A      0.363897  
      56A      0.370527    57A      0.377062    58A      0.385617  
      59A      0.391214    60A      0.404439    61A      0.420578  
      62A      0.425744    63A      0.433540    64A      0.442322  
      65A      0.446664    66A      0.458087    67A      0.479469  
      68A      0.499287    69A      0.520831    70A      0.591089  
      71A      0.602882    72A      0.616171    73A      0.625239  
      74A      0.635245    75A      0.651220    76A      0.672875  
      77A      0.694516    78A      0.719609    79A      0.732905  
      80A      0.755329    81A      0.767291    82A      0.783809  
      83A      0.803019    84A      0.804933    85A      0.826124  
      86A      0.831693    87A      0.836468    88A      0.868706  
      89A      0.878797    90A      0.884841    91A      0.893828  
      92A      0.901030    93A      0.924668    94A      0.932793  
      95A      0.936142    96A      0.952633    97A      0.957705  
      98A      0.968253    99A      0.982206   100A      0.994656  
     101A      1.002882   102A      1.017071   103A      1.026613  
     104A      1.037595   105A      1.048402   106A      1.064745  
     107A      1.071127   108A      1.078781   109A      1.089289  
     110A      1.107069   111A      1.126208   112A      1.175679  
     113A      1.195338   114A      1.201359   115A      1.214988  
     116A      1.224630   117A      1.253983   118A      1.269592  
     119A      1.282793   120A      1.307186   121A      1.330268  
     122A      1.340698   123A      1.359699   124A      1.376949  
     125A      1.396862   126A      1.422286   127A      1.454781  
     128A      1.469041   129A      1.494345   130A      1.527912  
     131A      1.538474   132A      1.556984   133A      1.565217  
     134A      1.596048   135A      1.655423   136A      1.665544  
     137A      1.693934   138A      1.701132   139A      1.730863  
     140A      1.793651   141A      1.810979   142A      1.861574  
     143A      1.888818   144A      1.902277   145A      1.914126  
     146A      1.930536   147A      1.939858   148A      1.961014  
     149A      1.983726   150A      2.024514   151A      2.032507  
     152A      2.053421   153A      2.083400   154A      2.106556  
     155A      2.128903   156A      2.156297   157A      2.180165  
     158A      2.203942   159A      2.205189   160A      2.265942  
     161A      2.310305   162A      2.327123   163A      2.345033  
     164A      2.354282   165A      2.367525   166A      2.373905  
     167A      2.391322   168A      2.406364   169A      2.424331  
     170A      2.442871   171A      2.473915   172A      2.488596  
     173A      2.505535   174A      2.527308   175A      2.538860  
     176A      2.561636   177A      2.577043   178A      2.581480  
     179A      2.633817   180A      2.661173   181A      2.674681  
     182A      2.710597   183A      2.736878   184A      2.747998  
     185A      2.773801   186A      2.800093   187A      2.804526  
     188A      2.839331   189A      2.868327   190A      2.905645  
     191A      2.928185   192A      2.952919   193A      2.988191  
     194A      3.027931   195A      3.125282   196A      3.155926  
     197A      3.166265   198A      3.220406   199A      3.245016  
     200A      3.263577   201A      3.273752   202A      3.303545  
     203A      3.328047   204A      3.406772   205A      3.425482  
     206A      3.434602   207A      3.478095   208A      3.487710  
     209A      3.671604   210A      3.718479   211A      3.842701  
     212A      3.881901   213A      3.898277   214A      3.964121  
     215A      4.220157   216A      4.244777   217A      4.305139  
     218A      4.322239   219A      4.373538   220A      4.399979  
     221A      4.421654   222A      4.467486   223A      4.483172  
     224A      4.533263   225A      4.568889   226A      4.590745  
     227A      4.705114   228A      4.761090   229A      4.764396  
     230A      4.782875   231A      4.841255   232A      4.851041  
     233A      4.891969   234A      4.935805   235A      4.948799  
     236A      5.028146   237A      5.124965   238A      5.275304  
     239A      5.334313   240A      5.346782   241A      5.368200  
     242A      5.387646   243A      5.427106   244A      5.538384  
     245A      5.669554   246A      5.750065   247A      5.801826  
     248A      6.284927   249A      6.371005   250A      6.414781  
     251A      6.656955   252A      6.671970   253A      6.691402  
     254A      6.717021   255A      6.734113   256A      6.753434  
     257A      6.769475   258A      6.792495   259A      6.801985  
     260A      6.808718   261A      6.815019   262A      6.849122  
     263A      6.892358   264A      6.896120   265A      6.919918  
     266A      6.925092   267A      6.960649   268A      6.965341  
     269A      7.021476   270A      7.128905   271A      7.167631  
     272A      7.204604   273A      7.213410   274A      7.225890  
     275A      7.240964   276A      7.261492   277A      7.268203  
     278A      7.279743   279A      7.303080   280A      7.311819  
     281A      7.322929   282A      7.355923   283A      7.399180  
     284A      7.416150   285A      7.453161   286A      7.455061  
     287A      7.556208   288A      7.646541   289A      7.658403  
     290A      7.668314   291A      7.715358   292A      7.779012  
     293A      7.804373   294A      7.846518   295A      8.023045  
     296A      8.228718   297A      8.250302   298A      8.274996  
     299A     10.620459   300A     12.483540   301A     14.563721  
     302A     15.094877   303A     15.244755  

    Final Occupation by Irrep:
              A 
    DOCC [    25 ]

  @DF-RHF Final Energy:  -642.21744875932495

   => Energetics <=

    Nuclear Repulsion Energy =            279.7255797099089136
    One-Electron Energy =               -1444.0902794270186860
    Two-Electron Energy =                 522.1472509577847632
    Total Energy =                       -642.2174487593249523

Computation Completed


Properties will be evaluated at   0.000000,   0.000000,   0.000000 [a0]

Properties computed using the SCF density matrix

  Nuclear Dipole Moment: [e a0]
     X:    -4.5107      Y:    21.2248      Z:   201.1176

  Electronic Dipole Moment: [e a0]
     X:     4.6697      Y:   -20.9802      Z:  -201.5285

  Dipole Moment: [e a0]
     X:     0.1590      Y:     0.2446      Z:    -0.4109     Total:     0.5039

  Dipole Moment: [D]
     X:     0.4042      Y:     0.6218      Z:    -1.0443     Total:     1.2809


*** tstop() called on node36.bme.utexas.edu at Sat Apr 11 17:15:43 2020
Module time:
	user time   =      29.60 seconds =       0.49 minutes
	system time =       1.31 seconds =       0.02 minutes
	total time  =          6 seconds =       0.10 minutes
Total time:
	user time   =      29.60 seconds =       0.49 minutes
	system time =       1.31 seconds =       0.02 minutes
	total time  =          6 seconds =       0.10 minutes

*** tstart() called on node36.bme.utexas.edu
*** at Sat Apr 11 17:15:43 2020


  //>>>>>>>>>>>>>>>>>>>>>>>>>>>>>>>>>>>//
  //               DFMP2               //
  //<<<<<<<<<<<<<<<<<<<<<<<<<<<<<<<<<<<//

   => Loading Basis Set <=

    Name: (AUG-CC-PVTZ AUX)
    Role: RIFIT
    Keyword: DF_BASIS_MP2
    atoms 1   entry P          line   590 file /home/liuchw/anaconda3/envs/psi4env/share/psi4/basis/aug-cc-pvtz-ri.gbs 
    atoms 2-5 entry O          line   264 file /home/liuchw/anaconda3/envs/psi4env/share/psi4/basis/aug-cc-pvtz-ri.gbs 
    atoms 6-8 entry H          line    30 file /home/liuchw/anaconda3/envs/psi4env/share/psi4/basis/aug-cc-pvtz-ri.gbs 

	 --------------------------------------------------------
	                          DF-MP2                         
	      2nd-Order Density-Fitted Moller-Plesset Theory     
	              RMP2 Wavefunction,   6 Threads             
	                                                         
	        Rob Parrish, Justin Turney, Andy Simmonett,      
	           Ed Hohenstein, and C. David Sherrill          
	 --------------------------------------------------------

   => Auxiliary Basis Set <=

  Basis Set: (AUG-CC-PVTZ AUX)
    Blend: AUG-CC-PVTZ-RI
    Number of shells: 191
    Number of basis function: 709
    Number of Cartesian functions: 900
    Spherical Harmonics?: true
    Max angular momentum: 4

	 --------------------------------------------------------
	                 NBF =   303, NAUX =   709
	 --------------------------------------------------------
	   CLASS    FOCC     OCC    AOCC    AVIR     VIR    FVIR
	   PAIRS       0      25      25     278     278       0
	 --------------------------------------------------------

	-----------------------------------------------------------
	 ==================> DF-MP2 Energies <==================== 
	-----------------------------------------------------------
	 Reference Energy          =    -642.2174487593249523 [Eh]
	 Singles Energy            =      -0.0000000000000000 [Eh]
	 Same-Spin Energy          =      -0.3245964661591374 [Eh]
	 Opposite-Spin Energy      =      -0.9225305166963653 [Eh]
	 Correlation Energy        =      -1.2471269828555027 [Eh]
	 Total Energy              =    -643.4645757421805001 [Eh]
	-----------------------------------------------------------
	 ================> DF-SCS-MP2 Energies <================== 
	-----------------------------------------------------------
	 SCS Same-Spin Scale       =       0.3333333333333333 [-]
	 SCS Opposite-Spin Scale   =       1.2000000000000000 [-]
	 SCS Same-Spin Energy      =      -0.1081988220530458 [Eh]
	 SCS Opposite-Spin Energy  =      -1.1070366200356383 [Eh]
	 SCS Correlation Energy    =      -1.2152354420886842 [Eh]
	 SCS Total Energy          =    -643.4326842014136218 [Eh]
	-----------------------------------------------------------


*** tstop() called on node36.bme.utexas.edu at Sat Apr 11 17:15:46 2020
Module time:
	user time   =      13.59 seconds =       0.23 minutes
	system time =       0.58 seconds =       0.01 minutes
	total time  =          3 seconds =       0.05 minutes
Total time:
	user time   =      43.20 seconds =       0.72 minutes
	system time =       1.89 seconds =       0.03 minutes
	total time  =          9 seconds =       0.15 minutes

  //>>>>>>>>>>>>>>>>>>>>>>>>>>>>>>>>>>>>//
  // CBS Computation: MP2 / AUG-CC-PVQZ //
  //<<<<<<<<<<<<<<<<<<<<<<<<<<<<<<<<<<<<//


Scratch directory: /scratch//

*** tstart() called on node36.bme.utexas.edu
*** at Sat Apr 11 17:15:46 2020

   => Loading Basis Set <=

    Name: AUG-CC-PVQZ
    Role: ORBITAL
    Keyword: BASIS
    atoms 1   entry P          line  1030 file /home/liuchw/anaconda3/envs/psi4env/share/psi4/basis/aug-cc-pvqz.gbs 
    atoms 2-5 entry O          line   423 file /home/liuchw/anaconda3/envs/psi4env/share/psi4/basis/aug-cc-pvqz.gbs 
    atoms 6-8 entry H          line    40 file /home/liuchw/anaconda3/envs/psi4env/share/psi4/basis/aug-cc-pvqz.gbs 


         ---------------------------------------------------------
                                   SCF
               by Justin Turney, Rob Parrish, Andy Simmonett
                          and Daniel G. A. Smith
                              RHF Reference
                        6 Threads,  38146 MiB Core
         ---------------------------------------------------------

  ==> Geometry <==

    Molecular point group: c1
    Full point group: C1

    Geometry (in Angstrom), charge = 0, multiplicity = 1:

       Center              X                  Y                   Z               Mass       
    ------------   -----------------  -----------------  -----------------  -----------------
         P           -0.143587466139     0.162402368205     2.180979232921    30.973761998420
         O            0.999845533861     0.511032368205     3.239049232921    15.994914619570
         O           -0.053821466139     1.362784368205     1.069919232921    15.994914619570
         O           -1.497227466139     0.071009368205     2.754958232921    15.994914619570
         O            0.529486533861    -1.024006631795     1.420265232921    15.994914619570
         H           -0.795444466139     1.961283368205     1.220720232921     1.007825032230
         H            0.145256533861    -1.209540631795     0.522621232921     1.007825032230
         H            0.590786533861     0.677355368205     4.095295232921     1.007825032230

  Running in c1 symmetry.

  Rotational constants: A =      0.15245  B =      0.03005  C =      0.02953 [cm^-1]
  Rotational constants: A =   4570.41783  B =    900.92219  C =    885.33091 [MHz]
  Nuclear repulsion =  279.725579709908914

  Charge       = 0
  Multiplicity = 1
  Electrons    = 50
  Nalpha       = 25
  Nbeta        = 25

  ==> Algorithm <==

  SCF Algorithm Type is DF.
  DIIS enabled.
  MOM disabled.
  Fractional occupation disabled.
  Guess Type is SAD.
  Energy threshold   = 1.00e-07
  Density threshold  = 1.00e-08
  Integral threshold = 0.00e+00

  ==> Primary Basis <==

  Basis Set: AUG-CC-PVQZ
    Blend: AUG-CC-PVQZ
    Number of shells: 144
    Number of basis function: 542
    Number of Cartesian functions: 694
    Spherical Harmonics?: true
    Max angular momentum: 4

   => Loading Basis Set <=

    Name: (AUG-CC-PVQZ AUX)
    Role: JKFIT
    Keyword: DF_BASIS_SCF
    atoms 1   entry P          line   716 file /home/liuchw/anaconda3/envs/psi4env/share/psi4/basis/aug-cc-pvqz-jkfit.gbs 
    atoms 2-5 entry O          line   318 file /home/liuchw/anaconda3/envs/psi4env/share/psi4/basis/aug-cc-pvqz-jkfit.gbs 
    atoms 6-8 entry H          line    70 file /home/liuchw/anaconda3/envs/psi4env/share/psi4/basis/aug-cc-pvqz-jkfit.gbs 

  ==> Pre-Iterations <==

   -------------------------------------------------------
    Irrep   Nso     Nmo     Nalpha   Nbeta   Ndocc  Nsocc
   -------------------------------------------------------
     A        542     542       0       0       0       0
   -------------------------------------------------------
    Total     542     542      25      25      25       0
   -------------------------------------------------------

  ==> Integral Setup <==

  DFHelper Memory: AOs need 2.180 GiB; user supplied 27.940 GiB. Using in-core AOs.

  ==> MemDFJK: Density-Fitted J/K Matrices <==

    J tasked:                   Yes
    K tasked:                   Yes
    wK tasked:                   No
    OpenMP threads:               6
    Memory [MiB]:             28610
    Algorithm:                 Core
    Schwarz Cutoff:           1E-12
    Mask sparsity (%):       2.6858
    Fitting Condition:        1E-10

   => Auxiliary Basis Set <=

  Basis Set: (AUG-CC-PVQZ AUX)
    Blend: AUG-CC-PVQZ-JKFIT
    Number of shells: 236
    Number of basis function: 980
    Number of Cartesian functions: 1342
    Spherical Harmonics?: true
    Max angular momentum: 5

  Minimum eigenvalue in the overlap matrix is 2.6153491895E-05.
  Using Symmetric Orthogonalization.

  SCF Guess: Superposition of Atomic Densities via on-the-fly atomic UHF.

  ==> Iterations <==

                           Total Energy        Delta E     RMS |[F,P]|

   @DF-RHF iter SAD:  -641.46424701371654   -6.41464e+02   0.00000e+00 
   @DF-RHF iter   1:  -642.01732809605971   -5.53081e-01   1.47416e-03 DIIS
   @DF-RHF iter   2:  -642.16838364483283   -1.51056e-01   9.47318e-04 DIIS
   @DF-RHF iter   3:  -642.24884448054320   -8.04608e-02   8.93083e-05 DIIS
   @DF-RHF iter   4:  -642.25007112567823   -1.22665e-03   4.47190e-05 DIIS
   @DF-RHF iter   5:  -642.25031142059515   -2.40295e-04   9.81675e-06 DIIS
   @DF-RHF iter   6:  -642.25032981987033   -1.83993e-05   2.35795e-06 DIIS
   @DF-RHF iter   7:  -642.25033152432525   -1.70445e-06   6.24286e-07 DIIS
   @DF-RHF iter   8:  -642.25033164662727   -1.22302e-07   1.97048e-07 DIIS
   @DF-RHF iter   9:  -642.25033165836169   -1.17344e-08   7.02187e-08 DIIS
   @DF-RHF iter  10:  -642.25033165966761   -1.30592e-09   2.72158e-08 DIIS
   @DF-RHF iter  11:  -642.25033165986815   -2.00544e-10   6.89462e-09 DIIS
  Energy and wave function converged.


  ==> Post-Iterations <==

    Orbital Energies [Eh]
    ---------------------

    Doubly Occupied:                                                      

       1A    -80.111802     2A    -20.624657     3A    -20.610196  
       4A    -20.602406     5A    -20.522717     6A     -7.628281  
       7A     -5.527266     8A     -5.526965     9A     -5.525587  
      10A     -1.468657    11A     -1.400761    12A     -1.385788  
      13A     -1.306946    14A     -0.875820    15A     -0.765881  
      16A     -0.738578    17A     -0.690614    18A     -0.651389  
      19A     -0.635318    20A     -0.598843    21A     -0.592198  
      22A     -0.555216    23A     -0.538858    24A     -0.481856  
      25A     -0.477679  

    Virtual:                                                              

      26A      0.020643    27A      0.032520    28A      0.039602  
      29A      0.062314    30A      0.070503    31A      0.078814  
      32A      0.096569    33A      0.118597    34A      0.120881  
      35A      0.123605    36A      0.129258    37A      0.137824  
      38A      0.153282    39A      0.167737    40A      0.173322  
      41A      0.176268    42A      0.186533    43A      0.193113  
      44A      0.195166    45A      0.201898    46A      0.205790  
      47A      0.221138    48A      0.234765    49A      0.244876  
      50A      0.255149    51A      0.265197    52A      0.277951  
      53A      0.285947    54A      0.293012    55A      0.306586  
      56A      0.313443    57A      0.321948    58A      0.325232  
      59A      0.330960    60A      0.337539    61A      0.342072  
      62A      0.345107    63A      0.355504    64A      0.359896  
      65A      0.361390    66A      0.371250    67A      0.392573  
      68A      0.415539    69A      0.418046    70A      0.464662  
      71A      0.467586    72A      0.480613    73A      0.492480  
      74A      0.494871    75A      0.511497    76A      0.516158  
      77A      0.532233    78A      0.539941    79A      0.558146  
      80A      0.561897    81A      0.575558    82A      0.587225  
      83A      0.592103    84A      0.603111    85A      0.620751  
      86A      0.626019    87A      0.627837    88A      0.644271  
      89A      0.648830    90A      0.658867    91A      0.669073  
      92A      0.687104    93A      0.697418    94A      0.706909  
      95A      0.711690    96A      0.720336    97A      0.731417  
      98A      0.744807    99A      0.749207   100A      0.753714  
     101A      0.763851   102A      0.780178   103A      0.783626  
     104A      0.787722   105A      0.795934   106A      0.804085  
     107A      0.807245   108A      0.829285   109A      0.833887  
     110A      0.846242   111A      0.857664   112A      0.865561  
     113A      0.876672   114A      0.891006   115A      0.915915  
     116A      0.932080   117A      0.945092   118A      0.954364  
     119A      0.961259   120A      0.970306   121A      0.983751  
     122A      0.994717   123A      1.002049   124A      1.020394  
     125A      1.034390   126A      1.049281   127A      1.053680  
     128A      1.069450   129A      1.088064   130A      1.112719  
     131A      1.121869   132A      1.150682   133A      1.166289  
     134A      1.184152   135A      1.194450   136A      1.216074  
     137A      1.236030   138A      1.245572   139A      1.261243  
     140A      1.274426   141A      1.285046   142A      1.295600  
     143A      1.323215   144A      1.333235   145A      1.340774  
     146A      1.355141   147A      1.367378   148A      1.383999  
     149A      1.396269   150A      1.418861   151A      1.441945  
     152A      1.443723   153A      1.453813   154A      1.465958  
     155A      1.478805   156A      1.486631   157A      1.518944  
     158A      1.553843   159A      1.568074   160A      1.574657  
     161A      1.583269   162A      1.599599   163A      1.611093  
     164A      1.625025   165A      1.631441   166A      1.654929  
     167A      1.661937   168A      1.671708   169A      1.684758  
     170A      1.688873   171A      1.702737   172A      1.718567  
     173A      1.728167   174A      1.744763   175A      1.766480  
     176A      1.769007   177A      1.783370   178A      1.795550  
     179A      1.809216   180A      1.823431   181A      1.836948  
     182A      1.849866   183A      1.859889   184A      1.864202  
     185A      1.875223   186A      1.883811   187A      1.901401  
     188A      1.915109   189A      1.930708   190A      1.942710  
     191A      1.956011   192A      1.963129   193A      1.994628  
     194A      2.002710   195A      2.014990   196A      2.025148  
     197A      2.030712   198A      2.037499   199A      2.050919  
     200A      2.059989   201A      2.073473   202A      2.092872  
     203A      2.105624   204A      2.117669   205A      2.132947  
     206A      2.139560   207A      2.154603   208A      2.162575  
     209A      2.193866   210A      2.204798   211A      2.210339  
     212A      2.225904   213A      2.260205   214A      2.277091  
     215A      2.294089   216A      2.297709   217A      2.308046  
     218A      2.315350   219A      2.341483   220A      2.357665  
     221A      2.367730   222A      2.374265   223A      2.410227  
     224A      2.420022   225A      2.431277   226A      2.438305  
     227A      2.441578   228A      2.470137   229A      2.474824  
     230A      2.486129   231A      2.512051   232A      2.542461  
     233A      2.552223   234A      2.561218   235A      2.596055  
     236A      2.610181   237A      2.628563   238A      2.669470  
     239A      2.684318   240A      2.747450   241A      2.764344  
     242A      2.791149   243A      2.857837   244A      2.909119  
     245A      2.930682   246A      2.993532   247A      3.013252  
     248A      3.056168   249A      3.084455   250A      3.104096  
     251A      3.108151   252A      3.125088   253A      3.142756  
     254A      3.151164   255A      3.161129   256A      3.174307  
     257A      3.204692   258A      3.249597   259A      3.250920  
     260A      3.272429   261A      3.291116   262A      3.324404  
     263A      3.371936   264A      3.394829   265A      3.419498  
     266A      3.437368   267A      3.462594   268A      3.468829  
     269A      3.508931   270A      3.536552   271A      3.565337  
     272A      3.583278   273A      3.600712   274A      3.622182  
     275A      3.635542   276A      3.667330   277A      3.696103  
     278A      3.727586   279A      3.749356   280A      3.753988  
     281A      3.787560   282A      3.792148   283A      3.811975  
     284A      3.833713   285A      3.857783   286A      3.879189  
     287A      3.905843   288A      3.923858   289A      3.931860  
     290A      3.940576   291A      3.966224   292A      3.978317  
     293A      3.983001   294A      4.021926   295A      4.071457  
     296A      4.078759   297A      4.099039   298A      4.139611  
     299A      4.180462   300A      4.190282   301A      4.216426  
     302A      4.233192   303A      4.244562   304A      4.253921  
     305A      4.261852   306A      4.283137   307A      4.300112  
     308A      4.306087   309A      4.331449   310A      4.353622  
     311A      4.370965   312A      4.379429   313A      4.405146  
     314A      4.418792   315A      4.437775   316A      4.452063  
     317A      4.470333   318A      4.474916   319A      4.504465  
     320A      4.528874   321A      4.547326   322A      4.560394  
     323A      4.584688   324A      4.594531   325A      4.602221  
     326A      4.625840   327A      4.639849   328A      4.642293  
     329A      4.674857   330A      4.700346   331A      4.717847  
     332A      4.754790   333A      4.756706   334A      4.799998  
     335A      4.829231   336A      4.839962   337A      4.855826  
     338A      4.864266   339A      4.879803   340A      4.898695  
     341A      4.922785   342A      4.957382   343A      4.975866  
     344A      4.984693   345A      5.013725   346A      5.024166  
     347A      5.051152   348A      5.089636   349A      5.121331  
     350A      5.123053   351A      5.148375   352A      5.154896  
     353A      5.172651   354A      5.206207   355A      5.227917  
     356A      5.267968   357A      5.295391   358A      5.355207  
     359A      5.361123   360A      5.393397   361A      5.421351  
     362A      5.434270   363A      5.474596   364A      5.521535  
     365A      5.601639   366A      5.634757   367A      5.666987  
     368A      5.682426   369A      5.723665   370A      5.780888  
     371A      5.828542   372A      5.843450   373A      5.883085  
     374A      5.900584   375A      5.918480   376A      5.937568  
     377A      5.973095   378A      6.003389   379A      6.044983  
     380A      6.083970   381A      6.111862   382A      6.165016  
     383A      6.206581   384A      6.230772   385A      6.291205  
     386A      6.346482   387A      6.457758   388A      6.502445  
     389A      6.589820   390A      6.892083   391A      6.911698  
     392A      6.955646   393A      6.962246   394A      6.991068  
     395A      7.023409   396A      7.052557   397A      7.823319  
     398A      7.836475   399A      7.868323   400A      7.884267  
     401A      7.894921   402A      7.902778   403A      7.935618  
     404A      7.963159   405A      7.983866   406A      8.060674  
     407A      8.088511   408A      8.148187   409A      8.163064  
     410A      8.211396   411A      8.255330   412A      8.634787  
     413A      8.681812   414A      8.727312   415A      8.843500  
     416A      8.863798   417A      8.899917   418A      8.920075  
     419A      8.938493   420A      8.964425   421A      9.005328  
     422A      9.060926   423A      9.110339   424A      9.235530  
     425A      9.248881   426A      9.287799   427A      9.609480  
     428A      9.806964   429A      9.867869   430A      9.884389  
     431A      9.940603   432A      9.967528   433A     10.072120  
     434A     10.107092   435A     10.139503   436A     10.167249  
     437A     10.233526   438A     10.721700   439A     10.797445  
     440A     10.800300   441A     10.849988   442A     10.879264  
     443A     10.906082   444A     10.938531   445A     10.940711  
     446A     10.964512   447A     10.977818   448A     11.016244  
     449A     11.045117   450A     11.053087   451A     11.055134  
     452A     11.070686   453A     11.077067   454A     11.108889  
     455A     11.138731   456A     11.145450   457A     11.163738  
     458A     11.176392   459A     11.187532   460A     11.201531  
     461A     11.226730   462A     11.297312   463A     11.312406  
     464A     11.360056   465A     11.380406   466A     11.397865  
     467A     11.424990   468A     11.504507   469A     11.519522  
     470A     11.585398   471A     11.658705   472A     11.680896  
     473A     11.709487   474A     11.815568   475A     11.856160  
     476A     11.867783   477A     11.878822   478A     11.899049  
     479A     11.962007   480A     12.002523   481A     12.031557  
     482A     12.058582   483A     12.086303   484A     12.095210  
     485A     12.108290   486A     12.134233   487A     12.163125  
     488A     12.185593   489A     12.203861   490A     12.212322  
     491A     12.220925   492A     12.224526   493A     12.296537  
     494A     12.324418   495A     12.347401   496A     12.355592  
     497A     12.422405   498A     12.456484   499A     12.516609  
     500A     12.545378   501A     12.553940   502A     12.608681  
     503A     12.724380   504A     12.787488   505A     12.855786  
     506A     12.880765   507A     12.925285   508A     12.936587  
     509A     13.066623   510A     13.078643   511A     13.126298  
     512A     13.257719   513A     13.326510   514A     13.334795  
     515A     13.390796   516A     13.395286   517A     13.441924  
     518A     13.471692   519A     13.491763   520A     13.525719  
     521A     13.535778   522A     13.606564   523A     13.637693  
     524A     13.682364   525A     14.243987   526A     14.365347  
     527A     14.506594   528A     14.602341   529A     14.630120  
     530A     14.685884   531A     14.738861   532A     14.840014  
     533A     14.851815   534A     14.899097   535A     16.955614  
     536A     17.158782   537A     17.212738   538A     21.654156  
     539A     44.015928   540A     44.767222   541A     45.015961  
     542A     45.242808  

    Final Occupation by Irrep:
              A 
    DOCC [    25 ]

  @DF-RHF Final Energy:  -642.25033165986815

   => Energetics <=

    Nuclear Repulsion Energy =            279.7255797099089136
    One-Electron Energy =               -1444.2632628360076978
    Two-Electron Energy =                 522.2873514662305752
    Total Energy =                       -642.2503316598681522

Computation Completed


Properties will be evaluated at   0.000000,   0.000000,   0.000000 [a0]

Properties computed using the SCF density matrix

  Nuclear Dipole Moment: [e a0]
     X:    -4.5107      Y:    21.2248      Z:   201.1176

  Electronic Dipole Moment: [e a0]
     X:     4.6689      Y:   -20.9804      Z:  -201.5282

  Dipole Moment: [e a0]
     X:     0.1582      Y:     0.2444      Z:    -0.4106     Total:     0.5034

  Dipole Moment: [D]
     X:     0.4022      Y:     0.6213      Z:    -1.0437     Total:     1.2795


*** tstop() called on node36.bme.utexas.edu at Sat Apr 11 17:16:05 2020
Module time:
	user time   =      97.20 seconds =       1.62 minutes
	system time =       3.35 seconds =       0.06 minutes
	total time  =         19 seconds =       0.32 minutes
Total time:
	user time   =     140.45 seconds =       2.34 minutes
	system time =       5.25 seconds =       0.09 minutes
	total time  =         28 seconds =       0.47 minutes

*** tstart() called on node36.bme.utexas.edu
*** at Sat Apr 11 17:16:05 2020


  //>>>>>>>>>>>>>>>>>>>>>>>>>>>>>>>>>>>//
  //               DFMP2               //
  //<<<<<<<<<<<<<<<<<<<<<<<<<<<<<<<<<<<//

   => Loading Basis Set <=

    Name: (AUG-CC-PVQZ AUX)
    Role: RIFIT
    Keyword: DF_BASIS_MP2
    atoms 1   entry P          line   734 file /home/liuchw/anaconda3/envs/psi4env/share/psi4/basis/aug-cc-pvqz-ri.gbs 
    atoms 2-5 entry O          line   332 file /home/liuchw/anaconda3/envs/psi4env/share/psi4/basis/aug-cc-pvqz-ri.gbs 
    atoms 6-8 entry H          line    30 file /home/liuchw/anaconda3/envs/psi4env/share/psi4/basis/aug-cc-pvqz-ri.gbs 

	 --------------------------------------------------------
	                          DF-MP2                         
	      2nd-Order Density-Fitted Moller-Plesset Theory     
	              RMP2 Wavefunction,   6 Threads             
	                                                         
	        Rob Parrish, Justin Turney, Andy Simmonett,      
	           Ed Hohenstein, and C. David Sherrill          
	 --------------------------------------------------------

   => Auxiliary Basis Set <=

  Basis Set: (AUG-CC-PVQZ AUX)
    Blend: AUG-CC-PVQZ-RI
    Number of shells: 248
    Number of basis function: 1106
    Number of Cartesian functions: 1531
    Spherical Harmonics?: true
    Max angular momentum: 5

	 --------------------------------------------------------
	                 NBF =   542, NAUX =  1106
	 --------------------------------------------------------
	   CLASS    FOCC     OCC    AOCC    AVIR     VIR    FVIR
	   PAIRS       0      25      25     517     517       0
	 --------------------------------------------------------

	-----------------------------------------------------------
	 ==================> DF-MP2 Energies <==================== 
	-----------------------------------------------------------
	 Reference Energy          =    -642.2503316598681522 [Eh]
	 Singles Energy            =      -0.0000000000000000 [Eh]
	 Same-Spin Energy          =      -0.3446780205093675 [Eh]
	 Opposite-Spin Energy      =      -1.0472038096223444 [Eh]
	 Correlation Energy        =      -1.3918818301317120 [Eh]
	 Total Energy              =    -643.6422134899999037 [Eh]
	-----------------------------------------------------------
	 ================> DF-SCS-MP2 Energies <================== 
	-----------------------------------------------------------
	 SCS Same-Spin Scale       =       0.3333333333333333 [-]
	 SCS Opposite-Spin Scale   =       1.2000000000000000 [-]
	 SCS Same-Spin Energy      =      -0.1148926735031225 [Eh]
	 SCS Opposite-Spin Energy  =      -1.2566445715468133 [Eh]
	 SCS Correlation Energy    =      -1.3715372450499359 [Eh]
	 SCS Total Energy          =    -643.6218689049180739 [Eh]
	-----------------------------------------------------------


*** tstop() called on node36.bme.utexas.edu at Sat Apr 11 17:16:16 2020
Module time:
	user time   =      51.22 seconds =       0.85 minutes
	system time =       1.58 seconds =       0.03 minutes
	total time  =         11 seconds =       0.18 minutes
Total time:
	user time   =     191.68 seconds =       3.19 minutes
	system time =       6.83 seconds =       0.11 minutes
	total time  =         39 seconds =       0.65 minutes

  //>>>>>>>>>>>>>>>>>>>>>>>>>>>>>>>>>>>//
  //  CBS Results: mp2/aug-cc-pv[tq]z  //
  //<<<<<<<<<<<<<<<<<<<<<<<<<<<<<<<<<<<//


   ==> HF <==

   HI-zeta (4) Energy:               -642.250331659868


   ==> Helgaker 2-point correlated extrapolation for method: MP2 <==

   LO-zeta (3) Energy:               -643.464575742181
   HI-zeta (4) Energy:               -643.642213490000
   Alpha (exponent) Value:             3.000000000000
   Extrapolated Energy:              -643.771841035706

   @Extrapolated MP2/(T,Q):          -643.771841035706



   ==> Helgaker 2-point correlated extrapolation for method: HF <==

   LO-zeta (3) Energy:               -642.217448759325
   HI-zeta (4) Energy:               -642.250331659868
   Alpha (exponent) Value:             3.000000000000
   Extrapolated Energy:              -642.274327289994

   @Extrapolated HF/(T,Q):           -642.274327289994


   ==> Components <==

  ---------------------------------------------------------------------------------------------------------
                          Method / Basis                      Rqd      Energy [Eh]   Variable
  ---------------------------------------------------------------------------------------------------------
                              hf / aug-cc-pvtz                  *    -642.21744876   HF TOTAL ENERGY
                             mp2 / aug-cc-pvtz                  *    -643.46457574   MP2 TOTAL ENERGY
                              hf / aug-cc-pvqz                  *    -642.25033166   HF TOTAL ENERGY
                             mp2 / aug-cc-pvqz                  *    -643.64221349   MP2 TOTAL ENERGY
  ---------------------------------------------------------------------------------------------------------

   ==> Stages <==

  ---------------------------------------------------------------------------------------------------------
      Stage               Method / Basis                       Wt      Energy [Eh]   Scheme
  ---------------------------------------------------------------------------------------------------------
        scf                   hf / aug-cc-pvqz                  1    -642.25033166   xtpl_highest_1
       corl                  mp2 / aug-cc-pv[tq]z               1    -643.77184104   corl_xtpl_helgaker_2
       corl                   hf / aug-cc-pv[tq]z              -1    -642.27432729   corl_xtpl_helgaker_2
  ---------------------------------------------------------------------------------------------------------

   ==> CBS <==

  ---------------------------------------------------------------------------------------------------------
      Stage               Method / Basis                               Energy [Eh]   Scheme
  ---------------------------------------------------------------------------------------------------------
        scf                   hf / aug-cc-pvqz                       -642.25033166   xtpl_highest_1
       corl                  mp2 / aug-cc-pv[tq]z                      -1.49751375   corl_xtpl_helgaker_2
      total                  CBS                                     -643.74784541   
  ---------------------------------------------------------------------------------------------------------
   => Loading Basis Set <=

    Name: DEF2-SVP
    Role: ORBITAL
    Keyword: BASIS
    atoms 1   entry P          line   300 file /home/liuchw/anaconda3/envs/psi4env/share/psi4/basis/def2-svp.gbs 
    atoms 2-5 entry O          line   130 file /home/liuchw/anaconda3/envs/psi4env/share/psi4/basis/def2-svp.gbs 
    atoms 6-8 entry H          line    15 file /home/liuchw/anaconda3/envs/psi4env/share/psi4/basis/def2-svp.gbs 


       N-Body: Complex Energy (fragments = (2,), basis = (2,):  -643.74784540557994)

       N-Body: Computing complex (2/4) with fragments (2,) in the basis of fragments (1, 2).


Scratch directory: /scratch//

  //>>>>>>>>>>>>>>>>>>>>>>>>>>>>>>>>>>>//
  //   CBS Setup: mp2/aug-cc-pv[tq]z   //
  //<<<<<<<<<<<<<<<<<<<<<<<<<<<<<<<<<<<//

    Naive listing of computations required.
             hf / aug-cc-pvqz              for  HF TOTAL ENERGY
            mp2 / aug-cc-pvtz              for  MP2 TOTAL ENERGY
            mp2 / aug-cc-pvqz              for  MP2 TOTAL ENERGY
             hf / aug-cc-pvtz              for  HF TOTAL ENERGY
             hf / aug-cc-pvqz              for  HF TOTAL ENERGY

    Enlightened listing of computations required.
            mp2 / aug-cc-pvtz              for  MP2 TOTAL ENERGY
            mp2 / aug-cc-pvqz              for  MP2 TOTAL ENERGY

    Full listing of computations to be obtained (required and bonus).
             hf / aug-cc-pvtz              for  HF TOTAL ENERGY
            mp2 / aug-cc-pvtz              for  MP2 TOTAL ENERGY
             hf / aug-cc-pvqz              for  HF TOTAL ENERGY
            mp2 / aug-cc-pvqz              for  MP2 TOTAL ENERGY

  //>>>>>>>>>>>>>>>>>>>>>>>>>>>>>>>>>>>>//
  // CBS Computation: MP2 / AUG-CC-PVTZ //
  //<<<<<<<<<<<<<<<<<<<<<<<<<<<<<<<<<<<<//


Scratch directory: /scratch//

*** tstart() called on node36.bme.utexas.edu
*** at Sat Apr 11 17:16:17 2020

   => Loading Basis Set <=

    Name: AUG-CC-PVTZ
    Role: ORBITAL
    Keyword: BASIS
    atoms 1, 9       entry P          line   824 file /home/liuchw/anaconda3/envs/psi4env/share/psi4/basis/aug-cc-pvtz.gbs 
    atoms 2-5, 10-13 entry O          line   331 file /home/liuchw/anaconda3/envs/psi4env/share/psi4/basis/aug-cc-pvtz.gbs 
    atoms 6-8, 14-16 entry H          line    40 file /home/liuchw/anaconda3/envs/psi4env/share/psi4/basis/aug-cc-pvtz.gbs 


         ---------------------------------------------------------
                                   SCF
               by Justin Turney, Rob Parrish, Andy Simmonett
                          and Daniel G. A. Smith
                              RHF Reference
                        6 Threads,  38146 MiB Core
         ---------------------------------------------------------

  ==> Geometry <==

    Molecular point group: c1
    Full point group: C1

    Geometry (in Angstrom), charge = 0, multiplicity = 1:

       Center              X                  Y                   Z               Mass       
    ------------   -----------------  -----------------  -----------------  -----------------
      Gh(P)           0.031940533861    -0.278380631795    -2.057615767079    30.973761998420
      Gh(O)           1.060456533861    -0.720749631795    -3.192488767079    15.994914619570
      Gh(O)           0.762930533861     1.020932368205    -1.545141767079    15.994914619570
      Gh(O)          -0.317018466139    -1.309306631795    -1.055344767079    15.994914619570
      Gh(O)          -1.286763466139     0.194711368205    -2.822887767079    15.994914619570
      Gh(H)           0.534313533861     1.211786368205    -0.610670767079     1.007825032230
      Gh(H)          -1.100411466139     0.873554368205    -3.481347767079     1.007825032230
      Gh(H)           0.916144533861    -1.638802631795    -3.448264767079     1.007825032230
         P           -0.143587466139     0.162402368205     2.180979232921    30.973761998420
         O            0.999845533861     0.511032368205     3.239049232921    15.994914619570
         O           -0.053821466139     1.362784368205     1.069919232921    15.994914619570
         O           -1.497227466139     0.071009368205     2.754958232921    15.994914619570
         O            0.529486533861    -1.024006631795     1.420265232921    15.994914619570
         H           -0.795444466139     1.961283368205     1.220720232921     1.007825032230
         H            0.145256533861    -1.209540631795     0.522621232921     1.007825032230
         H            0.590786533861     0.677355368205     4.095295232921     1.007825032230

  Running in c1 symmetry.

  Rotational constants: A =      0.07526  B =      0.01498  C =      0.01487 [cm^-1]
  Rotational constants: A =   2256.16042  B =    449.03465  C =    445.83888 [MHz]
  Nuclear repulsion =  279.725579709908914

  Charge       = 0
  Multiplicity = 1
  Electrons    = 50
  Nalpha       = 25
  Nbeta        = 25

  ==> Algorithm <==

  SCF Algorithm Type is DF.
  DIIS enabled.
  MOM disabled.
  Fractional occupation disabled.
  Guess Type is SAD.
  Energy threshold   = 1.00e-07
  Density threshold  = 1.00e-08
  Integral threshold = 0.00e+00

  ==> Primary Basis <==

  Basis Set: AUG-CC-PVTZ
    Blend: AUG-CC-PVTZ
    Number of shells: 198
    Number of basis function: 606
    Number of Cartesian functions: 708
    Spherical Harmonics?: true
    Max angular momentum: 3

   => Loading Basis Set <=

    Name: (AUG-CC-PVTZ AUX)
    Role: JKFIT
    Keyword: DF_BASIS_SCF
    atoms 1, 9       entry P          line   644 file /home/liuchw/anaconda3/envs/psi4env/share/psi4/basis/aug-cc-pvtz-jkfit.gbs 
    atoms 2-5, 10-13 entry O          line   286 file /home/liuchw/anaconda3/envs/psi4env/share/psi4/basis/aug-cc-pvtz-jkfit.gbs 
    atoms 6-8, 14-16 entry H          line    70 file /home/liuchw/anaconda3/envs/psi4env/share/psi4/basis/aug-cc-pvtz-jkfit.gbs 

  ==> Pre-Iterations <==

   -------------------------------------------------------
    Irrep   Nso     Nmo     Nalpha   Nbeta   Ndocc  Nsocc
   -------------------------------------------------------
     A        606     606       0       0       0       0
   -------------------------------------------------------
    Total     606     606      25      25      25       0
   -------------------------------------------------------

  ==> Integral Setup <==

  DFHelper Memory: AOs need 3.516 GiB; user supplied 27.940 GiB. Using in-core AOs.

  ==> MemDFJK: Density-Fitted J/K Matrices <==

    J tasked:                   Yes
    K tasked:                   Yes
    wK tasked:                   No
    OpenMP threads:               6
    Memory [MiB]:             28610
    Algorithm:                 Core
    Schwarz Cutoff:           1E-12
    Mask sparsity (%):      10.9554
    Fitting Condition:        1E-10

   => Auxiliary Basis Set <=

  Basis Set: (AUG-CC-PVTZ AUX)
    Blend: AUG-CC-PVTZ-JKFIT
    Number of shells: 408
    Number of basis function: 1400
    Number of Cartesian functions: 1738
    Spherical Harmonics?: true
    Max angular momentum: 4

  Minimum eigenvalue in the overlap matrix is 4.3674931372E-05.
  Using Symmetric Orthogonalization.

  SCF Guess: Superposition of Atomic Densities via on-the-fly atomic UHF.

  ==> Iterations <==

                           Total Energy        Delta E     RMS |[F,P]|

   @DF-RHF iter SAD:  -641.44832027753546   -6.41448e+02   0.00000e+00 
   @DF-RHF iter   1:  -641.98467330410244   -5.36353e-01   1.31789e-03 DIIS
   @DF-RHF iter   2:  -642.13636798075788   -1.51695e-01   8.42573e-04 DIIS
   @DF-RHF iter   3:  -642.21631582806242   -7.99478e-02   7.97590e-05 DIIS
   @DF-RHF iter   4:  -642.21753794767847   -1.22212e-03   3.97739e-05 DIIS
   @DF-RHF iter   5:  -642.21777832521536   -2.40378e-04   8.81275e-06 DIIS
   @DF-RHF iter   6:  -642.21779670177511   -1.83766e-05   2.07073e-06 DIIS
   @DF-RHF iter   7:  -642.21779844101468   -1.73924e-06   5.27374e-07 DIIS
   @DF-RHF iter   8:  -642.21779855049044   -1.09476e-07   1.75178e-07 DIIS
   @DF-RHF iter   9:  -642.21779856203591   -1.15455e-08   6.20130e-08 DIIS
   @DF-RHF iter  10:  -642.21779856331193   -1.27602e-09   2.37176e-08 DIIS
   @DF-RHF iter  11:  -642.21779856350929   -1.97360e-10   5.81769e-09 DIIS
  Energy and wave function converged.


  ==> Post-Iterations <==

    Orbital Energies [Eh]
    ---------------------

    Doubly Occupied:                                                      

       1A    -80.119575     2A    -20.627249     3A    -20.612811  
       4A    -20.604882     5A    -20.525117     6A     -7.636201  
       7A     -5.534658     8A     -5.534327     9A     -5.533271  
      10A     -1.470127    11A     -1.401770    12A     -1.386721  
      13A     -1.308129    14A     -0.876894    15A     -0.766131  
      16A     -0.738664    17A     -0.691058    18A     -0.651589  
      19A     -0.635390    20A     -0.598678    21A     -0.591852  
      22A     -0.554371    23A     -0.538678    24A     -0.481496  
      25A     -0.477273  

    Virtual:                                                              

      26A      0.016175    27A      0.030452    28A      0.035760  
      29A      0.045920    30A      0.049572    31A      0.055254  
      32A      0.069191    33A      0.077801    34A      0.082345  
      35A      0.092334    36A      0.095417    37A      0.103829  
      38A      0.110729    39A      0.118098    40A      0.121809  
      41A      0.143412    42A      0.150409    43A      0.151400  
      44A      0.156823    45A      0.158221    46A      0.168367  
      47A      0.172311    48A      0.182447    49A      0.187818  
      50A      0.194601    51A      0.197824    52A      0.200895  
      53A      0.204692    54A      0.214515    55A      0.218520  
      56A      0.223821    57A      0.227500    58A      0.238238  
      59A      0.244217    60A      0.246015    61A      0.249398  
      62A      0.254529    63A      0.266932    64A      0.267057  
      65A      0.271087    66A      0.274114    67A      0.284547  
      68A      0.290450    69A      0.292519    70A      0.300783  
      71A      0.310473    72A      0.318897    73A      0.321169  
      74A      0.332899    75A      0.340113    76A      0.349953  
      77A      0.352731    78A      0.359382    79A      0.364122  
      80A      0.371159    81A      0.373565    82A      0.378777  
      83A      0.382969    84A      0.385680    85A      0.388398  
      86A      0.399906    87A      0.403797    88A      0.417203  
      89A      0.419481    90A      0.425361    91A      0.427577  
      92A      0.437922    93A      0.443236    94A      0.448000  
      95A      0.455008    96A      0.457384    97A      0.461258  
      98A      0.465984    99A      0.470148   100A      0.474212  
     101A      0.483253   102A      0.494101   103A      0.501762  
     104A      0.506982   105A      0.510587   106A      0.518391  
     107A      0.533048   108A      0.542139   109A      0.552042  
     110A      0.570066   111A      0.579187   112A      0.605171  
     113A      0.609392   114A      0.616901   115A      0.642237  
     116A      0.652113   117A      0.656243   118A      0.669861  
     119A      0.679955   120A      0.687697   121A      0.697314  
     122A      0.705277   123A      0.721221   124A      0.730905  
     125A      0.741480   126A      0.748862   127A      0.754778  
     128A      0.762156   129A      0.771215   130A      0.772346  
     131A      0.778649   132A      0.788617   133A      0.795733  
     134A      0.800513   135A      0.807223   136A      0.816156  
     137A      0.825196   138A      0.838721   139A      0.841312  
     140A      0.851706   141A      0.856919   142A      0.865764  
     143A      0.869661   144A      0.875277   145A      0.887494  
     146A      0.889490   147A      0.894496   148A      0.898326  
     149A      0.910316   150A      0.913150   151A      0.923591  
     152A      0.928328   153A      0.934771   154A      0.946310  
     155A      0.948423   156A      0.951437   157A      0.954804  
     158A      0.969961   159A      0.972723   160A      0.977969  
     161A      0.979497   162A      0.991501   163A      0.996639  
     164A      1.002691   165A      1.004949   166A      1.008810  
     167A      1.013813   168A      1.021079   169A      1.029580  
     170A      1.039994   171A      1.043642   172A      1.044685  
     173A      1.057916   174A      1.066996   175A      1.083112  
     176A      1.089932   177A      1.092093   178A      1.104386  
     179A      1.111013   180A      1.114530   181A      1.128488  
     182A      1.132762   183A      1.140733   184A      1.144627  
     185A      1.160759   186A      1.168171   187A      1.172820  
     188A      1.188599   189A      1.192810   190A      1.195218  
     191A      1.200276   192A      1.206403   193A      1.223205  
     194A      1.233318   195A      1.252866   196A      1.263634  
     197A      1.264800   198A      1.277452   199A      1.289569  
     200A      1.296131   201A      1.314435   202A      1.319011  
     203A      1.322823   204A      1.329117   205A      1.343726  
     206A      1.353579   207A      1.364442   208A      1.365350  
     209A      1.376442   210A      1.389958   211A      1.407551  
     212A      1.413208   213A      1.420343   214A      1.432259  
     215A      1.437340   216A      1.449541   217A      1.458982  
     218A      1.464632   219A      1.470233   220A      1.488009  
     221A      1.498580   222A      1.503737   223A      1.513158  
     224A      1.527867   225A      1.532459   226A      1.542070  
     227A      1.555538   228A      1.556605   229A      1.577538  
     230A      1.585573   231A      1.591542   232A      1.606322  
     233A      1.622117   234A      1.637021   235A      1.649575  
     236A      1.659564   237A      1.667545   238A      1.683182  
     239A      1.703612   240A      1.723183   241A      1.733610  
     242A      1.746204   243A      1.766503   244A      1.769115  
     245A      1.774206   246A      1.790689   247A      1.812634  
     248A      1.814979   249A      1.835594   250A      1.851323  
     251A      1.863615   252A      1.877994   253A      1.889229  
     254A      1.906480   255A      1.911641   256A      1.915622  
     257A      1.929712   258A      1.935701   259A      1.954791  
     260A      1.966446   261A      1.976683   262A      1.989275  
     263A      2.002712   264A      2.006607   265A      2.026519  
     266A      2.032461   267A      2.048084   268A      2.064179  
     269A      2.071580   270A      2.108329   271A      2.121641  
     272A      2.129740   273A      2.145397   274A      2.167097  
     275A      2.194483   276A      2.200467   277A      2.219142  
     278A      2.232651   279A      2.242814   280A      2.275962  
     281A      2.309908   282A      2.343551   283A      2.346505  
     284A      2.365610   285A      2.378278   286A      2.395790  
     287A      2.409435   288A      2.415675   289A      2.432215  
     290A      2.437908   291A      2.444446   292A      2.454302  
     293A      2.462952   294A      2.474370   295A      2.479739  
     296A      2.482924   297A      2.501347   298A      2.511017  
     299A      2.515857   300A      2.535357   301A      2.539095  
     302A      2.548763   303A      2.550978   304A      2.569864  
     305A      2.581045   306A      2.590299   307A      2.606463  
     308A      2.610109   309A      2.618644   310A      2.622493  
     311A      2.635651   312A      2.638268   313A      2.650321  
     314A      2.666848   315A      2.676892   316A      2.693088  
     317A      2.700907   318A      2.711588   319A      2.723029  
     320A      2.727300   321A      2.737300   322A      2.739861  
     323A      2.756367   324A      2.766301   325A      2.774905  
     326A      2.784749   327A      2.795077   328A      2.802615  
     329A      2.816935   330A      2.820680   331A      2.828247  
     332A      2.837005   333A      2.861057   334A      2.866143  
     335A      2.872760   336A      2.883125   337A      2.898228  
     338A      2.909003   339A      2.909629   340A      2.916614  
     341A      2.930190   342A      2.944575   343A      2.953540  
     344A      2.958466   345A      2.992415   346A      3.000992  
     347A      3.007733   348A      3.026530   349A      3.035707  
     350A      3.066207   351A      3.075134   352A      3.088973  
     353A      3.114594   354A      3.138317   355A      3.147246  
     356A      3.167636   357A      3.192329   358A      3.202592  
     359A      3.213185   360A      3.218714   361A      3.232384  
     362A      3.246067   363A      3.263410   364A      3.276106  
     365A      3.286455   366A      3.291231   367A      3.293576  
     368A      3.304812   369A      3.314224   370A      3.328986  
     371A      3.334612   372A      3.340347   373A      3.364272  
     374A      3.368880   375A      3.381917   376A      3.399697  
     377A      3.405189   378A      3.427488   379A      3.460344  
     380A      3.467547   381A      3.495588   382A      3.501867  
     383A      3.510835   384A      3.535070   385A      3.544345  
     386A      3.555719   387A      3.603341   388A      3.620028  
     389A      3.655189   390A      3.692263   391A      3.727061  
     392A      3.734220   393A      3.747036   394A      3.816713  
     395A      3.829899   396A      3.870815   397A      3.899799  
     398A      3.921990   399A      3.937608   400A      3.947297  
     401A      4.006300   402A      4.038457   403A      4.047763  
     404A      4.073394   405A      4.102287   406A      4.175245  
     407A      4.209193   408A      4.228128   409A      4.256326  
     410A      4.310620   411A      4.333669   412A      4.355572  
     413A      4.388625   414A      4.414946   415A      4.421296  
     416A      4.439746   417A      4.455730   418A      4.476987  
     419A      4.535314   420A      4.553309   421A      4.559111  
     422A      4.586875   423A      4.604355   424A      4.634121  
     425A      4.639664   426A      4.670195   427A      4.681542  
     428A      4.689608   429A      4.694737   430A      4.759740  
     431A      4.779743   432A      4.803910   433A      4.825270  
     434A      4.853164   435A      4.887476   436A      4.915825  
     437A      4.927563   438A      4.944301   439A      4.965840  
     440A      4.971708   441A      4.990246   442A      5.009544  
     443A      5.017780   444A      5.035683   445A      5.060344  
     446A      5.075128   447A      5.103640   448A      5.127990  
     449A      5.174526   450A      5.289547   451A      5.331983  
     452A      5.351009   453A      5.366575   454A      5.403629  
     455A      5.421074   456A      5.442909   457A      5.470412  
     458A      5.495296   459A      5.502736   460A      5.594356  
     461A      5.624513   462A      5.706597   463A      5.729323  
     464A      5.745053   465A      5.757603   466A      5.790888  
     467A      5.844926   468A      5.950447   469A      5.990846  
     470A      6.026945   471A      6.117978   472A      6.330442  
     473A      6.359792   474A      6.400474   475A      6.413209  
     476A      6.459922   477A      6.537636   478A      6.686961  
     479A      6.703355   480A      6.734639   481A      6.766141  
     482A      6.788597   483A      6.809088   484A      6.819883  
     485A      6.850988   486A      6.859276   487A      6.867233  
     488A      6.876646   489A      6.891493   490A      6.909546  
     491A      6.921873   492A      6.940257   493A      6.947786  
     494A      6.956928   495A      6.971371   496A      7.006431  
     497A      7.055947   498A      7.102587   499A      7.140396  
     500A      7.208164   501A      7.227694   502A      7.241041  
     503A      7.264039   504A      7.287855   505A      7.300059  
     506A      7.311290   507A      7.333549   508A      7.348776  
     509A      7.379075   510A      7.387067   511A      7.411399  
     512A      7.440570   513A      7.469109   514A      7.506851  
     515A      7.559411   516A      7.575729   517A      7.621105  
     518A      7.648844   519A      7.672169   520A      7.698907  
     521A      7.714446   522A      7.721774   523A      7.746938  
     524A      7.757330   525A      7.763021   526A      7.780331  
     527A      7.791162   528A      7.808284   529A      7.829792  
     530A      7.843374   531A      7.857146   532A      7.867254  
     533A      7.876014   534A      7.879937   535A      7.887893  
     536A      7.903139   537A      7.913383   538A      7.960258  
     539A      7.997044   540A      8.002047   541A      8.031993  
     542A      8.072690   543A      8.075374   544A      8.226642  
     545A      8.228188   546A      8.258288   547A      8.278787  
     548A      8.342273   549A      8.363730   550A      8.400129  
     551A      8.417344   552A      8.426761   553A      8.542858  
     554A      8.614376   555A      8.692619   556A      8.812774  
     557A      9.645413   558A      9.757991   559A      9.791252  
     560A      9.847760   561A      9.867807   562A      9.886788  
     563A      9.952740   564A      9.970918   565A     10.012268  
     566A     10.065703   567A     10.101869   568A     10.157397  
     569A     10.216444   570A     10.286638   571A     10.372733  
     572A     10.391885   573A     10.456521   574A     10.675329  
     575A     10.726946   576A     10.813541   577A     11.039399  
     578A     11.251018   579A     11.645774   580A     11.748695  
     581A     11.822372   582A     11.885511   583A     12.015397  
     584A     12.064874   585A     12.089831   586A     12.151527  
     587A     12.378804   588A     12.569710   589A     12.624890  
     590A     12.669792   591A     12.921963   592A     13.772986  
     593A     13.919110   594A     14.114555   595A     15.312459  
     596A     15.726372   597A     16.071036   598A     18.355969  
     599A     23.082601   600A     23.208968   601A     23.563664  
     602A     62.015332   603A     63.510515   604A     64.640700  
     605A     65.880169   606A    123.922199  

    Final Occupation by Irrep:
              A 
    DOCC [    25 ]

  @DF-RHF Final Energy:  -642.21779856350929

   => Energetics <=

    Nuclear Repulsion Energy =            279.7255797099089136
    One-Electron Energy =               -1444.0929284340770664
    Two-Electron Energy =                 522.1495501606588050
    Total Energy =                       -642.2177985635092909

Computation Completed


Properties will be evaluated at   0.000000,   0.000000,   0.000000 [a0]

Properties computed using the SCF density matrix

  Nuclear Dipole Moment: [e a0]
     X:    -4.5107      Y:    21.2248      Z:   201.1176

  Electronic Dipole Moment: [e a0]
     X:     4.6700      Y:   -20.9803      Z:  -201.5284

  Dipole Moment: [e a0]
     X:     0.1593      Y:     0.2445      Z:    -0.4108     Total:     0.5039

  Dipole Moment: [D]
     X:     0.4049      Y:     0.6215      Z:    -1.0440     Total:     1.2807


*** tstop() called on node36.bme.utexas.edu at Sat Apr 11 17:16:48 2020
Module time:
	user time   =     158.60 seconds =       2.64 minutes
	system time =       4.50 seconds =       0.07 minutes
	total time  =         31 seconds =       0.52 minutes
Total time:
	user time   =     352.56 seconds =       5.88 minutes
	system time =      11.41 seconds =       0.19 minutes
	total time  =         71 seconds =       1.18 minutes

*** tstart() called on node36.bme.utexas.edu
*** at Sat Apr 11 17:16:48 2020


  //>>>>>>>>>>>>>>>>>>>>>>>>>>>>>>>>>>>//
  //               DFMP2               //
  //<<<<<<<<<<<<<<<<<<<<<<<<<<<<<<<<<<<//

   => Loading Basis Set <=

    Name: (AUG-CC-PVTZ AUX)
    Role: RIFIT
    Keyword: DF_BASIS_MP2
    atoms 1, 9       entry P          line   590 file /home/liuchw/anaconda3/envs/psi4env/share/psi4/basis/aug-cc-pvtz-ri.gbs 
    atoms 2-5, 10-13 entry O          line   264 file /home/liuchw/anaconda3/envs/psi4env/share/psi4/basis/aug-cc-pvtz-ri.gbs 
    atoms 6-8, 14-16 entry H          line    30 file /home/liuchw/anaconda3/envs/psi4env/share/psi4/basis/aug-cc-pvtz-ri.gbs 

	 --------------------------------------------------------
	                          DF-MP2                         
	      2nd-Order Density-Fitted Moller-Plesset Theory     
	              RMP2 Wavefunction,   6 Threads             
	                                                         
	        Rob Parrish, Justin Turney, Andy Simmonett,      
	           Ed Hohenstein, and C. David Sherrill          
	 --------------------------------------------------------

   => Auxiliary Basis Set <=

  Basis Set: (AUG-CC-PVTZ AUX)
    Blend: AUG-CC-PVTZ-RI
    Number of shells: 382
    Number of basis function: 1418
    Number of Cartesian functions: 1800
    Spherical Harmonics?: true
    Max angular momentum: 4

	 --------------------------------------------------------
	                 NBF =   606, NAUX =  1418
	 --------------------------------------------------------
	   CLASS    FOCC     OCC    AOCC    AVIR     VIR    FVIR
	   PAIRS       0      25      25     581     581       0
	 --------------------------------------------------------

	-----------------------------------------------------------
	 ==================> DF-MP2 Energies <==================== 
	-----------------------------------------------------------
	 Reference Energy          =    -642.2177985635092909 [Eh]
	 Singles Energy            =      -0.0000000000000000 [Eh]
	 Same-Spin Energy          =      -0.3250782371828133 [Eh]
	 Opposite-Spin Energy      =      -0.9251639608914192 [Eh]
	 Correlation Energy        =      -1.2502421980742324 [Eh]
	 Total Energy              =    -643.4680407615835520 [Eh]
	-----------------------------------------------------------
	 ================> DF-SCS-MP2 Energies <================== 
	-----------------------------------------------------------
	 SCS Same-Spin Scale       =       0.3333333333333333 [-]
	 SCS Opposite-Spin Scale   =       1.2000000000000000 [-]
	 SCS Same-Spin Energy      =      -0.1083594123942711 [Eh]
	 SCS Opposite-Spin Energy  =      -1.1101967530697030 [Eh]
	 SCS Correlation Energy    =      -1.2185561654639741 [Eh]
	 SCS Total Energy          =    -643.4363547289732423 [Eh]
	-----------------------------------------------------------


*** tstop() called on node36.bme.utexas.edu at Sat Apr 11 17:17:05 2020
Module time:
	user time   =      81.80 seconds =       1.36 minutes
	system time =       2.15 seconds =       0.04 minutes
	total time  =         17 seconds =       0.28 minutes
Total time:
	user time   =     434.37 seconds =       7.24 minutes
	system time =      13.56 seconds =       0.23 minutes
	total time  =         88 seconds =       1.47 minutes

  //>>>>>>>>>>>>>>>>>>>>>>>>>>>>>>>>>>>>//
  // CBS Computation: MP2 / AUG-CC-PVQZ //
  //<<<<<<<<<<<<<<<<<<<<<<<<<<<<<<<<<<<<//


Scratch directory: /scratch//

*** tstart() called on node36.bme.utexas.edu
*** at Sat Apr 11 17:17:05 2020

   => Loading Basis Set <=

    Name: AUG-CC-PVQZ
    Role: ORBITAL
    Keyword: BASIS
    atoms 1, 9       entry P          line  1030 file /home/liuchw/anaconda3/envs/psi4env/share/psi4/basis/aug-cc-pvqz.gbs 
    atoms 2-5, 10-13 entry O          line   423 file /home/liuchw/anaconda3/envs/psi4env/share/psi4/basis/aug-cc-pvqz.gbs 
    atoms 6-8, 14-16 entry H          line    40 file /home/liuchw/anaconda3/envs/psi4env/share/psi4/basis/aug-cc-pvqz.gbs 


         ---------------------------------------------------------
                                   SCF
               by Justin Turney, Rob Parrish, Andy Simmonett
                          and Daniel G. A. Smith
                              RHF Reference
                        6 Threads,  38146 MiB Core
         ---------------------------------------------------------

  ==> Geometry <==

    Molecular point group: c1
    Full point group: C1

    Geometry (in Angstrom), charge = 0, multiplicity = 1:

       Center              X                  Y                   Z               Mass       
    ------------   -----------------  -----------------  -----------------  -----------------
      Gh(P)           0.031940533861    -0.278380631795    -2.057615767079    30.973761998420
      Gh(O)           1.060456533861    -0.720749631795    -3.192488767079    15.994914619570
      Gh(O)           0.762930533861     1.020932368205    -1.545141767079    15.994914619570
      Gh(O)          -0.317018466139    -1.309306631795    -1.055344767079    15.994914619570
      Gh(O)          -1.286763466139     0.194711368205    -2.822887767079    15.994914619570
      Gh(H)           0.534313533861     1.211786368205    -0.610670767079     1.007825032230
      Gh(H)          -1.100411466139     0.873554368205    -3.481347767079     1.007825032230
      Gh(H)           0.916144533861    -1.638802631795    -3.448264767079     1.007825032230
         P           -0.143587466139     0.162402368205     2.180979232921    30.973761998420
         O            0.999845533861     0.511032368205     3.239049232921    15.994914619570
         O           -0.053821466139     1.362784368205     1.069919232921    15.994914619570
         O           -1.497227466139     0.071009368205     2.754958232921    15.994914619570
         O            0.529486533861    -1.024006631795     1.420265232921    15.994914619570
         H           -0.795444466139     1.961283368205     1.220720232921     1.007825032230
         H            0.145256533861    -1.209540631795     0.522621232921     1.007825032230
         H            0.590786533861     0.677355368205     4.095295232921     1.007825032230

  Running in c1 symmetry.

  Rotational constants: A =      0.07526  B =      0.01498  C =      0.01487 [cm^-1]
  Rotational constants: A =   2256.16042  B =    449.03465  C =    445.83888 [MHz]
  Nuclear repulsion =  279.725579709908914

  Charge       = 0
  Multiplicity = 1
  Electrons    = 50
  Nalpha       = 25
  Nbeta        = 25

  ==> Algorithm <==

  SCF Algorithm Type is DF.
  DIIS enabled.
  MOM disabled.
  Fractional occupation disabled.
  Guess Type is SAD.
  Energy threshold   = 1.00e-07
  Density threshold  = 1.00e-08
  Integral threshold = 0.00e+00

  ==> Primary Basis <==

  Basis Set: AUG-CC-PVQZ
    Blend: AUG-CC-PVQZ
    Number of shells: 288
    Number of basis function: 1084
    Number of Cartesian functions: 1388
    Spherical Harmonics?: true
    Max angular momentum: 4

   => Loading Basis Set <=

    Name: (AUG-CC-PVQZ AUX)
    Role: JKFIT
    Keyword: DF_BASIS_SCF
    atoms 1, 9       entry P          line   716 file /home/liuchw/anaconda3/envs/psi4env/share/psi4/basis/aug-cc-pvqz-jkfit.gbs 
    atoms 2-5, 10-13 entry O          line   318 file /home/liuchw/anaconda3/envs/psi4env/share/psi4/basis/aug-cc-pvqz-jkfit.gbs 
    atoms 6-8, 14-16 entry H          line    70 file /home/liuchw/anaconda3/envs/psi4env/share/psi4/basis/aug-cc-pvqz-jkfit.gbs 

  ==> Pre-Iterations <==

   -------------------------------------------------------
    Irrep   Nso     Nmo     Nalpha   Nbeta   Ndocc  Nsocc
   -------------------------------------------------------
     A       1084    1084       0       0       0       0
   -------------------------------------------------------
    Total    1084    1084      25      25      25       0
   -------------------------------------------------------

  ==> Integral Setup <==

  DFHelper Memory: AOs need 14.682 GiB; user supplied 27.940 GiB. Using in-core AOs.

  ==> MemDFJK: Density-Fitted J/K Matrices <==

    J tasked:                   Yes
    K tasked:                   Yes
    wK tasked:                   No
    OpenMP threads:               6
    Memory [MiB]:             28610
    Algorithm:                 Core
    Schwarz Cutoff:           1E-12
    Mask sparsity (%):      16.5950
    Fitting Condition:        1E-10

   => Auxiliary Basis Set <=

  Basis Set: (AUG-CC-PVQZ AUX)
    Blend: AUG-CC-PVQZ-JKFIT
    Number of shells: 472
    Number of basis function: 1960
    Number of Cartesian functions: 2684
    Spherical Harmonics?: true
    Max angular momentum: 5

[...]
     615A      4.434801   616A      4.436201   617A      4.452363  
     618A      4.461238   619A      4.463819   620A      4.475948  
     621A      4.483194   622A      4.497387   623A      4.502625  
     624A      4.507757   625A      4.513026   626A      4.521391  
     627A      4.524597   628A      4.537444   629A      4.539757  
     630A      4.559901   631A      4.561337   632A      4.572979  
     633A      4.578314   634A      4.590988   635A      4.604700  
     636A      4.619664   637A      4.632070   638A      4.643726  
     639A      4.648189   640A      4.655160   641A      4.670304  
     642A      4.681475   643A      4.682774   644A      4.692032  
     645A      4.703354   646A      4.711562   647A      4.717786  
     648A      4.734043   649A      4.736575   650A      4.752366  
     651A      4.756093   652A      4.768433   653A      4.778683  
     654A      4.797306   655A      4.803896   656A      4.816330  
     657A      4.829530   658A      4.833390   659A      4.850478  
     660A      4.864484   661A      4.868744   662A      4.876427  
     663A      4.892936   664A      4.900691   665A      4.910469  
     666A      4.923285   667A      4.930905   668A      4.933406  
     669A      4.953441   670A      4.958436   671A      4.970323  
     672A      4.981325   673A      4.992475   674A      5.004626  
     675A      5.013883   676A      5.027916   677A      5.036558  
     678A      5.041974   679A      5.061135   680A      5.069862  
     681A      5.083369   682A      5.091117   683A      5.102441  
     684A      5.110495   685A      5.119342   686A      5.128569  
     687A      5.146679   688A      5.156161   689A      5.162718  
     690A      5.176562   691A      5.185715   692A      5.193897  
     693A      5.215120   694A      5.225399   695A      5.228326  
     696A      5.251610   697A      5.267786   698A      5.275505  
     699A      5.278030   700A      5.295541   701A      5.300514  
     702A      5.311505   703A      5.317642   704A      5.327033  
     705A      5.350591   706A      5.354478   707A      5.364477  
     708A      5.365228   709A      5.393684   710A      5.414543  
     711A      5.432402   712A      5.446950   713A      5.470734  
     714A      5.472289   715A      5.488334   716A      5.492737  
     717A      5.504878   718A      5.523406   719A      5.530965  
     720A      5.543967   721A      5.559872   722A      5.582687  
     723A      5.593328   724A      5.613962   725A      5.640409  
     726A      5.652860   727A      5.688152   728A      5.694491  
     729A      5.721971   730A      5.729081   731A      5.758422  
     732A      5.781618   733A      5.793950   734A      5.814521  
     735A      5.823521   736A      5.861945   737A      5.864867  
     738A      5.871685   739A      5.889196   740A      5.918776  
     741A      5.920834   742A      5.931440   743A      5.954116  
     744A      5.958779   745A      5.979056   746A      5.986445  
     747A      6.011021   748A      6.033141   749A      6.043975  
     750A      6.068574   751A      6.080918   752A      6.099499  
     753A      6.115328   754A      6.119939   755A      6.148004  
     756A      6.154068   757A      6.198170   758A      6.214183  
     759A      6.231252   760A      6.247694   761A      6.263781  
     762A      6.299639   763A      6.329581   764A      6.354764  
     765A      6.387042   766A      6.412393   767A      6.428508  
     768A      6.466578   769A      6.483703   770A      6.493977  
     771A      6.504452   772A      6.586401   773A      6.643100  
     774A      6.666386   775A      6.691947   776A      6.703093  
     777A      6.755634   778A      6.898764   779A      6.944670  
     780A      6.958861   781A      6.977678   782A      6.984075  
     783A      7.024889   784A      7.029892   785A      7.050957  
     786A      7.069393   787A      7.098209   788A      7.118732  
     789A      7.140807   790A      7.149844   791A      7.159208  
     792A      7.197823   793A      7.876044   794A      7.880568  
     795A      7.902842   796A      7.905808   797A      7.917540  
     798A      7.928169   799A      7.940795   800A      7.950160  
     801A      7.959609   802A      7.976273   803A      7.985103  
     804A      8.008463   805A      8.020851   806A      8.051349  
     807A      8.055686   808A      8.064580   809A      8.092433  
     810A      8.118644   811A      8.150337   812A      8.177628  
     813A      8.187244   814A      8.227400   815A      8.232892  
     816A      8.257228   817A      8.282668   818A      8.309043  
     819A      8.346429   820A      8.406168   821A      8.455440  
     822A      8.511016   823A      8.701764   824A      8.719331  
     825A      8.740303   826A      8.831673   827A      8.860448  
     828A      8.911400   829A      8.921583   830A      8.940722  
     831A      8.967863   832A      8.987568   833A      9.012201  
     834A      9.029925   835A      9.046757   836A      9.066350  
     837A      9.079090   838A      9.087661   839A      9.105187  
     840A      9.122516   841A      9.169124   842A      9.198004  
     843A      9.230366   844A      9.259822   845A      9.296713  
     846A      9.305324   847A      9.356392   848A      9.381820  
     849A      9.498798   850A      9.544506   851A      9.631205  
     852A      9.692810   853A      9.836784   854A      9.860360  
     855A      9.919127   856A      9.938007   857A      9.981075  
     858A      9.990928   859A     10.022762   860A     10.034041  
     861A     10.044646   862A     10.050857   863A     10.066176  
     864A     10.088195   865A     10.117737   866A     10.125843  
     867A     10.174608   868A     10.183664   869A     10.193446  
     870A     10.251583   871A     10.294660   872A     10.303797  
     873A     10.385534   874A     10.442672   875A     10.791869  
     876A     10.808693   877A     10.820062   878A     10.841899  
     879A     10.865252   880A     10.892044   881A     10.896776  
     882A     10.908997   883A     10.919582   884A     10.944460  
     885A     10.956544   886A     10.967751   887A     10.994166  
     888A     10.998296   889A     11.002023   890A     11.016806  
     891A     11.032182   892A     11.038298   893A     11.043770  
     894A     11.053406   895A     11.071661   896A     11.076636  
     897A     11.084104   898A     11.098351   899A     11.108515  
     900A     11.117893   901A     11.127175   902A     11.140492  
     903A     11.144570   904A     11.162911   905A     11.166123  
     906A     11.170511   907A     11.182525   908A     11.190460  
     909A     11.209283   910A     11.214979   911A     11.221699  
     912A     11.237156   913A     11.261280   914A     11.264583  
     915A     11.274161   916A     11.288644   917A     11.313880  
     918A     11.330163   919A     11.342064   920A     11.372937  
     921A     11.375093   922A     11.388539   923A     11.404269  
     924A     11.430448   925A     11.452259   926A     11.459105  
     927A     11.466762   928A     11.483714   929A     11.504256  
     930A     11.531001   931A     11.544524   932A     11.567462  
     933A     11.575890   934A     11.592658   935A     11.615903  
     936A     11.640111   937A     11.686095   938A     11.709502  
     939A     11.722250   940A     11.740744   941A     11.766570  
     942A     11.780654   943A     11.811106   944A     11.831640  
     945A     11.849812   946A     11.861666   947A     11.866932  
     948A     11.888739   949A     11.902008   950A     11.911281  
     951A     11.936403   952A     11.957133   953A     11.968615  
     954A     11.985047   955A     11.997351   956A     12.014202  
     957A     12.048328   958A     12.058639   959A     12.083406  
     960A     12.092483   961A     12.107506   962A     12.122049  
     963A     12.129004   964A     12.145036   965A     12.156350  
     966A     12.164066   967A     12.174594   968A     12.187982  
     969A     12.193685   970A     12.201551   971A     12.218169  
     972A     12.232796   973A     12.243822   974A     12.251208  
     975A     12.265607   976A     12.277641   977A     12.286882  
     978A     12.302082   979A     12.315560   980A     12.332298  
     981A     12.341398   982A     12.353186   983A     12.371531  
     984A     12.379846   985A     12.399779   986A     12.422893  
     987A     12.435544   988A     12.445181   989A     12.457270  
     990A     12.474687   991A     12.497830   992A     12.517084  
     993A     12.525726   994A     12.540969   995A     12.554778  
     996A     12.570235   997A     12.584414   998A     12.605079  
     999A     12.643611  1000A     12.666260  1001A     12.691397  
    1002A     12.702314  1003A     12.741291  1004A     12.754589  
    1005A     12.789342  1006A     12.854156  1007A     12.868718  
    1008A     12.884792  1009A     12.904607  1010A     12.929108  
    1011A     12.937991  1012A     12.971421  1013A     12.991850  
    1014A     13.046434  1015A     13.066318  1016A     13.124368  
    1017A     13.157963  1018A     13.163727  1019A     13.180471  
    1020A     13.227334  1021A     13.250676  1022A     13.280496  
    1023A     13.349227  1024A     13.371539  1025A     13.386450  
    1026A     13.404230  1027A     13.429002  1028A     13.447744  
    1029A     13.466331  1030A     13.474015  1031A     13.484148  
    1032A     13.495182  1033A     13.506133  1034A     13.519376  
    1035A     13.545261  1036A     13.561481  1037A     13.567300  
    1038A     13.610809  1039A     13.619974  1040A     13.674189  
    1041A     13.693752  1042A     13.704636  1043A     13.735411  
    1044A     13.784527  1045A     13.825711  1046A     13.891642  
    1047A     13.991806  1048A     14.092905  1049A     14.297879  
    1050A     14.406344  1051A     14.569819  1052A     14.585358  
    1053A     14.597051  1054A     14.607365  1055A     14.629107  
    1056A     14.638559  1057A     14.676352  1058A     14.704280  
    1059A     14.715383  1060A     14.736756  1061A     14.755423  
    1062A     14.788040  1063A     14.891262  1064A     14.903841  
    1065A     14.931204  1066A     14.965458  1067A     15.062964  
    1068A     15.123335  1069A     17.218993  1070A     17.225330  
    1071A     17.246673  1072A     17.279315  1073A     17.341246  
    1074A     17.359344  1075A     21.877395  1076A     22.073944  
    1077A     44.167005  1078A     44.516588  1079A     44.913487  
    1080A     45.012419  1081A     45.202781  1082A     45.255028  
    1083A     45.389386  1084A     45.567297  

    Final Occupation by Irrep:
              A 
    DOCC [    50 ]

  @DF-RHF Final Energy: -1284.52613305698424

   => Energetics <=

    Nuclear Repulsion Energy =            866.9442481527164546
    One-Electron Energy =               -3502.9830118324744035
    Two-Electron Energy =                1351.5126306227734858
    Total Energy =                      -1284.5261330569842357

Computation Completed


Properties will be evaluated at   0.000000,   0.000000,   0.000000 [a0]

Properties computed using the SCF density matrix

  Nuclear Dipole Moment: [e a0]
     X:     0.3761      Y:     1.8656      Z:    -1.7094

  Electronic Dipole Moment: [e a0]
     X:    -0.1026      Y:    -0.7651      Z:     0.2647

  Dipole Moment: [e a0]
     X:     0.2735      Y:     1.1005      Z:    -1.4447     Total:     1.8366

  Dipole Moment: [D]
     X:     0.6952      Y:     2.7972      Z:    -3.6720     Total:     4.6680


*** tstop() called on node36.bme.utexas.edu at Sat Apr 11 17:29:53 2020
Module time:
	user time   =     876.61 seconds =      14.61 minutes
	system time =      49.76 seconds =       0.83 minutes
	total time  =        164 seconds =       2.73 minutes
Total time:
	user time   =    4259.41 seconds =      70.99 minutes
	system time =     203.86 seconds =       3.40 minutes
	total time  =        856 seconds =      14.27 minutes

*** tstart() called on node36.bme.utexas.edu
*** at Sat Apr 11 17:29:53 2020


  //>>>>>>>>>>>>>>>>>>>>>>>>>>>>>>>>>>>//
  //               DFMP2               //
  //<<<<<<<<<<<<<<<<<<<<<<<<<<<<<<<<<<<//

   => Loading Basis Set <=

    Name: (AUG-CC-PVQZ AUX)
    Role: RIFIT
    Keyword: DF_BASIS_MP2
    atoms 1, 9       entry P          line   734 file /home/liuchw/anaconda3/envs/psi4env/share/psi4/basis/aug-cc-pvqz-ri.gbs 
    atoms 2-5, 10-13 entry O          line   332 file /home/liuchw/anaconda3/envs/psi4env/share/psi4/basis/aug-cc-pvqz-ri.gbs 
    atoms 6-8, 14-16 entry H          line    30 file /home/liuchw/anaconda3/envs/psi4env/share/psi4/basis/aug-cc-pvqz-ri.gbs 

	 --------------------------------------------------------
	                          DF-MP2                         
	      2nd-Order Density-Fitted Moller-Plesset Theory     
	              RMP2 Wavefunction,   6 Threads             
	                                                         
	        Rob Parrish, Justin Turney, Andy Simmonett,      
	           Ed Hohenstein, and C. David Sherrill          
	 --------------------------------------------------------

   => Auxiliary Basis Set <=

  Basis Set: (AUG-CC-PVQZ AUX)
    Blend: AUG-CC-PVQZ-RI
    Number of shells: 496
    Number of basis function: 2212
    Number of Cartesian functions: 3062
    Spherical Harmonics?: true
    Max angular momentum: 5

	 --------------------------------------------------------
	                 NBF =  1084, NAUX =  2212
	 --------------------------------------------------------
	   CLASS    FOCC     OCC    AOCC    AVIR     VIR    FVIR
	   PAIRS       0      50      50    1034    1034       0
	 --------------------------------------------------------

	-----------------------------------------------------------
	 ==================> DF-MP2 Energies <==================== 
	-----------------------------------------------------------
	 Reference Energy          =   -1284.5261330569842357 [Eh]
	 Singles Energy            =      -0.0000000000000000 [Eh]
	 Same-Spin Energy          =      -0.6946668055526835 [Eh]
	 Opposite-Spin Energy      =      -2.0981509397109388 [Eh]
	 Correlation Energy        =      -2.7928177452636223 [Eh]
	 Total Energy              =   -1287.3189508022478549 [Eh]
	-----------------------------------------------------------
	 ================> DF-SCS-MP2 Energies <================== 
	-----------------------------------------------------------
	 SCS Same-Spin Scale       =       0.3333333333333333 [-]
	 SCS Opposite-Spin Scale   =       1.2000000000000000 [-]
	 SCS Same-Spin Energy      =      -0.2315556018508945 [Eh]
	 SCS Opposite-Spin Energy  =      -2.5177811276531266 [Eh]
	 SCS Correlation Energy    =      -2.7493367295040212 [Eh]
	 SCS Total Energy          =   -1287.2754697864882019 [Eh]
	-----------------------------------------------------------


*** tstop() called on node36.bme.utexas.edu at Sat Apr 11 17:32:20 2020
Module time:
	user time   =     677.33 seconds =      11.29 minutes
	system time =      37.18 seconds =       0.62 minutes
	total time  =        147 seconds =       2.45 minutes
Total time:
	user time   =    4936.75 seconds =      82.28 minutes
	system time =     241.04 seconds =       4.02 minutes
	total time  =       1003 seconds =      16.72 minutes

  //>>>>>>>>>>>>>>>>>>>>>>>>>>>>>>>>>>>//
  //  CBS Results: mp2/aug-cc-pv[tq]z  //
  //<<<<<<<<<<<<<<<<<<<<<<<<<<<<<<<<<<<//


   ==> HF <==

   HI-zeta (4) Energy:               -1284.526133056984


   ==> Helgaker 2-point correlated extrapolation for method: MP2 <==

   LO-zeta (3) Energy:               -1286.966643961094
   HI-zeta (4) Energy:               -1287.318950802248
   Alpha (exponent) Value:             3.000000000000
   Extrapolated Energy:              -1287.576039578225

   @Extrapolated MP2/(T,Q):          -1287.576039578225



   ==> Helgaker 2-point correlated extrapolation for method: HF <==

   LO-zeta (3) Energy:               -1284.460602854690
   HI-zeta (4) Energy:               -1284.526133056984
   Alpha (exponent) Value:             3.000000000000
   Extrapolated Energy:              -1284.573952393794

   @Extrapolated HF/(T,Q):           -1284.573952393794


   ==> Components <==

  ---------------------------------------------------------------------------------------------------------
                          Method / Basis                      Rqd      Energy [Eh]   Variable
  ---------------------------------------------------------------------------------------------------------
                              hf / aug-cc-pvtz                  *   -1284.46060285   HF TOTAL ENERGY
                             mp2 / aug-cc-pvtz                  *   -1286.96664396   MP2 TOTAL ENERGY
                              hf / aug-cc-pvqz                  *   -1284.52613306   HF TOTAL ENERGY
                             mp2 / aug-cc-pvqz                  *   -1287.31895080   MP2 TOTAL ENERGY
  ---------------------------------------------------------------------------------------------------------

   ==> Stages <==

  ---------------------------------------------------------------------------------------------------------
      Stage               Method / Basis                       Wt      Energy [Eh]   Scheme
  ---------------------------------------------------------------------------------------------------------
        scf                   hf / aug-cc-pvqz                  1   -1284.52613306   xtpl_highest_1
       corl                  mp2 / aug-cc-pv[tq]z               1   -1287.57603958   corl_xtpl_helgaker_2
       corl                   hf / aug-cc-pv[tq]z              -1   -1284.57395239   corl_xtpl_helgaker_2
  ---------------------------------------------------------------------------------------------------------

   ==> CBS <==

  ---------------------------------------------------------------------------------------------------------
      Stage               Method / Basis                               Energy [Eh]   Scheme
  ---------------------------------------------------------------------------------------------------------
        scf                   hf / aug-cc-pvqz                      -1284.52613306   xtpl_highest_1
       corl                  mp2 / aug-cc-pv[tq]z                      -3.00208718   corl_xtpl_helgaker_2
      total                  CBS                                    -1287.52822024   
  ---------------------------------------------------------------------------------------------------------
   => Loading Basis Set <=

    Name: DEF2-SVP
    Role: ORBITAL
    Keyword: BASIS
    atoms 1, 9       entry P          line   300 file /home/liuchw/anaconda3/envs/psi4env/share/psi4/basis/def2-svp.gbs 
    atoms 2-5, 10-13 entry O          line   130 file /home/liuchw/anaconda3/envs/psi4env/share/psi4/basis/def2-svp.gbs 
    atoms 6-8, 14-16 entry H          line    15 file /home/liuchw/anaconda3/envs/psi4env/share/psi4/basis/def2-svp.gbs 


       N-Body: Complex Energy (fragments = (1, 2), basis = (1, 2): -1287.52822024141528)

   ==> N-Body: Counterpoise Corrected (CP) energies <==

   n-Body     Total Energy [Eh]       I.E. [kcal/mol]      Delta [kcal/mol]
        1    -1287.496227688609        0.000000000000        0.000000000000
        2    -1287.527757350291      -19.785161410768      -19.785161410768

   => Loading Basis Set <=

    Name: DEF2-SVP
    Role: ORBITAL
    Keyword: BASIS
    atoms 1, 9       entry P          line   300 file /home/liuchw/anaconda3/envs/psi4env/share/psi4/basis/def2-svp.gbs 
    atoms 2-5, 10-13 entry O          line   130 file /home/liuchw/anaconda3/envs/psi4env/share/psi4/basis/def2-svp.gbs 
    atoms 6-8, 14-16 entry H          line    15 file /home/liuchw/anaconda3/envs/psi4env/share/psi4/basis/def2-svp.gbs 


    Psi4 stopped on: Saturday, 11 April 2020 05:32PM
    Psi4 wall time for execution: 0:16:44.22

*** Psi4 exiting successfully. Buy a developer a beer!
