
    -----------------------------------------------------------------------
          Psi4: An Open-Source Ab Initio Electronic Structure Package
                               Psi4 1.4a2.dev224 

                         Git: Rev {master} e453b16 


    R. M. Parrish, L. A. Burns, D. G. A. Smith, A. C. Simmonett,
    A. E. DePrince III, E. G. Hohenstein, U. Bozkaya, A. Yu. Sokolov,
    R. Di Remigio, R. M. Richard, J. F. Gonthier, A. M. James,
    H. R. McAlexander, A. Kumar, M. Saitow, X. Wang, B. P. Pritchard,
    P. Verma, H. F. Schaefer III, K. Patkowski, R. A. King, E. F. Valeev,
    F. A. Evangelista, J. M. Turney, T. D. Crawford, and C. D. Sherrill,
    J. Chem. Theory Comput. 13(7) pp 3185--3197 (2017).
    (doi: 10.1021/acs.jctc.7b00174)


                         Additional Contributions by
    P. Kraus, H. Kruse, M. H. Lechner, M. C. Schieber, R. A. Shaw,
    A. Alenaizan, R. Galvelis, Z. L. Glick, S. Lehtola, and J. P. Misiewicz

    -----------------------------------------------------------------------


    Psi4 started on: Saturday, 11 April 2020 04:20PM

    Process ID: 118371
    Host:       node51.bme.utexas.edu
    PSIDATADIR: /home/liuchw/anaconda3/envs/psi4env/share/psi4
    Memory:     500.0 MiB
    Threads:    6
    
  ==> Input File <==

--------------------------------------------------------------------------
#Generated by lconvert.py for cbs job

memory 40 GB

molecule  {
0 1
  F       -0.9143240     0.0000120     0.0000000
  C       -2.2973460     0.0000230     0.0000000
  H       -2.6517400     1.0270620    -0.0000010
  H       -2.6517520    -0.5134920     0.8894400
  H       -2.6517530    -0.5134930    -0.8894390
--
0 1
  F        2.5904730     0.0000190     0.0000010
  C        1.2071070     0.0000180    -0.0000000
  H        0.8492740     1.0254190    -0.0000000
  H        0.8492750    -0.5126840     0.8880230
  H        0.8492760    -0.5126830    -0.8880250
units angstrom
no_reorient
symmetry c1
}

set {
scf_type DF
mp2_type DF
e_convergence 7
reference rhf
}

energy('mp2/aug-cc-pv[tq]z', bsse_type='cp')
--------------------------------------------------------------------------

  Memory set to  37.253 GiB by Python driver.

Scratch directory: /scratch//


   ===> N-Body Interaction Abacus <===
        BSSE Treatment:                     cp
        Number of 1-body computations:     4
        Number of 2-body computations:     1

   ==> N-Body: Now computing 1-body complexes <==


       N-Body: Computing complex (1/4) with fragments (2,) in the basis of fragments (2,).


Scratch directory: /scratch//

  //>>>>>>>>>>>>>>>>>>>>>>>>>>>>>>>>>>>//
  //   CBS Setup: mp2/aug-cc-pv[tq]z   //
  //<<<<<<<<<<<<<<<<<<<<<<<<<<<<<<<<<<<//

    Naive listing of computations required.
             hf / aug-cc-pvqz              for  HF TOTAL ENERGY
            mp2 / aug-cc-pvtz              for  MP2 TOTAL ENERGY
            mp2 / aug-cc-pvqz              for  MP2 TOTAL ENERGY
             hf / aug-cc-pvtz              for  HF TOTAL ENERGY
             hf / aug-cc-pvqz              for  HF TOTAL ENERGY

    Enlightened listing of computations required.
            mp2 / aug-cc-pvtz              for  MP2 TOTAL ENERGY
            mp2 / aug-cc-pvqz              for  MP2 TOTAL ENERGY

    Full listing of computations to be obtained (required and bonus).
             hf / aug-cc-pvtz              for  HF TOTAL ENERGY
            mp2 / aug-cc-pvtz              for  MP2 TOTAL ENERGY
             hf / aug-cc-pvqz              for  HF TOTAL ENERGY
            mp2 / aug-cc-pvqz              for  MP2 TOTAL ENERGY

  //>>>>>>>>>>>>>>>>>>>>>>>>>>>>>>>>>>>>//
  // CBS Computation: MP2 / AUG-CC-PVTZ //
  //<<<<<<<<<<<<<<<<<<<<<<<<<<<<<<<<<<<<//


Scratch directory: /scratch//

*** tstart() called on node51.bme.utexas.edu
*** at Sat Apr 11 16:20:34 2020

   => Loading Basis Set <=

    Name: AUG-CC-PVTZ
    Role: ORBITAL
    Keyword: BASIS
    atoms 1   entry F          line   377 file /home/liuchw/anaconda3/envs/psi4env/share/psi4/basis/aug-cc-pvtz.gbs 
    atoms 2   entry C          line   239 file /home/liuchw/anaconda3/envs/psi4env/share/psi4/basis/aug-cc-pvtz.gbs 
    atoms 3-5 entry H          line    40 file /home/liuchw/anaconda3/envs/psi4env/share/psi4/basis/aug-cc-pvtz.gbs 


         ---------------------------------------------------------
                                   SCF
               by Justin Turney, Rob Parrish, Andy Simmonett
                          and Daniel G. A. Smith
                              RHF Reference
                        6 Threads,  38146 MiB Core
         ---------------------------------------------------------

  ==> Geometry <==

    Molecular point group: c1
    Full point group: C1

    Geometry (in Angstrom), charge = 0, multiplicity = 1:

       Center              X                  Y                   Z               Mass       
    ------------   -----------------  -----------------  -----------------  -----------------
         F            2.394840749400     0.000001203218     0.000000750414    18.998403162730
         C            1.011474749400     0.000000203218    -0.000000249586    12.000000000000
         H            0.653641749400     1.025401203218    -0.000000249586     1.007825032230
         H            0.653642749400    -0.512701796782     0.888022750414     1.007825032230
         H            0.653643749400    -0.512700796782    -0.888025249586     1.007825032230

  Running in c1 symmetry.

  Rotational constants: A =      5.30276  B =      0.13582  C =      0.13582 [cm^-1]
  Rotational constants: A = 158972.75949  B =   4071.72672  C =   4071.72671 [MHz]
  Nuclear repulsion =   37.391659574861947

  Charge       = 0
  Multiplicity = 1
  Electrons    = 18
  Nalpha       = 9
  Nbeta        = 9

  ==> Algorithm <==

  SCF Algorithm Type is DF.
  DIIS enabled.
  MOM disabled.
  Fractional occupation disabled.
  Guess Type is SAD.
  Energy threshold   = 1.00e-07
  Density threshold  = 1.00e-08
  Integral threshold = 0.00e+00

  ==> Primary Basis <==

  Basis Set: AUG-CC-PVTZ
    Blend: AUG-CC-PVTZ
    Number of shells: 55
    Number of basis function: 161
    Number of Cartesian functions: 185
    Spherical Harmonics?: true
    Max angular momentum: 3

   => Loading Basis Set <=

    Name: (AUG-CC-PVTZ AUX)
    Role: JKFIT
    Keyword: DF_BASIS_SCF
    atoms 1   entry F          line   348 file /home/liuchw/anaconda3/envs/psi4env/share/psi4/basis/aug-cc-pvtz-jkfit.gbs 
    atoms 2   entry C          line   162 file /home/liuchw/anaconda3/envs/psi4env/share/psi4/basis/aug-cc-pvtz-jkfit.gbs 
    atoms 3-5 entry H          line    70 file /home/liuchw/anaconda3/envs/psi4env/share/psi4/basis/aug-cc-pvtz-jkfit.gbs 

  ==> Pre-Iterations <==

   -------------------------------------------------------
    Irrep   Nso     Nmo     Nalpha   Nbeta   Ndocc  Nsocc
   -------------------------------------------------------
     A        161     161       0       0       0       0
   -------------------------------------------------------
    Total     161     161       9       9       9       0
   -------------------------------------------------------

  ==> Integral Setup <==

  DFHelper Memory: AOs need 0.074 GiB; user supplied 27.940 GiB. Using in-core AOs.

  ==> MemDFJK: Density-Fitted J/K Matrices <==

    J tasked:                   Yes
    K tasked:                   Yes
    wK tasked:                   No
    OpenMP threads:               6
    Memory [MiB]:             28610
    Algorithm:                 Core
    Schwarz Cutoff:           1E-12
    Mask sparsity (%):       0.0000
    Fitting Condition:        1E-10

   => Auxiliary Basis Set <=

  Basis Set: (AUG-CC-PVTZ AUX)
    Blend: AUG-CC-PVTZ-JKFIT
    Number of shells: 102
    Number of basis function: 346
    Number of Cartesian functions: 427
    Spherical Harmonics?: true
    Max angular momentum: 4

  Minimum eigenvalue in the overlap matrix is 7.9551861966E-05.
  Using Symmetric Orthogonalization.

  SCF Guess: Superposition of Atomic Densities via on-the-fly atomic UHF.

  ==> Iterations <==

                           Total Energy        Delta E     RMS |[F,P]|

   @DF-RHF iter SAD:  -138.43922343033390   -1.38439e+02   0.00000e+00 
   @DF-RHF iter   1:  -139.05983343543028   -6.20610e-01   1.68641e-03 DIIS
   @DF-RHF iter   2:  -139.09202865034302   -3.21952e-02   7.90749e-04 DIIS
   @DF-RHF iter   3:  -139.09680849218361   -4.77984e-03   1.94127e-04 DIIS
   @DF-RHF iter   4:  -139.09735609376273   -5.47602e-04   4.74443e-05 DIIS
   @DF-RHF iter   5:  -139.09739766485060   -4.15711e-05   1.14519e-05 DIIS
   @DF-RHF iter   6:  -139.09739976642405   -2.10157e-06   1.98647e-06 DIIS
   @DF-RHF iter   7:  -139.09739987811756   -1.11694e-07   3.02684e-07 DIIS
   @DF-RHF iter   8:  -139.09739988072374   -2.60619e-09   6.36901e-08 DIIS
   @DF-RHF iter   9:  -139.09739988085698   -1.33241e-10   1.40685e-08 DIIS
   @DF-RHF iter  10:  -139.09739988086304   -6.05382e-12   2.27113e-09 DIIS
  Energy and wave function converged.


  ==> Post-Iterations <==

    Orbital Energies [Eh]
    ---------------------

    Doubly Occupied:                                                      

       1A    -26.279160     2A    -11.305197     3A     -1.587320  
       4A     -0.956571     5A     -0.695688     6A     -0.695688  
       7A     -0.675616     8A     -0.531716     9A     -0.531716  

    Virtual:                                                              

      10A      0.028770    11A      0.046662    12A      0.046662  
      13A      0.074495    14A      0.123483    15A      0.123483  
      16A      0.139328    17A      0.193938    18A      0.205399  
      19A      0.205399    20A      0.225130    21A      0.225130  
      22A      0.236616    23A      0.317971    24A      0.323788  
      25A      0.323788    26A      0.332298    27A      0.332298  
      28A      0.345906    29A      0.384526    30A      0.389058  
      31A      0.389058    32A      0.396280    33A      0.447614  
      34A      0.447614    35A      0.467686    36A      0.475797  
      37A      0.521868    38A      0.521868    39A      0.656264  
      40A      0.656264    41A      0.732701    42A      0.764285  
      43A      0.804968    44A      0.804968    45A      0.874905  
      46A      0.881451    47A      0.881451    48A      0.933217  
      49A      0.941336    50A      0.941336    51A      0.994888  
      52A      1.019051    53A      1.019051    54A      1.035366  
      55A      1.035366    56A      1.053981    57A      1.067026  
      58A      1.069428    59A      1.069428    60A      1.185330  
      61A      1.185330    62A      1.220055    63A      1.237415  
      64A      1.237416    65A      1.254761    66A      1.258552  
      67A      1.258552    68A      1.365608    69A      1.553839  
      70A      1.553839    71A      1.558618    72A      1.595452  
      73A      1.627461    74A      1.627461    75A      1.663677  
      76A      1.678467    77A      1.678467    78A      1.741878  
      79A      1.741878    80A      1.779247    81A      1.887716  
      82A      1.887716    83A      1.901932    84A      2.017401  
      85A      2.017402    86A      2.096360    87A      2.141922  
      88A      2.141922    89A      2.562413    90A      2.698563  
      91A      2.907754    92A      2.938458    93A      2.938459  
      94A      3.041570    95A      3.056881    96A      3.056881  
      97A      3.171186    98A      3.186399    99A      3.250763  
     100A      3.250764   101A      3.437403   102A      3.437403  
     103A      3.513841   104A      3.517663   105A      3.517663  
     106A      3.538598   107A      3.538598   108A      3.542613  
     109A      3.653414   110A      3.752734   111A      3.752734  
     112A      3.862943   113A      3.862943   114A      4.028961  
     115A      4.028961   116A      4.048451   117A      4.091085  
     118A      4.091086   119A      4.141742   120A      4.198286  
     121A      4.417303   122A      4.417303   123A      4.457767  
     124A      4.682044   125A      4.728823   126A      4.728823  
     127A      4.747701   128A      4.747702   129A      4.863893  
     130A      4.929112   131A      4.990006   132A      4.990007  
     133A      5.168745   134A      5.168746   135A      5.306530  
     136A      5.533023   137A      5.621944   138A      5.646138  
     139A      5.646139   140A      5.750142   141A      5.750142  
     142A      5.982190   143A      6.141878   144A      6.141879  
     145A      6.560946   146A      6.560946   147A      7.134157  
     148A      8.952606   149A      8.987588   150A      9.226960  
     151A      9.226960   152A      9.394807   153A      9.425397  
     154A      9.425397   155A      9.459552   156A      9.459552  
     157A      9.823107   158A      9.823107   159A      9.889359  
     160A     15.063861   161A     17.444456  

    Final Occupation by Irrep:
              A 
    DOCC [     9 ]

  @DF-RHF Final Energy:  -139.09739988086304

   => Energetics <=

    Nuclear Repulsion Energy =             37.3916595748619471
    One-Electron Energy =                -266.4607756370351126
    Two-Electron Energy =                  89.9717161813101569
    Total Energy =                       -139.0973998808630085

Computation Completed


Properties will be evaluated at   0.000000,   0.000000,   0.000000 [a0]

Properties computed using the SCF density matrix

  Nuclear Dipole Moment: [e a0]
     X:    55.9044      Y:     0.0000      Z:     0.0000

  Electronic Dipole Moment: [e a0]
     X:   -56.7126      Y:    -0.0000      Z:    -0.0000

  Dipole Moment: [e a0]
     X:    -0.8082      Y:    -0.0000      Z:    -0.0000     Total:     0.8082

  Dipole Moment: [D]
     X:    -2.0543      Y:    -0.0000      Z:    -0.0000     Total:     2.0543


*** tstop() called on node51.bme.utexas.edu at Sat Apr 11 16:20:36 2020
Module time:
	user time   =       9.88 seconds =       0.16 minutes
	system time =       0.63 seconds =       0.01 minutes
	total time  =          2 seconds =       0.03 minutes
Total time:
	user time   =       9.88 seconds =       0.16 minutes
	system time =       0.63 seconds =       0.01 minutes
	total time  =          2 seconds =       0.03 minutes

*** tstart() called on node51.bme.utexas.edu
*** at Sat Apr 11 16:20:36 2020


  //>>>>>>>>>>>>>>>>>>>>>>>>>>>>>>>>>>>//
  //               DFMP2               //
  //<<<<<<<<<<<<<<<<<<<<<<<<<<<<<<<<<<<//

   => Loading Basis Set <=

    Name: (AUG-CC-PVTZ AUX)
    Role: RIFIT
    Keyword: DF_BASIS_MP2
    atoms 1   entry F          line   322 file /home/liuchw/anaconda3/envs/psi4env/share/psi4/basis/aug-cc-pvtz-ri.gbs 
    atoms 2   entry C          line   148 file /home/liuchw/anaconda3/envs/psi4env/share/psi4/basis/aug-cc-pvtz-ri.gbs 
    atoms 3-5 entry H          line    30 file /home/liuchw/anaconda3/envs/psi4env/share/psi4/basis/aug-cc-pvtz-ri.gbs 

	 --------------------------------------------------------
	                          DF-MP2                         
	      2nd-Order Density-Fitted Moller-Plesset Theory     
	              RMP2 Wavefunction,   6 Threads             
	                                                         
	        Rob Parrish, Justin Turney, Andy Simmonett,      
	           Ed Hohenstein, and C. David Sherrill          
	 --------------------------------------------------------

   => Auxiliary Basis Set <=

  Basis Set: (AUG-CC-PVTZ AUX)
    Blend: AUG-CC-PVTZ-RI
    Number of shells: 98
    Number of basis function: 350
    Number of Cartesian functions: 437
    Spherical Harmonics?: true
    Max angular momentum: 4

	 --------------------------------------------------------
	                 NBF =   161, NAUX =   350
	 --------------------------------------------------------
	   CLASS    FOCC     OCC    AOCC    AVIR     VIR    FVIR
	   PAIRS       0       9       9     152     152       0
	 --------------------------------------------------------

	-----------------------------------------------------------
	 ==================> DF-MP2 Energies <==================== 
	-----------------------------------------------------------
	 Reference Energy          =    -139.0973998808630370 [Eh]
	 Singles Energy            =      -0.0000000000000000 [Eh]
	 Same-Spin Energy          =      -0.1097782914842740 [Eh]
	 Opposite-Spin Energy      =      -0.3667401189768106 [Eh]
	 Correlation Energy        =      -0.4765184104610846 [Eh]
	 Total Energy              =    -139.5739182913241336 [Eh]
	-----------------------------------------------------------
	 ================> DF-SCS-MP2 Energies <================== 
	-----------------------------------------------------------
	 SCS Same-Spin Scale       =       0.3333333333333333 [-]
	 SCS Opposite-Spin Scale   =       1.2000000000000000 [-]
	 SCS Same-Spin Energy      =      -0.0365927638280913 [Eh]
	 SCS Opposite-Spin Energy  =      -0.4400881427721727 [Eh]
	 SCS Correlation Energy    =      -0.4766809066002640 [Eh]
	 SCS Total Energy          =    -139.5740807874632878 [Eh]
	-----------------------------------------------------------


*** tstop() called on node51.bme.utexas.edu at Sat Apr 11 16:20:37 2020
Module time:
	user time   =       3.07 seconds =       0.05 minutes
	system time =       0.20 seconds =       0.00 minutes
	total time  =          1 seconds =       0.02 minutes
Total time:
	user time   =      12.95 seconds =       0.22 minutes
	system time =       0.83 seconds =       0.01 minutes
	total time  =          3 seconds =       0.05 minutes

  //>>>>>>>>>>>>>>>>>>>>>>>>>>>>>>>>>>>>//
  // CBS Computation: MP2 / AUG-CC-PVQZ //
  //<<<<<<<<<<<<<<<<<<<<<<<<<<<<<<<<<<<<//


Scratch directory: /scratch//

*** tstart() called on node51.bme.utexas.edu
*** at Sat Apr 11 16:20:37 2020

   => Loading Basis Set <=

    Name: AUG-CC-PVQZ
    Role: ORBITAL
    Keyword: BASIS
    atoms 1   entry F          line   483 file /home/liuchw/anaconda3/envs/psi4env/share/psi4/basis/aug-cc-pvqz.gbs 
    atoms 2   entry C          line   303 file /home/liuchw/anaconda3/envs/psi4env/share/psi4/basis/aug-cc-pvqz.gbs 
    atoms 3-5 entry H          line    40 file /home/liuchw/anaconda3/envs/psi4env/share/psi4/basis/aug-cc-pvqz.gbs 


         ---------------------------------------------------------
                                   SCF
               by Justin Turney, Rob Parrish, Andy Simmonett
                          and Daniel G. A. Smith
                              RHF Reference
                        6 Threads,  38146 MiB Core
         ---------------------------------------------------------

  ==> Geometry <==

    Molecular point group: c1
    Full point group: C1

    Geometry (in Angstrom), charge = 0, multiplicity = 1:

       Center              X                  Y                   Z               Mass       
    ------------   -----------------  -----------------  -----------------  -----------------
         F            2.394840749400     0.000001203218     0.000000750414    18.998403162730
         C            1.011474749400     0.000000203218    -0.000000249586    12.000000000000
         H            0.653641749400     1.025401203218    -0.000000249586     1.007825032230
         H            0.653642749400    -0.512701796782     0.888022750414     1.007825032230
         H            0.653643749400    -0.512700796782    -0.888025249586     1.007825032230

  Running in c1 symmetry.

  Rotational constants: A =      5.30276  B =      0.13582  C =      0.13582 [cm^-1]
  Rotational constants: A = 158972.75949  B =   4071.72672  C =   4071.72671 [MHz]
  Nuclear repulsion =   37.391659574861947

  Charge       = 0
  Multiplicity = 1
  Electrons    = 18
  Nalpha       = 9
  Nbeta        = 9

  ==> Algorithm <==

  SCF Algorithm Type is DF.
  DIIS enabled.
  MOM disabled.
  Fractional occupation disabled.
  Guess Type is SAD.
  Energy threshold   = 1.00e-07
  Density threshold  = 1.00e-08
  Integral threshold = 0.00e+00

  ==> Primary Basis <==

  Basis Set: AUG-CC-PVQZ
    Blend: AUG-CC-PVQZ
    Number of shells: 82
    Number of basis function: 298
    Number of Cartesian functions: 375
    Spherical Harmonics?: true
    Max angular momentum: 4

   => Loading Basis Set <=

    Name: (AUG-CC-PVQZ AUX)
    Role: JKFIT
    Keyword: DF_BASIS_SCF
    atoms 1   entry F          line   388 file /home/liuchw/anaconda3/envs/psi4env/share/psi4/basis/aug-cc-pvqz-jkfit.gbs 
    atoms 2   entry C          line   178 file /home/liuchw/anaconda3/envs/psi4env/share/psi4/basis/aug-cc-pvqz-jkfit.gbs 
    atoms 3-5 entry H          line    70 file /home/liuchw/anaconda3/envs/psi4env/share/psi4/basis/aug-cc-pvqz-jkfit.gbs 

  ==> Pre-Iterations <==

   -------------------------------------------------------
    Irrep   Nso     Nmo     Nalpha   Nbeta   Ndocc  Nsocc
   -------------------------------------------------------
     A        298     298       0       0       0       0
   -------------------------------------------------------
    Total     298     298       9       9       9       0
   -------------------------------------------------------

  ==> Integral Setup <==

  DFHelper Memory: AOs need 0.366 GiB; user supplied 27.940 GiB. Using in-core AOs.

  ==> MemDFJK: Density-Fitted J/K Matrices <==

    J tasked:                   Yes
    K tasked:                   Yes
    wK tasked:                   No
    OpenMP threads:               6
    Memory [MiB]:             28610
    Algorithm:                 Core
    Schwarz Cutoff:           1E-12
    Mask sparsity (%):       0.0135
    Fitting Condition:        1E-10

   => Auxiliary Basis Set <=

  Basis Set: (AUG-CC-PVQZ AUX)
    Blend: AUG-CC-PVQZ-JKFIT
    Number of shells: 122
    Number of basis function: 512
    Number of Cartesian functions: 699
    Spherical Harmonics?: true
    Max angular momentum: 5

  Minimum eigenvalue in the overlap matrix is 2.0835270419E-05.
  Using Symmetric Orthogonalization.

  SCF Guess: Superposition of Atomic Densities via on-the-fly atomic UHF.

  ==> Iterations <==

                           Total Energy        Delta E     RMS |[F,P]|

   @DF-RHF iter SAD:  -138.44697714645508   -1.38447e+02   0.00000e+00 
   @DF-RHF iter   1:  -139.06922065556554   -6.22244e-01   9.19099e-04 DIIS
   @DF-RHF iter   2:  -139.10150632777098   -3.22857e-02   4.28599e-04 DIIS
   @DF-RHF iter   3:  -139.10628350991578   -4.77718e-03   1.06277e-04 DIIS
   @DF-RHF iter   4:  -139.10683318663339   -5.49677e-04   2.59488e-05 DIIS
   @DF-RHF iter   5:  -139.10687657299488   -4.33864e-05   6.36685e-06 DIIS
   @DF-RHF iter   6:  -139.10687874462027   -2.17163e-06   1.12634e-06 DIIS
   @DF-RHF iter   7:  -139.10687886312300   -1.18503e-07   1.69916e-07 DIIS
   @DF-RHF iter   8:  -139.10687886590509   -2.78209e-09   3.60300e-08 DIIS
   @DF-RHF iter   9:  -139.10687886605132   -1.46230e-10   8.14756e-09 DIIS
  Energy and wave function converged.


  ==> Post-Iterations <==

    Orbital Energies [Eh]
    ---------------------

    Doubly Occupied:                                                      

       1A    -26.275579     2A    -11.304218     3A     -1.586143  
       4A     -0.956337     5A     -0.695740     6A     -0.695740  
       7A     -0.675568     8A     -0.531870     9A     -0.531869  

    Virtual:                                                              

      10A      0.025643    11A      0.041850    12A      0.041850  
      13A      0.064953    14A      0.106149    15A      0.106149  
      16A      0.122468    17A      0.156799    18A      0.177035  
      19A      0.177035    20A      0.185285    21A      0.185285  
      22A      0.200632    23A      0.259042    24A      0.261814  
      25A      0.261814    26A      0.272543    27A      0.272543  
      28A      0.274624    29A      0.286039    30A      0.292824  
      31A      0.292824    32A      0.325849    33A      0.377215  
      34A      0.377215    35A      0.393988    36A      0.412691  
      37A      0.417941    38A      0.417941    39A      0.535852  
      40A      0.535852    41A      0.590690    42A      0.599171  
      43A      0.599171    44A      0.618576    45A      0.670016  
      46A      0.681495    47A      0.681495    48A      0.717282  
      49A      0.717282    50A      0.720131    51A      0.727696  
      52A      0.727696    53A      0.731021    54A      0.784828  
      55A      0.785177    56A      0.792425    57A      0.792425  
      58A      0.796212    59A      0.796212    60A      0.872581  
      61A      0.878026    62A      0.878026    63A      0.901557  
      64A      0.901557    65A      0.917289    66A      0.978185  
      67A      0.989918    68A      0.989918    69A      1.067827  
      70A      1.083884    71A      1.083884    72A      1.127296  
      73A      1.155535    74A      1.155535    75A      1.164800  
      76A      1.210975    77A      1.210975    78A      1.284252  
      79A      1.284252    80A      1.291711    81A      1.352111  
      82A      1.418509    83A      1.418509    84A      1.495544  
      85A      1.509403    86A      1.509403    87A      1.591584  
      88A      1.618007    89A      1.618007    90A      1.770987  
      91A      1.783190    92A      1.783190    93A      1.837197  
      94A      1.837197    95A      1.842117    96A      1.852080  
      97A      1.880328    98A      1.880328    99A      1.934228  
     100A      1.934228   101A      1.955399   102A      1.976584  
     103A      1.976585   104A      2.021572   105A      2.028055  
     106A      2.034287   107A      2.034287   108A      2.082304  
     109A      2.100964   110A      2.118455   111A      2.118455  
     112A      2.152623   113A      2.181367   114A      2.181367  
     115A      2.195248   116A      2.230241   117A      2.231772  
     118A      2.260278   119A      2.260278   120A      2.292938  
     121A      2.292938   122A      2.366797   123A      2.366797  
     124A      2.386293   125A      2.545270   126A      2.545270  
     127A      2.621830   128A      2.654550   129A      2.654550  
     130A      2.721495   131A      2.732178   132A      2.732178  
     133A      2.738057   134A      2.745241   135A      2.787267  
     136A      2.787267   137A      2.859489   138A      2.859489  
     139A      2.883965   140A      2.942969   141A      2.942969  
     142A      3.061658   143A      3.062822   144A      3.062822  
     145A      3.157949   146A      3.207256   147A      3.207256  
     148A      3.295581   149A      3.370968   150A      3.370969  
     151A      3.517563   152A      3.517563   153A      3.579601  
     154A      3.618637   155A      3.754740   156A      3.754740  
     157A      3.812771   158A      3.849825   159A      3.879136  
     160A      3.879137   161A      4.039791   162A      4.081288  
     163A      4.081288   164A      4.122236   165A      4.170912  
     166A      4.170912   167A      4.223928   168A      4.223928  
     169A      4.266548   170A      4.266548   171A      4.547218  
     172A      4.565320   173A      4.565320   174A      4.863818  
     175A      4.874952   176A      4.874953   177A      4.880520  
     178A      5.000056   179A      5.000056   180A      5.077558  
     181A      5.297863   182A      5.436696   183A      5.448535  
     184A      5.448535   185A      5.499615   186A      5.499616  
     187A      5.661127   188A      5.740890   189A      5.760453  
     190A      5.829056   191A      5.829056   192A      5.833457  
     193A      5.971006   194A      5.971006   195A      5.985109  
     196A      6.045059   197A      6.045060   198A      6.200102  
     199A      6.317508   200A      6.496722   201A      6.496723  
     202A      6.531849   203A      6.531849   204A      6.549350  
     205A      6.549350   206A      6.591856   207A      6.736521  
     208A      6.795478   209A      6.795479   210A      6.821639  
     211A      6.824969   212A      6.883309   213A      6.883309  
     214A      7.015881   215A      7.015882   216A      7.150917  
     217A      7.170841   218A      7.170841   219A      7.420992  
     220A      7.420993   221A      7.429209   222A      7.592533  
     223A      7.601301   224A      7.601301   225A      7.667344  
     226A      7.667345   227A      7.760760   228A      7.877040  
     229A      7.877040   230A      7.974685   231A      8.043761  
     232A      8.043762   233A      8.272074   234A      8.395537  
     235A      8.395537   236A      8.472589   237A      8.595512  
     238A      8.595512   239A      8.742984   240A      8.742985  
     241A      8.916186   242A      8.941892   243A      8.941893  
     244A      9.077971   245A      9.164661   246A      9.164661  
     247A      9.250989   248A      9.280772   249A      9.315600  
     250A      9.450002   251A      9.450003   252A      9.650461  
     253A      9.650462   254A      9.715219   255A      9.844697  
     256A      9.844697   257A      9.986853   258A     10.156562  
     259A     10.156562   260A     10.157233   261A     10.369160  
     262A     10.369161   263A     10.579137   264A     10.798496  
     265A     10.798498   266A     10.903293   267A     11.043750  
     268A     11.043752   269A     11.468402   270A     13.114884  
     271A     13.114889   272A     13.490131   273A     13.789323  
     274A     13.789323   275A     14.051779   276A     14.070480  
     277A     14.140332   278A     14.140333   279A     14.255068  
     280A     14.255068   281A     14.375478   282A     14.375478  
     283A     14.380249   284A     15.013194   285A     16.001681  
     286A     16.007211   287A     16.212641   288A     16.212642  
     289A     16.699736   290A     16.699737   291A     16.809914  
     292A     17.155715   293A     17.155716   294A     17.625583  
     295A     17.625583   296A     17.950567   297A     29.164656  
     298A     56.273621  

    Final Occupation by Irrep:
              A 
    DOCC [     9 ]

  @DF-RHF Final Energy:  -139.10687886605132

   => Energetics <=

    Nuclear Repulsion Energy =             37.3916595748619471
    One-Electron Energy =                -266.4909501712479596
    Two-Electron Energy =                  89.9924117303347089
    Total Energy =                       -139.1068788660513178

Computation Completed


Properties will be evaluated at   0.000000,   0.000000,   0.000000 [a0]

Properties computed using the SCF density matrix

  Nuclear Dipole Moment: [e a0]
     X:    55.9044      Y:     0.0000      Z:     0.0000

  Electronic Dipole Moment: [e a0]
     X:   -56.7109      Y:    -0.0000      Z:    -0.0000

  Dipole Moment: [e a0]
     X:    -0.8064      Y:    -0.0000      Z:    -0.0000     Total:     0.8064

  Dipole Moment: [D]
     X:    -2.0498      Y:    -0.0000      Z:    -0.0000     Total:     2.0498


*** tstop() called on node51.bme.utexas.edu at Sat Apr 11 16:20:40 2020
Module time:
	user time   =      16.94 seconds =       0.28 minutes
	system time =       0.95 seconds =       0.02 minutes
	total time  =          3 seconds =       0.05 minutes
Total time:
	user time   =      29.92 seconds =       0.50 minutes
	system time =       1.78 seconds =       0.03 minutes
	total time  =          6 seconds =       0.10 minutes

*** tstart() called on node51.bme.utexas.edu
*** at Sat Apr 11 16:20:40 2020


  //>>>>>>>>>>>>>>>>>>>>>>>>>>>>>>>>>>>//
  //               DFMP2               //
  //<<<<<<<<<<<<<<<<<<<<<<<<<<<<<<<<<<<//

   => Loading Basis Set <=

    Name: (AUG-CC-PVQZ AUX)
    Role: RIFIT
    Keyword: DF_BASIS_MP2
    atoms 1   entry F          line   406 file /home/liuchw/anaconda3/envs/psi4env/share/psi4/basis/aug-cc-pvqz-ri.gbs 
    atoms 2   entry C          line   184 file /home/liuchw/anaconda3/envs/psi4env/share/psi4/basis/aug-cc-pvqz-ri.gbs 
    atoms 3-5 entry H          line    30 file /home/liuchw/anaconda3/envs/psi4env/share/psi4/basis/aug-cc-pvqz-ri.gbs 

	 --------------------------------------------------------
	                          DF-MP2                         
	      2nd-Order Density-Fitted Moller-Plesset Theory     
	              RMP2 Wavefunction,   6 Threads             
	                                                         
	        Rob Parrish, Justin Turney, Andy Simmonett,      
	           Ed Hohenstein, and C. David Sherrill          
	 --------------------------------------------------------

   => Auxiliary Basis Set <=

  Basis Set: (AUG-CC-PVQZ AUX)
    Blend: AUG-CC-PVQZ-RI
    Number of shells: 132
    Number of basis function: 576
    Number of Cartesian functions: 789
    Spherical Harmonics?: true
    Max angular momentum: 5

	 --------------------------------------------------------
	                 NBF =   298, NAUX =   576
	 --------------------------------------------------------
	   CLASS    FOCC     OCC    AOCC    AVIR     VIR    FVIR
	   PAIRS       0       9       9     289     289       0
	 --------------------------------------------------------

	-----------------------------------------------------------
	 ==================> DF-MP2 Energies <==================== 
	-----------------------------------------------------------
	 Reference Energy          =    -139.1068788660513178 [Eh]
	 Singles Energy            =      -0.0000000000000000 [Eh]
	 Same-Spin Energy          =      -0.1175819544856211 [Eh]
	 Opposite-Spin Energy      =      -0.4173162091552930 [Eh]
	 Correlation Energy        =      -0.5348981636409141 [Eh]
	 Total Energy              =    -139.6417770296922356 [Eh]
	-----------------------------------------------------------
	 ================> DF-SCS-MP2 Energies <================== 
	-----------------------------------------------------------
	 SCS Same-Spin Scale       =       0.3333333333333333 [-]
	 SCS Opposite-Spin Scale   =       1.2000000000000000 [-]
	 SCS Same-Spin Energy      =      -0.0391939848285404 [Eh]
	 SCS Opposite-Spin Energy  =      -0.5007794509863516 [Eh]
	 SCS Correlation Energy    =      -0.5399734358148920 [Eh]
	 SCS Total Energy          =    -139.6468523018662040 [Eh]
	-----------------------------------------------------------


*** tstop() called on node51.bme.utexas.edu at Sat Apr 11 16:20:42 2020
Module time:
	user time   =       6.70 seconds =       0.11 minutes
	system time =       0.28 seconds =       0.00 minutes
	total time  =          2 seconds =       0.03 minutes
Total time:
	user time   =      36.63 seconds =       0.61 minutes
	system time =       2.06 seconds =       0.03 minutes
	total time  =          8 seconds =       0.13 minutes

  //>>>>>>>>>>>>>>>>>>>>>>>>>>>>>>>>>>>//
  //  CBS Results: mp2/aug-cc-pv[tq]z  //
  //<<<<<<<<<<<<<<<<<<<<<<<<<<<<<<<<<<<//


   ==> HF <==

   HI-zeta (4) Energy:               -139.106878866051


   ==> Helgaker 2-point correlated extrapolation for method: MP2 <==

   LO-zeta (3) Energy:               -139.573918291324
   HI-zeta (4) Energy:               -139.641777029692
   Alpha (exponent) Value:             3.000000000000
   Extrapolated Energy:              -139.691295568501

   @Extrapolated MP2/(T,Q):          -139.691295568501



   ==> Helgaker 2-point correlated extrapolation for method: HF <==

   LO-zeta (3) Energy:               -139.097399880863
   HI-zeta (4) Energy:               -139.106878866051
   Alpha (exponent) Value:             3.000000000000
   Extrapolated Energy:              -139.113795963351

   @Extrapolated HF/(T,Q):           -139.113795963351


   ==> Components <==

  ---------------------------------------------------------------------------------------------------------
                          Method / Basis                      Rqd      Energy [Eh]   Variable
  ---------------------------------------------------------------------------------------------------------
                              hf / aug-cc-pvtz                  *    -139.09739988   HF TOTAL ENERGY
                             mp2 / aug-cc-pvtz                  *    -139.57391829   MP2 TOTAL ENERGY
                              hf / aug-cc-pvqz                  *    -139.10687887   HF TOTAL ENERGY
                             mp2 / aug-cc-pvqz                  *    -139.64177703   MP2 TOTAL ENERGY
  ---------------------------------------------------------------------------------------------------------

   ==> Stages <==

  ---------------------------------------------------------------------------------------------------------
      Stage               Method / Basis                       Wt      Energy [Eh]   Scheme
  ---------------------------------------------------------------------------------------------------------
        scf                   hf / aug-cc-pvqz                  1    -139.10687887   xtpl_highest_1
       corl                  mp2 / aug-cc-pv[tq]z               1    -139.69129557   corl_xtpl_helgaker_2
       corl                   hf / aug-cc-pv[tq]z              -1    -139.11379596   corl_xtpl_helgaker_2
  ---------------------------------------------------------------------------------------------------------

   ==> CBS <==

  ---------------------------------------------------------------------------------------------------------
      Stage               Method / Basis                               Energy [Eh]   Scheme
  ---------------------------------------------------------------------------------------------------------
        scf                   hf / aug-cc-pvqz                       -139.10687887   xtpl_highest_1
       corl                  mp2 / aug-cc-pv[tq]z                      -0.57749961   corl_xtpl_helgaker_2
      total                  CBS                                     -139.68437847   
  ---------------------------------------------------------------------------------------------------------
   => Loading Basis Set <=

    Name: DEF2-SVP
    Role: ORBITAL
    Keyword: BASIS
    atoms 1   entry F          line   150 file /home/liuchw/anaconda3/envs/psi4env/share/psi4/basis/def2-svp.gbs 
    atoms 2   entry C          line    90 file /home/liuchw/anaconda3/envs/psi4env/share/psi4/basis/def2-svp.gbs 
    atoms 3-5 entry H          line    15 file /home/liuchw/anaconda3/envs/psi4env/share/psi4/basis/def2-svp.gbs 


       N-Body: Complex Energy (fragments = (2,), basis = (2,):  -139.68437847120182)

       N-Body: Computing complex (2/4) with fragments (2,) in the basis of fragments (1, 2).


Scratch directory: /scratch//

  //>>>>>>>>>>>>>>>>>>>>>>>>>>>>>>>>>>>//
  //   CBS Setup: mp2/aug-cc-pv[tq]z   //
  //<<<<<<<<<<<<<<<<<<<<<<<<<<<<<<<<<<<//

    Naive listing of computations required.
             hf / aug-cc-pvqz              for  HF TOTAL ENERGY
            mp2 / aug-cc-pvtz              for  MP2 TOTAL ENERGY
            mp2 / aug-cc-pvqz              for  MP2 TOTAL ENERGY
             hf / aug-cc-pvtz              for  HF TOTAL ENERGY
             hf / aug-cc-pvqz              for  HF TOTAL ENERGY

    Enlightened listing of computations required.
            mp2 / aug-cc-pvtz              for  MP2 TOTAL ENERGY
            mp2 / aug-cc-pvqz              for  MP2 TOTAL ENERGY

    Full listing of computations to be obtained (required and bonus).
             hf / aug-cc-pvtz              for  HF TOTAL ENERGY
            mp2 / aug-cc-pvtz              for  MP2 TOTAL ENERGY
             hf / aug-cc-pvqz              for  HF TOTAL ENERGY
            mp2 / aug-cc-pvqz              for  MP2 TOTAL ENERGY

  //>>>>>>>>>>>>>>>>>>>>>>>>>>>>>>>>>>>>//
  // CBS Computation: MP2 / AUG-CC-PVTZ //
  //<<<<<<<<<<<<<<<<<<<<<<<<<<<<<<<<<<<<//


Scratch directory: /scratch//

*** tstart() called on node51.bme.utexas.edu
*** at Sat Apr 11 16:20:43 2020

   => Loading Basis Set <=

    Name: AUG-CC-PVTZ
    Role: ORBITAL
    Keyword: BASIS
    atoms 1, 6      entry F          line   377 file /home/liuchw/anaconda3/envs/psi4env/share/psi4/basis/aug-cc-pvtz.gbs 
    atoms 2, 7      entry C          line   239 file /home/liuchw/anaconda3/envs/psi4env/share/psi4/basis/aug-cc-pvtz.gbs 
    atoms 3-5, 8-10 entry H          line    40 file /home/liuchw/anaconda3/envs/psi4env/share/psi4/basis/aug-cc-pvtz.gbs 


         ---------------------------------------------------------
                                   SCF
               by Justin Turney, Rob Parrish, Andy Simmonett
                          and Daniel G. A. Smith
                              RHF Reference
                        6 Threads,  38146 MiB Core
         ---------------------------------------------------------

  ==> Geometry <==

    Molecular point group: c1
    Full point group: C1

    Geometry (in Angstrom), charge = 0, multiplicity = 1:

       Center              X                  Y                   Z               Mass       
    ------------   -----------------  -----------------  -----------------  -----------------
      Gh(F)          -1.109956250600    -0.000005796782    -0.000000249586    18.998403162730
      Gh(C)          -2.492978250600     0.000005203218    -0.000000249586    12.000000000000
      Gh(H)          -2.847372250600     1.027044203218    -0.000001249586     1.007825032230
      Gh(H)          -2.847384250600    -0.513509796782     0.889439750414     1.007825032230
      Gh(H)          -2.847385250600    -0.513510796782    -0.889439249586     1.007825032230
         F            2.394840749400     0.000001203218     0.000000750414    18.998403162730
         C            1.011474749400     0.000000203218    -0.000000249586    12.000000000000
         H            0.653641749400     1.025401203218    -0.000000249586     1.007825032230
         H            0.653642749400    -0.512701796782     0.888022750414     1.007825032230
         H            0.653643749400    -0.512700796782    -0.888025249586     1.007825032230

  Running in c1 symmetry.

  Rotational constants: A =      2.64716  B =      0.06792  C =      0.06792 [cm^-1]
  Rotational constants: A =  79359.77305  B =   2036.07722  C =   2036.07721 [MHz]
  Nuclear repulsion =   37.391659574861947

  Charge       = 0
  Multiplicity = 1
  Electrons    = 18
  Nalpha       = 9
  Nbeta        = 9

  ==> Algorithm <==

  SCF Algorithm Type is DF.
  DIIS enabled.
  MOM disabled.
  Fractional occupation disabled.
  Guess Type is SAD.
  Energy threshold   = 1.00e-07
  Density threshold  = 1.00e-08
  Integral threshold = 0.00e+00

  ==> Primary Basis <==

  Basis Set: AUG-CC-PVTZ
    Blend: AUG-CC-PVTZ
    Number of shells: 110
    Number of basis function: 322
    Number of Cartesian functions: 370
    Spherical Harmonics?: true
    Max angular momentum: 3

   => Loading Basis Set <=

    Name: (AUG-CC-PVTZ AUX)
    Role: JKFIT
    Keyword: DF_BASIS_SCF
    atoms 1, 6      entry F          line   348 file /home/liuchw/anaconda3/envs/psi4env/share/psi4/basis/aug-cc-pvtz-jkfit.gbs 
    atoms 2, 7      entry C          line   162 file /home/liuchw/anaconda3/envs/psi4env/share/psi4/basis/aug-cc-pvtz-jkfit.gbs 
    atoms 3-5, 8-10 entry H          line    70 file /home/liuchw/anaconda3/envs/psi4env/share/psi4/basis/aug-cc-pvtz-jkfit.gbs 

  ==> Pre-Iterations <==

   -------------------------------------------------------
    Irrep   Nso     Nmo     Nalpha   Nbeta   Ndocc  Nsocc
   -------------------------------------------------------
     A        322     322       0       0       0       0
   -------------------------------------------------------
    Total     322     322       9       9       9       0
   -------------------------------------------------------

  ==> Integral Setup <==

  DFHelper Memory: AOs need 0.539 GiB; user supplied 27.940 GiB. Using in-core AOs.

  ==> MemDFJK: Density-Fitted J/K Matrices <==

    J tasked:                   Yes
    K tasked:                   Yes
    wK tasked:                   No
    OpenMP threads:               6
    Memory [MiB]:             28610
    Algorithm:                 Core
    Schwarz Cutoff:           1E-12
    Mask sparsity (%):       4.5928
    Fitting Condition:        1E-10

   => Auxiliary Basis Set <=

  Basis Set: (AUG-CC-PVTZ AUX)
    Blend: AUG-CC-PVTZ-JKFIT
    Number of shells: 204
    Number of basis function: 692
    Number of Cartesian functions: 854
    Spherical Harmonics?: true
    Max angular momentum: 4

  Minimum eigenvalue in the overlap matrix is 1.1606621424E-05.
  Using Symmetric Orthogonalization.

  SCF Guess: Superposition of Atomic Densities via on-the-fly atomic UHF.

  ==> Iterations <==

                           Total Energy        Delta E     RMS |[F,P]|

   @DF-RHF iter SAD:  -138.43922413732813   -1.38439e+02   0.00000e+00 
   @DF-RHF iter   1:  -139.05989216032583   -6.20668e-01   8.43320e-04 DIIS
   @DF-RHF iter   2:  -139.09210082819703   -3.22087e-02   3.95386e-04 DIIS
   @DF-RHF iter   3:  -139.09688176135086   -4.78093e-03   9.70939e-05 DIIS
   @DF-RHF iter   4:  -139.09743010815396   -5.48347e-04   2.37402e-05 DIIS
   @DF-RHF iter   5:  -139.09747179553415   -4.16874e-05   5.73566e-06 DIIS
   @DF-RHF iter   6:  -139.09747390340286   -2.10787e-06   9.94256e-07 DIIS
   @DF-RHF iter   7:  -139.09747401521301   -1.11810e-07   1.51192e-07 DIIS
   @DF-RHF iter   8:  -139.09747401781735   -2.60434e-09   3.17471e-08 DIIS
   @DF-RHF iter   9:  -139.09747401795016   -1.32815e-10   7.02267e-09 DIIS
  Energy and wave function converged.


  ==> Post-Iterations <==

    Orbital Energies [Eh]
    ---------------------

    Doubly Occupied:                                                      

       1A    -26.279128     2A    -11.305201     3A     -1.587298  
       4A     -0.956553     5A     -0.695671     6A     -0.695671  
       7A     -0.675604     8A     -0.531706     9A     -0.531706  

    Virtual:                                                              

      10A      0.019639    11A      0.040413    12A      0.040413  
      13A      0.042686    14A      0.063691    15A      0.063691  
      16A      0.083494    17A      0.100611    18A      0.105828  
      19A      0.105828    20A      0.128513    21A      0.137218  
      22A      0.137218    23A      0.144702    24A      0.190578  
      25A      0.190579    26A      0.206861    27A      0.217084  
      28A      0.217084    29A      0.241112    30A      0.241112  
      31A      0.249009    32A      0.264489    33A      0.286526  
      34A      0.286526    35A      0.299195    36A      0.299196  
      37A      0.309826    38A      0.326352    39A      0.328623  
      40A      0.334591    41A      0.334591    42A      0.342188  
      43A      0.373080    44A      0.373081    45A      0.377387  
      46A      0.389509    47A      0.390875    48A      0.390875  
      49A      0.409351    50A      0.414908    51A      0.445652  
      52A      0.445652    53A      0.457755    54A      0.457755  
      55A      0.484258    56A      0.484258    57A      0.496958  
      58A      0.516759    59A      0.522755    60A      0.522756  
      61A      0.537647    62A      0.537647    63A      0.560858  
      64A      0.572414    65A      0.572415    66A      0.618431  
      67A      0.667424    68A      0.667424    69A      0.668434  
      70A      0.725450    71A      0.755605    72A      0.755606  
      73A      0.776557    74A      0.799692    75A      0.836232  
      76A      0.836233    77A      0.853469    78A      0.853470  
      79A      0.875379    80A      0.886552    81A      0.886553  
      82A      0.940660    83A      0.943632    84A      0.943632  
      85A      0.945543    86A      0.976662    87A      0.981560  
      88A      0.981560    89A      1.017386    90A      1.034232  
      91A      1.034233    92A      1.046843    93A      1.047202  
      94A      1.058180    95A      1.058180    96A      1.072758  
      97A      1.072758    98A      1.101316    99A      1.101317  
     100A      1.103382   101A      1.123547   102A      1.139364  
     103A      1.140849   104A      1.140850   105A      1.161515  
     106A      1.181044   107A      1.181045   108A      1.218292  
     109A      1.218292   110A      1.241867   111A      1.241867  
     112A      1.254470   113A      1.254470   114A      1.273779  
     115A      1.288553   116A      1.288553   117A      1.320666  
     118A      1.352467   119A      1.352469   120A      1.386289  
     121A      1.393841   122A      1.393842   123A      1.402691  
     124A      1.402691   125A      1.405522   126A      1.487078  
     127A      1.555923   128A      1.596085   129A      1.599805  
     130A      1.599806   131A      1.610382   132A      1.610382  
     133A      1.619919   134A      1.668978   135A      1.691437  
     136A      1.691438   137A      1.706047   138A      1.706047  
     139A      1.721255   140A      1.758417   141A      1.758418  
     142A      1.795197   143A      1.812090   144A      1.812092  
     145A      1.833199   146A      1.901122   147A      1.903524  
     148A      1.932785   149A      1.932787   150A      1.988713  
     151A      1.988713   152A      2.020128   153A      2.031611  
     154A      2.031611   155A      2.065584   156A      2.077241  
     157A      2.099730   158A      2.099731   159A      2.201936  
     160A      2.201937   161A      2.202326   162A      2.213235  
     163A      2.213237   164A      2.320010   165A      2.320012  
     166A      2.405388   167A      2.454597   168A      2.502419  
     169A      2.502420   170A      2.670159   171A      2.685118  
     172A      2.685119   173A      2.819914   174A      2.947473  
     175A      2.982245   176A      2.982246   177A      3.038656  
     178A      3.110702   179A      3.110702   180A      3.162632  
     181A      3.165506   182A      3.276747   183A      3.276749  
     184A      3.339439   185A      3.339440   186A      3.345746  
     187A      3.374545   188A      3.428783   189A      3.442486  
     190A      3.442486   191A      3.557383   192A      3.575078  
     193A      3.590125   194A      3.590125   195A      3.619618  
     196A      3.696147   197A      3.696148   198A      3.717108  
     199A      3.717109   200A      3.766579   201A      3.766580  
     202A      3.802360   203A      3.802361   204A      3.811647  
     205A      3.893075   206A      3.893078   207A      3.936252  
     208A      3.969788   209A      3.969790   210A      4.008880  
     211A      4.008881   212A      4.012545   213A      4.036948  
     214A      4.068381   215A      4.071493   216A      4.071493  
     217A      4.102956   218A      4.147101   219A      4.147103  
     220A      4.181555   221A      4.181557   222A      4.235288  
     223A      4.296179   224A      4.304617   225A      4.304619  
     226A      4.397079   227A      4.432963   228A      4.432963  
     229A      4.500832   230A      4.500833   231A      4.559144  
     232A      4.575186   233A      4.575187   234A      4.688092  
     235A      4.783510   236A      4.801988   237A      4.801988  
     238A      4.812266   239A      4.815772   240A      4.815772  
     241A      4.869356   242A      4.869358   243A      4.929182  
     244A      4.955123   245A      5.076176   246A      5.084251  
     247A      5.084252   248A      5.141580   249A      5.141584  
     250A      5.161653   251A      5.206088   252A      5.206089  
     253A      5.287965   254A      5.307269   255A      5.307272  
     256A      5.374027   257A      5.374030   258A      5.459675  
     259A      5.477072   260A      5.477073   261A      5.489470  
     262A      5.556687   263A      5.614077   264A      5.624948  
     265A      5.709268   266A      5.709269   267A      5.790536  
     268A      5.790537   269A      5.961945   270A      6.009296  
     271A      6.009297   272A      6.109834   273A      6.217553  
     274A      6.224866   275A      6.224868   276A      6.294995  
     277A      6.294996   278A      6.661109   279A      6.661110  
     280A      6.767510   281A      6.767511   282A      7.043786  
     283A      7.173205   284A      7.359969   285A      7.742654  
     286A      7.742655   287A      8.117657   288A      8.125550  
     289A      8.125552   290A      8.988063   291A      8.989839  
     292A      9.263640   293A      9.263641   294A      9.430220  
     295A      9.460603   296A      9.460603   297A      9.479018  
     298A      9.479018   299A      9.843915   300A      9.843915  
     301A      9.943006   302A     10.229358   303A     10.321162  
     304A     10.429240   305A     10.691110   306A     10.691111  
     307A     10.976632   308A     10.976634   309A     11.233102  
     310A     12.318152   311A     13.125836   312A     13.125837  
     313A     13.525488   314A     13.525488   315A     14.202822  
     316A     14.694082   317A     14.694082   318A     15.912280  
     319A     16.399534   320A     18.474467   321A     52.439892  
     322A     76.189790  

    Final Occupation by Irrep:
              A 
    DOCC [     9 ]

  @DF-RHF Final Energy:  -139.09747401795016

   => Energetics <=

    Nuclear Repulsion Energy =             37.3916595748619471
    One-Electron Energy =                -266.4611890072830533
    Two-Electron Energy =                  89.9720554144709581
    Total Energy =                       -139.0974740179501623

Computation Completed


Properties will be evaluated at   0.000000,   0.000000,   0.000000 [a0]

Properties computed using the SCF density matrix

  Nuclear Dipole Moment: [e a0]
     X:    55.9044      Y:     0.0000      Z:     0.0000

  Electronic Dipole Moment: [e a0]
     X:   -56.7124      Y:    -0.0000      Z:    -0.0000

  Dipole Moment: [e a0]
     X:    -0.8080      Y:    -0.0000      Z:    -0.0000     Total:     0.8080

  Dipole Moment: [D]
     X:    -2.0538      Y:    -0.0000      Z:    -0.0000     Total:     2.0538


*** tstop() called on node51.bme.utexas.edu at Sat Apr 11 16:20:46 2020
Module time:
	user time   =      19.87 seconds =       0.33 minutes
	system time =       0.79 seconds =       0.01 minutes
	total time  =          3 seconds =       0.05 minutes
Total time:
	user time   =      58.58 seconds =       0.98 minutes
	system time =       2.96 seconds =       0.05 minutes
	total time  =         12 seconds =       0.20 minutes

*** tstart() called on node51.bme.utexas.edu
*** at Sat Apr 11 16:20:46 2020


  //>>>>>>>>>>>>>>>>>>>>>>>>>>>>>>>>>>>//
  //               DFMP2               //
  //<<<<<<<<<<<<<<<<<<<<<<<<<<<<<<<<<<<//

   => Loading Basis Set <=

    Name: (AUG-CC-PVTZ AUX)
    Role: RIFIT
    Keyword: DF_BASIS_MP2
    atoms 1, 6      entry F          line   322 file /home/liuchw/anaconda3/envs/psi4env/share/psi4/basis/aug-cc-pvtz-ri.gbs 
    atoms 2, 7      entry C          line   148 file /home/liuchw/anaconda3/envs/psi4env/share/psi4/basis/aug-cc-pvtz-ri.gbs 
    atoms 3-5, 8-10 entry H          line    30 file /home/liuchw/anaconda3/envs/psi4env/share/psi4/basis/aug-cc-pvtz-ri.gbs 

	 --------------------------------------------------------
	                          DF-MP2                         
	      2nd-Order Density-Fitted Moller-Plesset Theory     
	              RMP2 Wavefunction,   6 Threads             
	                                                         
	        Rob Parrish, Justin Turney, Andy Simmonett,      
	           Ed Hohenstein, and C. David Sherrill          
	 --------------------------------------------------------

   => Auxiliary Basis Set <=

  Basis Set: (AUG-CC-PVTZ AUX)
    Blend: AUG-CC-PVTZ-RI
    Number of shells: 196
    Number of basis function: 700
    Number of Cartesian functions: 874
    Spherical Harmonics?: true
    Max angular momentum: 4

	 --------------------------------------------------------
	                 NBF =   322, NAUX =   700
	 --------------------------------------------------------
	   CLASS    FOCC     OCC    AOCC    AVIR     VIR    FVIR
	   PAIRS       0       9       9     313     313       0
	 --------------------------------------------------------

	-----------------------------------------------------------
	 ==================> DF-MP2 Energies <==================== 
	-----------------------------------------------------------
	 Reference Energy          =    -139.0974740179501623 [Eh]
	 Singles Energy            =      -0.0000000000000000 [Eh]
	 Same-Spin Energy          =      -0.1098543640048227 [Eh]
	 Opposite-Spin Energy      =      -0.3677393202785415 [Eh]
	 Correlation Energy        =      -0.4775936842833642 [Eh]
	 Total Energy              =    -139.5750677022335253 [Eh]
	-----------------------------------------------------------
	 ================> DF-SCS-MP2 Energies <================== 
	-----------------------------------------------------------
	 SCS Same-Spin Scale       =       0.3333333333333333 [-]
	 SCS Opposite-Spin Scale   =       1.2000000000000000 [-]
	 SCS Same-Spin Energy      =      -0.0366181213349409 [Eh]
	 SCS Opposite-Spin Energy  =      -0.4412871843342498 [Eh]
	 SCS Correlation Energy    =      -0.4779053056691907 [Eh]
	 SCS Total Energy          =    -139.5753793236193587 [Eh]
	-----------------------------------------------------------


*** tstop() called on node51.bme.utexas.edu at Sat Apr 11 16:20:48 2020
Module time:
	user time   =       8.73 seconds =       0.15 minutes
	system time =       0.36 seconds =       0.01 minutes
	total time  =          2 seconds =       0.03 minutes
Total time:
	user time   =      67.31 seconds =       1.12 minutes
	system time =       3.32 seconds =       0.06 minutes
	total time  =         14 seconds =       0.23 minutes

  //>>>>>>>>>>>>>>>>>>>>>>>>>>>>>>>>>>>>//
  // CBS Computation: MP2 / AUG-CC-PVQZ //
  //<<<<<<<<<<<<<<<<<<<<<<<<<<<<<<<<<<<<//


Scratch directory: /scratch//

*** tstart() called on node51.bme.utexas.edu
*** at Sat Apr 11 16:20:48 2020

   => Loading Basis Set <=

    Name: AUG-CC-PVQZ
    Role: ORBITAL
    Keyword: BASIS
    atoms 1, 6      entry F          line   483 file /home/liuchw/anaconda3/envs/psi4env/share/psi4/basis/aug-cc-pvqz.gbs 
    atoms 2, 7      entry C          line   303 file /home/liuchw/anaconda3/envs/psi4env/share/psi4/basis/aug-cc-pvqz.gbs 
    atoms 3-5, 8-10 entry H          line    40 file /home/liuchw/anaconda3/envs/psi4env/share/psi4/basis/aug-cc-pvqz.gbs 


         ---------------------------------------------------------
                                   SCF
               by Justin Turney, Rob Parrish, Andy Simmonett
                          and Daniel G. A. Smith
                              RHF Reference
                        6 Threads,  38146 MiB Core
         ---------------------------------------------------------

  ==> Geometry <==

    Molecular point group: c1
    Full point group: C1

    Geometry (in Angstrom), charge = 0, multiplicity = 1:

       Center              X                  Y                   Z               Mass       
    ------------   -----------------  -----------------  -----------------  -----------------
      Gh(F)          -1.109956250600    -0.000005796782    -0.000000249586    18.998403162730
      Gh(C)          -2.492978250600     0.000005203218    -0.000000249586    12.000000000000
      Gh(H)          -2.847372250600     1.027044203218    -0.000001249586     1.007825032230
      Gh(H)          -2.847384250600    -0.513509796782     0.889439750414     1.007825032230
      Gh(H)          -2.847385250600    -0.513510796782    -0.889439249586     1.007825032230
         F            2.394840749400     0.000001203218     0.000000750414    18.998403162730
         C            1.011474749400     0.000000203218    -0.000000249586    12.000000000000
         H            0.653641749400     1.025401203218    -0.000000249586     1.007825032230
         H            0.653642749400    -0.512701796782     0.888022750414     1.007825032230
         H            0.653643749400    -0.512700796782    -0.888025249586     1.007825032230

  Running in c1 symmetry.

  Rotational constants: A =      2.64716  B =      0.06792  C =      0.06792 [cm^-1]
  Rotational constants: A =  79359.77305  B =   2036.07722  C =   2036.07721 [MHz]
  Nuclear repulsion =   37.391659574861947

  Charge       = 0
  Multiplicity = 1
  Electrons    = 18
  Nalpha       = 9
  Nbeta        = 9

  ==> Algorithm <==

  SCF Algorithm Type is DF.
  DIIS enabled.
  MOM disabled.
  Fractional occupation disabled.
  Guess Type is SAD.
  Energy threshold   = 1.00e-07
  Density threshold  = 1.00e-08
  Integral threshold = 0.00e+00

  ==> Primary Basis <==

  Basis Set: AUG-CC-PVQZ
    Blend: AUG-CC-PVQZ
    Number of shells: 164
    Number of basis function: 596
    Number of Cartesian functions: 750
    Spherical Harmonics?: true
    Max angular momentum: 4

   => Loading Basis Set <=

    Name: (AUG-CC-PVQZ AUX)
    Role: JKFIT
    Keyword: DF_BASIS_SCF
    atoms 1, 6      entry F          line   388 file /home/liuchw/anaconda3/envs/psi4env/share/psi4/basis/aug-cc-pvqz-jkfit.gbs 
    atoms 2, 7      entry C          line   178 file /home/liuchw/anaconda3/envs/psi4env/share/psi4/basis/aug-cc-pvqz-jkfit.gbs 
    atoms 3-5, 8-10 entry H          line    70 file /home/liuchw/anaconda3/envs/psi4env/share/psi4/basis/aug-cc-pvqz-jkfit.gbs 

  ==> Pre-Iterations <==

   -------------------------------------------------------
    Irrep   Nso     Nmo     Nalpha   Nbeta   Ndocc  Nsocc
   -------------------------------------------------------
     A        596     596       0       0       0       0
   -------------------------------------------------------
    Total     596     596       9       9       9       0
   -------------------------------------------------------

  ==> Integral Setup <==

  DFHelper Memory: AOs need 2.613 GiB; user supplied 27.940 GiB. Using in-core AOs.

  ==> MemDFJK: Density-Fitted J/K Matrices <==

    J tasked:                   Yes
    K tasked:                   Yes
    wK tasked:                   No
    OpenMP threads:               6
    Memory [MiB]:             28610
    Algorithm:                 Core
    Schwarz Cutoff:           1E-12
    Mask sparsity (%):       7.6933
    Fitting Condition:        1E-10

   => Auxiliary Basis Set <=

  Basis Set: (AUG-CC-PVQZ AUX)
    Blend: AUG-CC-PVQZ-JKFIT
    Number of shells: 244
    Number of basis function: 1024
    Number of Cartesian functions: 1398
    Spherical Harmonics?: true
    Max angular momentum: 5

  Minimum eigenvalue in the overlap matrix is 5.5773493630E-06.
  Using Symmetric Orthogonalization.

  SCF Guess: Superposition of Atomic Densities via on-the-fly atomic UHF.

  ==> Iterations <==

                           Total Energy        Delta E     RMS |[F,P]|

   @DF-RHF iter SAD:  -138.44697725850565   -1.38447e+02   0.00000e+00 
   @DF-RHF iter   1:  -139.06927323445356   -6.22296e-01   4.59616e-04 DIIS
   @DF-RHF iter   2:  -139.10156232591240   -3.22891e-02   2.14279e-04 DIIS
   @DF-RHF iter   3:  -139.10633851168302   -4.77619e-03   5.31412e-05 DIIS
   @DF-RHF iter   4:  -139.10688822992202   -5.49718e-04   1.29762e-05 DIIS
   @DF-RHF iter   5:  -139.10693163818254   -4.34083e-05   3.18449e-06 DIIS
   @DF-RHF iter   6:  -139.10693381139029   -2.17321e-06   5.63528e-07 DIIS
   @DF-RHF iter   7:  -139.10693393004760   -1.18657e-07   8.50468e-08 DIIS
   @DF-RHF iter   8:  -139.10693393283685   -2.78925e-09   1.80618e-08 DIIS
   @DF-RHF iter   9:  -139.10693393298317   -1.46315e-10   4.08150e-09 DIIS
  Energy and wave function converged.


  ==> Post-Iterations <==

    Orbital Energies [Eh]
    ---------------------

    Doubly Occupied:                                                      

       1A    -26.275539     2A    -11.304198     3A     -1.586104  
       4A     -0.956316     5A     -0.695720     6A     -0.695719  
       7A     -0.675540     8A     -0.531852     9A     -0.531852  

    Virtual:                                                              

      10A      0.017790    11A      0.036556    12A      0.036556  
      13A      0.038813    14A      0.057975    15A      0.057975  
      16A      0.074459    17A      0.088725    18A      0.090341  
      19A      0.090341    20A      0.108690    21A      0.119470  
      22A      0.119471    23A      0.130759    24A      0.157877  
      25A      0.157877    26A      0.182394    27A      0.188472  
      28A      0.188473    29A      0.197335    30A      0.197335  
      31A      0.211583    32A      0.226850    33A      0.238822  
      34A      0.238822    35A      0.254211    36A      0.254212  
      37A      0.254372    38A      0.257995    39A      0.263757  
      40A      0.279822    41A      0.279822    42A      0.293582  
      43A      0.296387    44A      0.296387    45A      0.303343  
      46A      0.314308    47A      0.323795    48A      0.329407  
      49A      0.329407    50A      0.348715    51A      0.372750  
      52A      0.372750    53A      0.380406    54A      0.380406  
      55A      0.384159    56A      0.384159    57A      0.416911  
      58A      0.416911    59A      0.419378    60A      0.454589  
      61A      0.459835    62A      0.459836    63A      0.464308  
      64A      0.464309    65A      0.493009    66A      0.504842  
      67A      0.526684    68A      0.526684    69A      0.529654  
      70A      0.574150    71A      0.580936    72A      0.580936  
      73A      0.613511    74A      0.633013    75A      0.633013  
      76A      0.657594    77A      0.667820    78A      0.671122  
      79A      0.671124    80A      0.688200    81A      0.688200  
      82A      0.696376    83A      0.708007    84A      0.716684  
      85A      0.716684    86A      0.731470    87A      0.739104  
      88A      0.739105    89A      0.742911    90A      0.763056  
      91A      0.779095    92A      0.779096    93A      0.782936  
      94A      0.783192    95A      0.783192    96A      0.796692  
      97A      0.801966    98A      0.801966    99A      0.841907  
     100A      0.841907   101A      0.855258   102A      0.855258  
     103A      0.872290   104A      0.881196   105A      0.881196  
     106A      0.891928   107A      0.908777   108A      0.908777  
     109A      0.921802   110A      0.933659   111A      0.933660  
     112A      0.940155   113A      0.940156   114A      0.944659  
     115A      0.982773   116A      0.982773   117A      1.010421  
     118A      1.034841   119A      1.034841   120A      1.045439  
     121A      1.045480   122A      1.045481   123A      1.064098  
     124A      1.064812   125A      1.071703   126A      1.071703  
     127A      1.081348   128A      1.128915   129A      1.169897  
     130A      1.169898   131A      1.195277   132A      1.195278  
     133A      1.196462   134A      1.200438   135A      1.224766  
     136A      1.227178   137A      1.227178   138A      1.295542  
     139A      1.295542   140A      1.310404   141A      1.313237  
     142A      1.313237   143A      1.337584   144A      1.337585  
     145A      1.362532   146A      1.362671   147A      1.424805  
     148A      1.434207   149A      1.434207   150A      1.486623  
     151A      1.498800   152A      1.498802   153A      1.522004  
     154A      1.539491   155A      1.539491   156A      1.579602  
     157A      1.579602   158A      1.598337   159A      1.627482  
     160A      1.627482   161A      1.635779   162A      1.676915  
     163A      1.676915   164A      1.684035   165A      1.687635  
     166A      1.693448   167A      1.697965   168A      1.697966  
     169A      1.792894   170A      1.792895   171A      1.823135  
     172A      1.823136   173A      1.826340   174A      1.868001  
     175A      1.868002   176A      1.872245   177A      1.890690  
     178A      1.890690   179A      1.914356   180A      1.923803  
     181A      1.926498   182A      1.926498   183A      1.977323  
     184A      1.977324   185A      1.994686   186A      2.008045  
     187A      2.008045   188A      2.015029   189A      2.020403  
     190A      2.020896   191A      2.020896   192A      2.039017  
     193A      2.039018   194A      2.076633   195A      2.090283  
     196A      2.092452   197A      2.092453   198A      2.097592  
     199A      2.101792   200A      2.150997   201A      2.150998  
     202A      2.162488   203A      2.175269   204A      2.175270  
     205A      2.201601   206A      2.207762   207A      2.207763  
     208A      2.208454   209A      2.239945   210A      2.249769  
     211A      2.249769   212A      2.272163   213A      2.276746  
     214A      2.276746   215A      2.284607   216A      2.302194  
     217A      2.302196   218A      2.311602   219A      2.316191  
     220A      2.316192   221A      2.335258   222A      2.335260  
     223A      2.360094   224A      2.386014   225A      2.386014  
     226A      2.402964   227A      2.437823   228A      2.437823  
     229A      2.438925   230A      2.514561   231A      2.514563  
     232A      2.517890   233A      2.547066   234A      2.547067  
     235A      2.583711   236A      2.612994   237A      2.629651  
     238A      2.629651   239A      2.647120   240A      2.667948  
     241A      2.687805   242A      2.687805   243A      2.708870  
     244A      2.718362   245A      2.739630   246A      2.739630  
     247A      2.793059   248A      2.793060   249A      2.800100  
     250A      2.860538   251A      2.874015   252A      2.874015  
     253A      2.878009   254A      2.878009   255A      2.946985  
     256A      2.954619   257A      2.954619   258A      2.965204  
     259A      2.984885   260A      2.999757   261A      2.999757  
     262A      3.029210   263A      3.029211   264A      3.052395  
     265A      3.052396   266A      3.060811   267A      3.173601  
     268A      3.173602   269A      3.180663   270A      3.180664  
     271A      3.185312   272A      3.206326   273A      3.242616  
     274A      3.242618   275A      3.273133   276A      3.273135  
     277A      3.299112   278A      3.299113   279A      3.310054  
     280A      3.327496   281A      3.366355   282A      3.377112  
     283A      3.377114   284A      3.436544   285A      3.436544  
     286A      3.482885   287A      3.482886   288A      3.499581  
     289A      3.547806   290A      3.547808   291A      3.626861  
     292A      3.638952   293A      3.666873   294A      3.668914  
     295A      3.668916   296A      3.784768   297A      3.784769  
     298A      3.785515   299A      3.841725   300A      3.850544  
     301A      3.850545   302A      3.880787   303A      3.891869  
     304A      3.896596   305A      3.896598   306A      3.948252  
     307A      3.948254   308A      3.998273   309A      4.077990  
     310A      4.077992   311A      4.084289   312A      4.100303  
     313A      4.170594   314A      4.170595   315A      4.179886  
     316A      4.222435   317A      4.222436   318A      4.278068  
     319A      4.278068   320A      4.308721   321A      4.334880  
     322A      4.335694   323A      4.335695   324A      4.422050  
     325A      4.422051   326A      4.476386   327A      4.476389  
     328A      4.543179   329A      4.576318   330A      4.576319  
     331A      4.651017   332A      4.672812   333A      4.672813  
     334A      4.789049   335A      4.815114   336A      4.815115  
     337A      4.898551   338A      4.971407   339A      4.971409  
     340A      4.982416   341A      5.003045   342A      5.003046  
     343A      5.033979   344A      5.053226   345A      5.053226  
     346A      5.117701   347A      5.117702   348A      5.204624  
     349A      5.204624   350A      5.239113   351A      5.302818  
     352A      5.337271   353A      5.377170   354A      5.448501  
     355A      5.448502   356A      5.453527   357A      5.486993  
     358A      5.556326   359A      5.556326   360A      5.583956  
     361A      5.583958   362A      5.708160   363A      5.770561  
     364A      5.775524   365A      5.786236   366A      5.809062  
     367A      5.927806   368A      5.927806   369A      5.963426  
     370A      5.988779   371A      5.988784   372A      6.056551  
     373A      6.056553   374A      6.073339   375A      6.173141  
     376A      6.173145   377A      6.203285   378A      6.265707  
     379A      6.265708   380A      6.297443   381A      6.336124  
     382A      6.355686   383A      6.529475   384A      6.529477  
     385A      6.608014   386A      6.608014   387A      6.632453  
     388A      6.632454   389A      6.649225   390A      6.661197  
     391A      6.661199   392A      6.719776   393A      6.719777  
     394A      6.759248   395A      6.798643   396A      6.841024  
     397A      6.849892   398A      6.866640   399A      6.866643  
     400A      6.895908   401A      6.904048   402A      6.904050  
     403A      6.968545   404A      6.968546   405A      7.023241  
     406A      7.024269   407A      7.031243   408A      7.031244  
     409A      7.048578   410A      7.048579   411A      7.151181  
     412A      7.151183   413A      7.157346   414A      7.230532  
     415A      7.307578   416A      7.307579   417A      7.366984  
     418A      7.374022   419A      7.374024   420A      7.410376  
     421A      7.474133   422A      7.474136   423A      7.533072  
     424A      7.586523   425A      7.586526   426A      7.619615  
     427A      7.661610   428A      7.677563   429A      7.677563  
     430A      7.717974   431A      7.717974   432A      7.783109  
     433A      7.792084   434A      7.792085   435A      7.816642  
     436A      7.854949   437A      7.907023   438A      7.907024  
     439A      8.001618   440A      8.001619   441A      8.018805  
     442A      8.018808   443A      8.104378   444A      8.125590  
     445A      8.149923   446A      8.194842   447A      8.194843  
     448A      8.304260   449A      8.305336   450A      8.305337  
     451A      8.443827   452A      8.450256   453A      8.450257  
     454A      8.503926   455A      8.503927   456A      8.537437  
     457A      8.580296   458A      8.580297   459A      8.621328  
     460A      8.653107   461A      8.653108   462A      8.794891  
     463A      8.794892   464A      8.865476   465A      8.865478  
     466A      8.872681   467A      9.119618   468A      9.119622  
     469A      9.127131   470A      9.180177   471A      9.180179  
     472A      9.267796   473A      9.295160   474A      9.315629  
     475A      9.315630   476A      9.332076   477A      9.347123  
     478A      9.347123   479A      9.415473   480A      9.415474  
     481A      9.535347   482A      9.625849   483A      9.625850  
     484A      9.666995   485A      9.666996   486A      9.691669  
     487A      9.701425   488A      9.742295   489A      9.783096  
     490A      9.783096   491A      9.830259   492A      9.830259  
     493A      9.849373   494A      9.860427   495A      9.939081  
     496A      9.939082   497A     10.001529   498A     10.001531  
     499A     10.002797   500A     10.042738   501A     10.147298  
     502A     10.150446   503A     10.150447   504A     10.205506  
     505A     10.205506   506A     10.370570   507A     10.405351  
     508A     10.405352   509A     10.458134   510A     10.458136  
     511A     10.635541   512A     10.757211   513A     10.757212  
     514A     10.771592   515A     10.811933   516A     10.813274  
     517A     10.813274   518A     10.894983   519A     10.894985  
     520A     11.002432   521A     11.220061   522A     11.220062  
     523A     11.223964   524A     11.223964   525A     11.230584  
     526A     11.477952   527A     11.644349   528A     11.668978  
     529A     11.668980   530A     12.152040   531A     12.152041  
     532A     12.153250   533A     12.352878   534A     13.159323  
     535A     13.159324   536A     13.250720   537A     13.250725  
     538A     13.682121   539A     13.793746   540A     13.793747  
     541A     14.074991   542A     14.104364   543A     14.187359  
     544A     14.187359   545A     14.285150   546A     14.285150  
     547A     14.448299   548A     14.448300   549A     14.465798  
     550A     14.571061   551A     14.971201   552A     14.971201  
     553A     15.085101   554A     15.184111   555A     15.314085  
     556A     15.376039   557A     15.727220   558A     15.727225  
     559A     15.798901   560A     15.798905   561A     16.011233  
     562A     16.020115   563A     16.040126   564A     16.250278  
     565A     16.250278   566A     16.677290   567A     16.751824  
     568A     16.751825   569A     16.866901   570A     17.219303  
     571A     17.219303   572A     17.367428   573A     17.367431  
     574A     17.676644   575A     17.676644   576A     18.115945  
     577A     18.907058   578A     18.944733   579A     19.269664  
     580A     19.269669   581A     19.786897   582A     19.786902  
     583A     20.010431   584A     23.112656   585A     23.112658  
     586A     23.599499   587A     23.599500   588A     24.226329  
     589A     26.492230   590A     28.814337   591A     28.814337  
     592A     29.354078   593A     30.378347   594A     56.713001  
     595A     72.532402   596A    158.834143  

    Final Occupation by Irrep:
              A 
    DOCC [     9 ]

  @DF-RHF Final Energy:  -139.10693393298317

   => Energetics <=

    Nuclear Repulsion Energy =             37.3916595748619471
    One-Electron Energy =                -266.4915054005514889
    Two-Electron Energy =                  89.9929118927063740
    Total Energy =                       -139.1069339329831678

Computation Completed


Properties will be evaluated at   0.000000,   0.000000,   0.000000 [a0]

Properties computed using the SCF density matrix

  Nuclear Dipole Moment: [e a0]
     X:    55.9044      Y:     0.0000      Z:     0.0000

  Electronic Dipole Moment: [e a0]
     X:   -56.7106      Y:    -0.0000      Z:    -0.0000

  Dipole Moment: [e a0]
     X:    -0.8062      Y:    -0.0000      Z:    -0.0000     Total:     0.8062

  Dipole Moment: [D]
     X:    -2.0492      Y:    -0.0000      Z:    -0.0000     Total:     2.0492


*** tstop() called on node51.bme.utexas.edu at Sat Apr 11 16:21:01 2020
Module time:
	user time   =      65.77 seconds =       1.10 minutes
	system time =       1.98 seconds =       0.03 minutes
	total time  =         13 seconds =       0.22 minutes
Total time:
	user time   =     133.11 seconds =       2.22 minutes
	system time =       5.31 seconds =       0.09 minutes
	total time  =         27 seconds =       0.45 minutes

*** tstart() called on node51.bme.utexas.edu
*** at Sat Apr 11 16:21:01 2020


  //>>>>>>>>>>>>>>>>>>>>>>>>>>>>>>>>>>>//
  //               DFMP2               //
  //<<<<<<<<<<<<<<<<<<<<<<<<<<<<<<<<<<<//

   => Loading Basis Set <=

    Name: (AUG-CC-PVQZ AUX)
    Role: RIFIT
    Keyword: DF_BASIS_MP2
    atoms 1, 6      entry F          line   406 file /home/liuchw/anaconda3/envs/psi4env/share/psi4/basis/aug-cc-pvqz-ri.gbs 
    atoms 2, 7      entry C          line   184 file /home/liuchw/anaconda3/envs/psi4env/share/psi4/basis/aug-cc-pvqz-ri.gbs 
    atoms 3-5, 8-10 entry H          line    30 file /home/liuchw/anaconda3/envs/psi4env/share/psi4/basis/aug-cc-pvqz-ri.gbs 

	 --------------------------------------------------------
	                          DF-MP2                         
	      2nd-Order Density-Fitted Moller-Plesset Theory     
	              RMP2 Wavefunction,   6 Threads             
	                                                         
	        Rob Parrish, Justin Turney, Andy Simmonett,      
	           Ed Hohenstein, and C. David Sherrill          
	 --------------------------------------------------------

   => Auxiliary Basis Set <=

  Basis Set: (AUG-CC-PVQZ AUX)
    Blend: AUG-CC-PVQZ-RI
    Number of shells: 264
    Number of basis function: 1152
    Number of Cartesian functions: 1578
    Spherical Harmonics?: true
    Max angular momentum: 5

	 --------------------------------------------------------
	                 NBF =   596, NAUX =  1152
[...]
     127A      0.912007   128A      0.912007   129A      0.919154  
     130A      0.925460   131A      0.986225   132A      0.986226  
     133A      0.991849   134A      1.004117   135A      1.004117  
     136A      1.037881   137A      1.064759   138A      1.072478  
     139A      1.080608   140A      1.080609   141A      1.089712  
     142A      1.089712   143A      1.134623   144A      1.151385  
     145A      1.151426   146A      1.151428   147A      1.162946  
     148A      1.162947   149A      1.168104   150A      1.186383  
     151A      1.209417   152A      1.209417   153A      1.218785  
     154A      1.218785   155A      1.285942   156A      1.285943  
     157A      1.289985   158A      1.289985   159A      1.315952  
     160A      1.322562   161A      1.349000   162A      1.357194  
     163A      1.416503   164A      1.416505   165A      1.426613  
     166A      1.426613   167A      1.492687   168A      1.505806  
     169A      1.505807   170A      1.515849   171A      1.516193  
     172A      1.516194   173A      1.589602   174A      1.615361  
     175A      1.615362   176A      1.625459   177A      1.632935  
     178A      1.632935   179A      1.770034   180A      1.780770  
     181A      1.781508   182A      1.781511   183A      1.788698  
     184A      1.788698   185A      1.833360   186A      1.833363  
     187A      1.838745   188A      1.843323   189A      1.843323  
     190A      1.847741   191A      1.859046   192A      1.863040  
     193A      1.876096   194A      1.876100   195A      1.886195  
     196A      1.886197   197A      1.929942   198A      1.929944  
     199A      1.944513   200A      1.944513   201A      1.961379  
     202A      1.967151   203A      1.980158   204A      1.980159  
     205A      1.982000   206A      1.982000   207A      2.017209  
     208A      2.026455   209A      2.026549   210A      2.031860  
     211A      2.031861   212A      2.047842   213A      2.047843  
     214A      2.076427   215A      2.086243   216A      2.089809  
     217A      2.096511   218A      2.106304   219A      2.115424  
     220A      2.115426   221A      2.125930   222A      2.125930  
     223A      2.165561   224A      2.170407   225A      2.177474  
     226A      2.177474   227A      2.186668   228A      2.186669  
     229A      2.198652   230A      2.216058   231A      2.226672  
     232A      2.232189   233A      2.234534   234A      2.252423  
     235A      2.257286   236A      2.257287   237A      2.265907  
     238A      2.265908   239A      2.290316   240A      2.290318  
     241A      2.298022   242A      2.298023   243A      2.364724  
     244A      2.364725   245A      2.372997   246A      2.372997  
     247A      2.388786   248A      2.401245   249A      2.542870  
     250A      2.542870   251A      2.550532   252A      2.550532  
     253A      2.620283   254A      2.626904   255A      2.648339  
     256A      2.648342   257A      2.659733   258A      2.659735  
     259A      2.721657   260A      2.730305   261A      2.730306  
     262A      2.734509   263A      2.737819   264A      2.738598  
     265A      2.738599   266A      2.743192   267A      2.749798  
     268A      2.774038   269A      2.783105   270A      2.783106  
     271A      2.795278   272A      2.795278   273A      2.857074  
     274A      2.857075   275A      2.864407   276A      2.864407  
     277A      2.883139   278A      2.901260   279A      2.938091  
     280A      2.938092   281A      2.950237   282A      2.950238  
     283A      3.058510   284A      3.058516   285A      3.058858  
     286A      3.069205   287A      3.069207   288A      3.072885  
     289A      3.157544   290A      3.176541   291A      3.206140  
     292A      3.206141   293A      3.213852   294A      3.213852  
     295A      3.297683   296A      3.311805   297A      3.370057  
     298A      3.370057   299A      3.379704   300A      3.379705  
     301A      3.513607   302A      3.513609   303A      3.523243  
     304A      3.523244   305A      3.579747   306A      3.592832  
     307A      3.614891   308A      3.623793   309A      3.750709  
     310A      3.750711   311A      3.765778   312A      3.765779  
     313A      3.809163   314A      3.818003   315A      3.853634  
     316A      3.857581   317A      3.873382   318A      3.873387  
     319A      3.884733   320A      3.884734   321A      4.041594  
     322A      4.050609   323A      4.078453   324A      4.078457  
     325A      4.087241   326A      4.087242   327A      4.120194  
     328A      4.135815   329A      4.169504   330A      4.169508  
     331A      4.177042   332A      4.177042   333A      4.221791  
     334A      4.221792   335A      4.229777   336A      4.229778  
     337A      4.264788   338A      4.264789   339A      4.274401  
     340A      4.274401   341A      4.545097   342A      4.557847  
     343A      4.562733   344A      4.562736   345A      4.570620  
     346A      4.570623   347A      4.866577   348A      4.870429  
     349A      4.870433   350A      4.875495   351A      4.881413  
     352A      4.881741   353A      4.881742   354A      4.885686  
     355A      4.997637   356A      4.997637   357A      5.004508  
     358A      5.004508   359A      5.092064   360A      5.116952  
     361A      5.294763   362A      5.316192   363A      5.434844  
     364A      5.441066   365A      5.444896   366A      5.444899  
     367A      5.453216   368A      5.453217   369A      5.492952  
     370A      5.492955   371A      5.504891   372A      5.504891  
     373A      5.662083   374A      5.672313   375A      5.739197  
     376A      5.749137   377A      5.756374   378A      5.764587  
     379A      5.824684   380A      5.824687   381A      5.833608  
     382A      5.833608   383A      5.837233   384A      5.840312  
     385A      5.967146   386A      5.967147   387A      5.975773  
     388A      5.975774   389A      5.984215   390A      5.991521  
     391A      6.043777   392A      6.043778   393A      6.053387  
     394A      6.053388   395A      6.196762   396A      6.205209  
     397A      6.323673   398A      6.325226   399A      6.496685  
     400A      6.496687   401A      6.501614   402A      6.501615  
     403A      6.529140   404A      6.529141   405A      6.537020  
     406A      6.537021   407A      6.545039   408A      6.545041  
     409A      6.554516   410A      6.554516   411A      6.598584  
     412A      6.603643   413A      6.732688   414A      6.741820  
     415A      6.794186   416A      6.794192   417A      6.800842  
     418A      6.800842   419A      6.807448   420A      6.824853  
     421A      6.826917   422A      6.833781   423A      6.879086  
     424A      6.879087   425A      6.890822   426A      6.890822  
     427A      7.011706   428A      7.011710   429A      7.021812  
     430A      7.021815   431A      7.148317   432A      7.157822  
     433A      7.170209   434A      7.170211   435A      7.176636  
     436A      7.176636   437A      7.423907   438A      7.423908  
     439A      7.427431   440A      7.427434   441A      7.427435  
     442A      7.443411   443A      7.583744   444A      7.598810  
     445A      7.599019   446A      7.599020   447A      7.606952  
     448A      7.606953   449A      7.663026   450A      7.663030  
     451A      7.672941   452A      7.672941   453A      7.765948  
     454A      7.768237   455A      7.865147   456A      7.865157  
     457A      7.882910   458A      7.882916   459A      7.973405  
     460A      7.984448   461A      8.043084   462A      8.043085  
     463A      8.053291   464A      8.053292   465A      8.271478  
     466A      8.284668   467A      8.392459   468A      8.392462  
     469A      8.400864   470A      8.400865   471A      8.475803  
     472A      8.481462   473A      8.586284   474A      8.586291  
     475A      8.601710   476A      8.601715   477A      8.741427  
     478A      8.741437   479A      8.748295   480A      8.748297  
     481A      8.907974   482A      8.922707   483A      8.939179  
     484A      8.939183   485A      8.948348   486A      8.948349  
     487A      9.075039   488A      9.083242   489A      9.158433  
     490A      9.158435   491A      9.170329   492A      9.170330  
     493A      9.251922   494A      9.270663   495A      9.279188  
     496A      9.286114   497A      9.320518   498A      9.330576  
     499A      9.450407   500A      9.450419   501A      9.455886  
     502A      9.455890   503A      9.645778   504A      9.645783  
     505A      9.657299   506A      9.657301   507A      9.719058  
     508A      9.730899   509A      9.836930   510A      9.836937  
     511A      9.851511   512A      9.851514   513A      9.981482  
     514A      9.992153   515A     10.155861   516A     10.155865  
     517A     10.156314   518A     10.164114   519A     10.164117  
     520A     10.167336   521A     10.361410   522A     10.361413  
     523A     10.374577   524A     10.374582   525A     10.577721  
     526A     10.586391   527A     10.800326   528A     10.800340  
     529A     10.804155   530A     10.804156   531A     10.895265  
     532A     10.911111   533A     11.033171   534A     11.033176  
     535A     11.049216   536A     11.049220   537A     11.467450  
     538A     11.473684   539A     13.106291   540A     13.106311  
     541A     13.120900   542A     13.120913   543A     13.488700  
     544A     13.499660   545A     13.785958   546A     13.785958  
     547A     13.793522   548A     13.793522   549A     14.048084  
     550A     14.057971   551A     14.067743   552A     14.074727  
     553A     14.136477   554A     14.136481   555A     14.145528  
     556A     14.145529   557A     14.251034   558A     14.251035  
     559A     14.259710   560A     14.259710   561A     14.370446  
     562A     14.370446   563A     14.376588   564A     14.380408  
     565A     14.380409   566A     14.387498   567A     15.032438  
     568A     15.045111   569A     15.998249   570A     16.003345  
     571A     16.006383   572A     16.011451   573A     16.209145  
     574A     16.209146   575A     16.216999   576A     16.217000  
     577A     16.696603   578A     16.696606   579A     16.704396  
     580A     16.704397   581A     16.816715   582A     16.820889  
     583A     17.151975   584A     17.151976   585A     17.160275  
     586A     17.160275   587A     17.623712   588A     17.623713  
     589A     17.630093   590A     17.630093   591A     17.952664  
     592A     17.960887   593A     29.159017   594A     29.198368  
     595A     56.270519   596A     56.280697  

    Final Occupation by Irrep:
              A 
    DOCC [    18 ]

  @DF-RHF Final Energy:  -278.21426877302287

   => Energetics <=

    Nuclear Repulsion Energy =             98.3199739853101420
    One-Electron Energy =                -580.0742739614028096
    Two-Electron Energy =                 203.5400312030697876
    Total Energy =                       -278.2142687730229227

Computation Completed


Properties will be evaluated at   0.000000,   0.000000,   0.000000 [a0]

Properties computed using the SCF density matrix

  Nuclear Dipole Moment: [e a0]
     X:    -7.3818      Y:     0.0000      Z:     0.0000

  Electronic Dipole Moment: [e a0]
     X:     5.7500      Y:    -0.0000      Z:     0.0000

  Dipole Moment: [e a0]
     X:    -1.6318      Y:     0.0000      Z:     0.0000     Total:     1.6318

  Dipole Moment: [D]
     X:    -4.1476      Y:     0.0000      Z:     0.0000     Total:     4.1476


*** tstop() called on node90.bme.utexas.edu at Thu Apr 23 18:34:37 2020
Module time:
	user time   =      68.50 seconds =       1.14 minutes
	system time =       1.80 seconds =       0.03 minutes
	total time  =         10 seconds =       0.17 minutes
Total time:
	user time   =     474.72 seconds =       7.91 minutes
	system time =      13.64 seconds =       0.23 minutes
	total time  =         75 seconds =       1.25 minutes

*** tstart() called on node90.bme.utexas.edu
*** at Thu Apr 23 18:34:37 2020


  //>>>>>>>>>>>>>>>>>>>>>>>>>>>>>>>>>>>//
  //               DFMP2               //
  //<<<<<<<<<<<<<<<<<<<<<<<<<<<<<<<<<<<//

   => Loading Basis Set <=

    Name: (AUG-CC-PVQZ AUX)
    Role: RIFIT
    Keyword: DF_BASIS_MP2
    atoms 1, 6      entry F          line   406 file /home/liuchw/anaconda3/envs/psi4env/share/psi4/basis/aug-cc-pvqz-ri.gbs 
    atoms 2, 7      entry C          line   184 file /home/liuchw/anaconda3/envs/psi4env/share/psi4/basis/aug-cc-pvqz-ri.gbs 
    atoms 3-5, 8-10 entry H          line    30 file /home/liuchw/anaconda3/envs/psi4env/share/psi4/basis/aug-cc-pvqz-ri.gbs 

	 --------------------------------------------------------
	                          DF-MP2                         
	      2nd-Order Density-Fitted Moller-Plesset Theory     
	              RMP2 Wavefunction,   8 Threads             
	                                                         
	        Rob Parrish, Justin Turney, Andy Simmonett,      
	           Ed Hohenstein, and C. David Sherrill          
	 --------------------------------------------------------

   => Auxiliary Basis Set <=

  Basis Set: (AUG-CC-PVQZ AUX)
    Blend: AUG-CC-PVQZ-RI
    Number of shells: 264
    Number of basis function: 1152
    Number of Cartesian functions: 1578
    Spherical Harmonics?: true
    Max angular momentum: 5

	 --------------------------------------------------------
	                 NBF =   596, NAUX =  1152
	 --------------------------------------------------------
	   CLASS    FOCC     OCC    AOCC    AVIR     VIR    FVIR
	   PAIRS       0      18      18     578     578       0
	 --------------------------------------------------------

	-----------------------------------------------------------
	 ==================> DF-MP2 Energies <==================== 
	-----------------------------------------------------------
	 Reference Energy          =    -278.2142687730228658 [Eh]
	 Singles Energy            =      -0.0000000000000000 [Eh]
	 Same-Spin Energy          =      -0.2351469418413221 [Eh]
	 Opposite-Spin Energy      =      -0.8345912792498444 [Eh]
	 Correlation Energy        =      -1.0697382210911666 [Eh]
	 Total Energy              =    -279.2840069941140086 [Eh]
	-----------------------------------------------------------
	 ================> DF-SCS-MP2 Energies <================== 
	-----------------------------------------------------------
	 SCS Same-Spin Scale       =       0.3333333333333333 [-]
	 SCS Opposite-Spin Scale   =       1.2000000000000000 [-]
	 SCS Same-Spin Energy      =      -0.0783823139471074 [Eh]
	 SCS Opposite-Spin Energy  =      -1.0015095350998133 [Eh]
	 SCS Correlation Energy    =      -1.0798918490469207 [Eh]
	 SCS Total Energy          =    -279.2941606220697963 [Eh]
	-----------------------------------------------------------


*** tstop() called on node90.bme.utexas.edu at Thu Apr 23 18:34:44 2020
Module time:
	user time   =      42.41 seconds =       0.71 minutes
	system time =       1.15 seconds =       0.02 minutes
	total time  =          7 seconds =       0.12 minutes
Total time:
	user time   =     517.13 seconds =       8.62 minutes
	system time =      14.79 seconds =       0.25 minutes
	total time  =         82 seconds =       1.37 minutes

  //>>>>>>>>>>>>>>>>>>>>>>>>>>>>>>>>>>>//
  //  CBS Results: mp2/aug-cc-pv[tq]z  //
  //<<<<<<<<<<<<<<<<<<<<<<<<<<<<<<<<<<<//


   ==> HF <==

   HI-zeta (4) Energy:               -278.214268773023


   ==> Helgaker 2-point correlated extrapolation for method: MP2 <==

   LO-zeta (3) Energy:               -279.148388327274
   HI-zeta (4) Energy:               -279.284006994114
   Alpha (exponent) Value:             3.000000000000
   Extrapolated Energy:              -279.382971967213

   @Extrapolated MP2/(T,Q):          -279.382971967213



   ==> Helgaker 2-point correlated extrapolation for method: HF <==

   LO-zeta (3) Energy:               -278.195313618383
   HI-zeta (4) Energy:               -278.214268773023
   Alpha (exponent) Value:             3.000000000000
   Extrapolated Energy:              -278.228100912895

   @Extrapolated HF/(T,Q):           -278.228100912895


   ==> Components <==

  ---------------------------------------------------------------------------------------------------------
                          Method / Basis                      Rqd      Energy [Eh]   Variable
  ---------------------------------------------------------------------------------------------------------
                              hf / aug-cc-pvtz                  *    -278.19531362   HF TOTAL ENERGY
                             mp2 / aug-cc-pvtz                  *    -279.14838833   MP2 TOTAL ENERGY
                              hf / aug-cc-pvqz                  *    -278.21426877   HF TOTAL ENERGY
                             mp2 / aug-cc-pvqz                  *    -279.28400699   MP2 TOTAL ENERGY
  ---------------------------------------------------------------------------------------------------------

   ==> Stages <==

  ---------------------------------------------------------------------------------------------------------
      Stage               Method / Basis                       Wt      Energy [Eh]   Scheme
  ---------------------------------------------------------------------------------------------------------
        scf                   hf / aug-cc-pvqz                  1    -278.21426877   xtpl_highest_1
       corl                  mp2 / aug-cc-pv[tq]z               1    -279.38297197   corl_xtpl_helgaker_2
       corl                   hf / aug-cc-pv[tq]z              -1    -278.22810091   corl_xtpl_helgaker_2
  ---------------------------------------------------------------------------------------------------------

   ==> CBS <==

  ---------------------------------------------------------------------------------------------------------
      Stage               Method / Basis                               Energy [Eh]   Scheme
  ---------------------------------------------------------------------------------------------------------
        scf                   hf / aug-cc-pvqz                       -278.21426877   xtpl_highest_1
       corl                  mp2 / aug-cc-pv[tq]z                      -1.15487105   corl_xtpl_helgaker_2
      total                  CBS                                     -279.36913983   
  ---------------------------------------------------------------------------------------------------------
   => Loading Basis Set <=

    Name: DEF2-SVP
    Role: ORBITAL
    Keyword: BASIS
    atoms 1, 6      entry F          line   150 file /home/liuchw/anaconda3/envs/psi4env/share/psi4/basis/def2-svp.gbs 
    atoms 2, 7      entry C          line    90 file /home/liuchw/anaconda3/envs/psi4env/share/psi4/basis/def2-svp.gbs 
    atoms 3-5, 8-10 entry H          line    15 file /home/liuchw/anaconda3/envs/psi4env/share/psi4/basis/def2-svp.gbs 


       N-Body: Complex Energy (fragments = (1, 2), basis = (1, 2):  -279.36913982734120)

   ==> N-Body: Counterpoise Corrected (CP) energies <==

   n-Body     Total Energy [Eh]       I.E. [kcal/mol]      Delta [kcal/mol]
        1     -279.368774302478        0.000000000000        0.000000000000
        2     -279.369191159391       -0.261581662139       -0.261581662139

   => Loading Basis Set <=

    Name: DEF2-SVP
    Role: ORBITAL
    Keyword: BASIS
    atoms 1, 6      entry F          line   150 file /home/liuchw/anaconda3/envs/psi4env/share/psi4/basis/def2-svp.gbs 
    atoms 2, 7      entry C          line    90 file /home/liuchw/anaconda3/envs/psi4env/share/psi4/basis/def2-svp.gbs 
    atoms 3-5, 8-10 entry H          line    15 file /home/liuchw/anaconda3/envs/psi4env/share/psi4/basis/def2-svp.gbs 


    Psi4 stopped on: Thursday, 23 April 2020 06:34PM
    Psi4 wall time for execution: 0:01:23.67

*** Psi4 exiting successfully. Buy a developer a beer!
