
    -----------------------------------------------------------------------
          Psi4: An Open-Source Ab Initio Electronic Structure Package
                               Psi4 1.4a2.dev224 

                         Git: Rev {master} e453b16 


    R. M. Parrish, L. A. Burns, D. G. A. Smith, A. C. Simmonett,
    A. E. DePrince III, E. G. Hohenstein, U. Bozkaya, A. Yu. Sokolov,
    R. Di Remigio, R. M. Richard, J. F. Gonthier, A. M. James,
    H. R. McAlexander, A. Kumar, M. Saitow, X. Wang, B. P. Pritchard,
    P. Verma, H. F. Schaefer III, K. Patkowski, R. A. King, E. F. Valeev,
    F. A. Evangelista, J. M. Turney, T. D. Crawford, and C. D. Sherrill,
    J. Chem. Theory Comput. 13(7) pp 3185--3197 (2017).
    (doi: 10.1021/acs.jctc.7b00174)


                         Additional Contributions by
    P. Kraus, H. Kruse, M. H. Lechner, M. C. Schieber, R. A. Shaw,
    A. Alenaizan, R. Galvelis, Z. L. Glick, S. Lehtola, and J. P. Misiewicz

    -----------------------------------------------------------------------


    Psi4 started on: Saturday, 11 April 2020 04:24PM

    Process ID: 19200
    Host:       node36.bme.utexas.edu
    PSIDATADIR: /home/liuchw/anaconda3/envs/psi4env/share/psi4
    Memory:     500.0 MiB
    Threads:    6
    
  ==> Input File <==

--------------------------------------------------------------------------
#Generated by lconvert.py for cbs job

memory 40 GB

molecule  {
0 1
  F       -0.9143240     0.0000120     0.0000000
  C       -2.2973460     0.0000230     0.0000000
  H       -2.6517400     1.0270620    -0.0000010
  H       -2.6517520    -0.5134920     0.8894400
  H       -2.6517530    -0.5134930    -0.8894390
--
0 1
  F        3.8641280     0.0000190     0.0000010
  C        2.4807620     0.0000180     0.0000000
  H        2.1229290     1.0254190     0.0000000
  H        2.1229300    -0.5126840     0.8880230
  H        2.1229310    -0.5126830    -0.8880250
units angstrom
no_reorient
symmetry c1
}

set {
scf_type DF
mp2_type DF
e_convergence 7
reference rhf
}

energy('mp2/aug-cc-pv[tq]z', bsse_type='cp')
--------------------------------------------------------------------------

  Memory set to  37.253 GiB by Python driver.

Scratch directory: /scratch//


   ===> N-Body Interaction Abacus <===
        BSSE Treatment:                     cp
        Number of 1-body computations:     4
        Number of 2-body computations:     1

   ==> N-Body: Now computing 1-body complexes <==


       N-Body: Computing complex (1/4) with fragments (2,) in the basis of fragments (2,).


Scratch directory: /scratch//

  //>>>>>>>>>>>>>>>>>>>>>>>>>>>>>>>>>>>//
  //   CBS Setup: mp2/aug-cc-pv[tq]z   //
  //<<<<<<<<<<<<<<<<<<<<<<<<<<<<<<<<<<<//

    Naive listing of computations required.
             hf / aug-cc-pvqz              for  HF TOTAL ENERGY
            mp2 / aug-cc-pvtz              for  MP2 TOTAL ENERGY
            mp2 / aug-cc-pvqz              for  MP2 TOTAL ENERGY
             hf / aug-cc-pvtz              for  HF TOTAL ENERGY
             hf / aug-cc-pvqz              for  HF TOTAL ENERGY

    Enlightened listing of computations required.
            mp2 / aug-cc-pvtz              for  MP2 TOTAL ENERGY
            mp2 / aug-cc-pvqz              for  MP2 TOTAL ENERGY

    Full listing of computations to be obtained (required and bonus).
             hf / aug-cc-pvtz              for  HF TOTAL ENERGY
            mp2 / aug-cc-pvtz              for  MP2 TOTAL ENERGY
             hf / aug-cc-pvqz              for  HF TOTAL ENERGY
            mp2 / aug-cc-pvqz              for  MP2 TOTAL ENERGY

  //>>>>>>>>>>>>>>>>>>>>>>>>>>>>>>>>>>>>//
  // CBS Computation: MP2 / AUG-CC-PVTZ //
  //<<<<<<<<<<<<<<<<<<<<<<<<<<<<<<<<<<<<//


Scratch directory: /scratch//

*** tstart() called on node36.bme.utexas.edu
*** at Sat Apr 11 16:24:57 2020

   => Loading Basis Set <=

    Name: AUG-CC-PVTZ
    Role: ORBITAL
    Keyword: BASIS
    atoms 1   entry F          line   377 file /home/liuchw/anaconda3/envs/psi4env/share/psi4/basis/aug-cc-pvtz.gbs 
    atoms 2   entry C          line   239 file /home/liuchw/anaconda3/envs/psi4env/share/psi4/basis/aug-cc-pvtz.gbs 
    atoms 3-5 entry H          line    40 file /home/liuchw/anaconda3/envs/psi4env/share/psi4/basis/aug-cc-pvtz.gbs 


         ---------------------------------------------------------
                                   SCF
               by Justin Turney, Rob Parrish, Andy Simmonett
                          and Daniel G. A. Smith
                              RHF Reference
                        6 Threads,  38146 MiB Core
         ---------------------------------------------------------

  ==> Geometry <==

    Molecular point group: c1
    Full point group: C1

    Geometry (in Angstrom), charge = 0, multiplicity = 1:

       Center              X                  Y                   Z               Mass       
    ------------   -----------------  -----------------  -----------------  -----------------
         F            3.031668249400     0.000001203218     0.000000750414    18.998403162730
         C            1.648302249400     0.000000203218    -0.000000249586    12.000000000000
         H            1.290469249400     1.025401203218    -0.000000249586     1.007825032230
         H            1.290470249400    -0.512701796782     0.888022750414     1.007825032230
         H            1.290471249400    -0.512700796782    -0.888025249586     1.007825032230

  Running in c1 symmetry.

  Rotational constants: A =      5.30276  B =      0.07883  C =      0.07883 [cm^-1]
  Rotational constants: A = 158972.75949  B =   2363.33003  C =   2363.33003 [MHz]
  Nuclear repulsion =   37.391659574861933

  Charge       = 0
  Multiplicity = 1
  Electrons    = 18
  Nalpha       = 9
  Nbeta        = 9

  ==> Algorithm <==

  SCF Algorithm Type is DF.
  DIIS enabled.
  MOM disabled.
  Fractional occupation disabled.
  Guess Type is SAD.
  Energy threshold   = 1.00e-07
  Density threshold  = 1.00e-08
  Integral threshold = 0.00e+00

  ==> Primary Basis <==

  Basis Set: AUG-CC-PVTZ
    Blend: AUG-CC-PVTZ
    Number of shells: 55
    Number of basis function: 161
    Number of Cartesian functions: 185
    Spherical Harmonics?: true
    Max angular momentum: 3

   => Loading Basis Set <=

    Name: (AUG-CC-PVTZ AUX)
    Role: JKFIT
    Keyword: DF_BASIS_SCF
    atoms 1   entry F          line   348 file /home/liuchw/anaconda3/envs/psi4env/share/psi4/basis/aug-cc-pvtz-jkfit.gbs 
    atoms 2   entry C          line   162 file /home/liuchw/anaconda3/envs/psi4env/share/psi4/basis/aug-cc-pvtz-jkfit.gbs 
    atoms 3-5 entry H          line    70 file /home/liuchw/anaconda3/envs/psi4env/share/psi4/basis/aug-cc-pvtz-jkfit.gbs 

  ==> Pre-Iterations <==

   -------------------------------------------------------
    Irrep   Nso     Nmo     Nalpha   Nbeta   Ndocc  Nsocc
   -------------------------------------------------------
     A        161     161       0       0       0       0
   -------------------------------------------------------
    Total     161     161       9       9       9       0
   -------------------------------------------------------

  ==> Integral Setup <==

  DFHelper Memory: AOs need 0.074 GiB; user supplied 27.940 GiB. Using in-core AOs.

  ==> MemDFJK: Density-Fitted J/K Matrices <==

    J tasked:                   Yes
    K tasked:                   Yes
    wK tasked:                   No
    OpenMP threads:               6
    Memory [MiB]:             28610
    Algorithm:                 Core
    Schwarz Cutoff:           1E-12
    Mask sparsity (%):       0.0000
    Fitting Condition:        1E-10

   => Auxiliary Basis Set <=

  Basis Set: (AUG-CC-PVTZ AUX)
    Blend: AUG-CC-PVTZ-JKFIT
    Number of shells: 102
    Number of basis function: 346
    Number of Cartesian functions: 427
    Spherical Harmonics?: true
    Max angular momentum: 4

  Minimum eigenvalue in the overlap matrix is 7.9551861966E-05.
  Using Symmetric Orthogonalization.

  SCF Guess: Superposition of Atomic Densities via on-the-fly atomic UHF.

  ==> Iterations <==

                           Total Energy        Delta E     RMS |[F,P]|

   @DF-RHF iter SAD:  -138.43922343031343   -1.38439e+02   0.00000e+00 
   @DF-RHF iter   1:  -139.05983343540910   -6.20610e-01   1.68641e-03 DIIS
   @DF-RHF iter   2:  -139.09202865032222   -3.21952e-02   7.90749e-04 DIIS
   @DF-RHF iter   3:  -139.09680849216264   -4.77984e-03   1.94127e-04 DIIS
   @DF-RHF iter   4:  -139.09735609374150   -5.47602e-04   4.74443e-05 DIIS
   @DF-RHF iter   5:  -139.09739766482937   -4.15711e-05   1.14519e-05 DIIS
   @DF-RHF iter   6:  -139.09739976640321   -2.10157e-06   1.98647e-06 DIIS
   @DF-RHF iter   7:  -139.09739987809641   -1.11693e-07   3.02684e-07 DIIS
   @DF-RHF iter   8:  -139.09739988070234   -2.60593e-09   6.36901e-08 DIIS
   @DF-RHF iter   9:  -139.09739988083598   -1.33639e-10   1.40685e-08 DIIS
   @DF-RHF iter  10:  -139.09739988084198   -5.99698e-12   2.27113e-09 DIIS
  Energy and wave function converged.


  ==> Post-Iterations <==

    Orbital Energies [Eh]
    ---------------------

    Doubly Occupied:                                                      

       1A    -26.279160     2A    -11.305197     3A     -1.587320  
       4A     -0.956571     5A     -0.695688     6A     -0.695688  
       7A     -0.675616     8A     -0.531716     9A     -0.531716  

    Virtual:                                                              

      10A      0.028770    11A      0.046662    12A      0.046662  
      13A      0.074495    14A      0.123483    15A      0.123483  
      16A      0.139328    17A      0.193938    18A      0.205399  
      19A      0.205399    20A      0.225130    21A      0.225130  
      22A      0.236616    23A      0.317971    24A      0.323788  
      25A      0.323788    26A      0.332298    27A      0.332298  
      28A      0.345906    29A      0.384526    30A      0.389058  
      31A      0.389058    32A      0.396280    33A      0.447614  
      34A      0.447614    35A      0.467686    36A      0.475797  
      37A      0.521868    38A      0.521868    39A      0.656264  
      40A      0.656264    41A      0.732701    42A      0.764285  
      43A      0.804968    44A      0.804968    45A      0.874905  
      46A      0.881451    47A      0.881451    48A      0.933217  
      49A      0.941336    50A      0.941336    51A      0.994888  
      52A      1.019051    53A      1.019051    54A      1.035366  
      55A      1.035366    56A      1.053981    57A      1.067026  
      58A      1.069428    59A      1.069428    60A      1.185330  
      61A      1.185330    62A      1.220055    63A      1.237415  
      64A      1.237416    65A      1.254761    66A      1.258552  
      67A      1.258552    68A      1.365608    69A      1.553839  
      70A      1.553839    71A      1.558618    72A      1.595452  
      73A      1.627461    74A      1.627461    75A      1.663677  
      76A      1.678467    77A      1.678467    78A      1.741878  
      79A      1.741878    80A      1.779247    81A      1.887716  
      82A      1.887716    83A      1.901932    84A      2.017401  
      85A      2.017402    86A      2.096360    87A      2.141922  
      88A      2.141922    89A      2.562413    90A      2.698563  
      91A      2.907754    92A      2.938458    93A      2.938459  
      94A      3.041570    95A      3.056881    96A      3.056881  
      97A      3.171186    98A      3.186399    99A      3.250763  
     100A      3.250764   101A      3.437403   102A      3.437403  
     103A      3.513841   104A      3.517663   105A      3.517663  
     106A      3.538598   107A      3.538598   108A      3.542613  
     109A      3.653414   110A      3.752734   111A      3.752734  
     112A      3.862943   113A      3.862943   114A      4.028961  
     115A      4.028961   116A      4.048451   117A      4.091085  
     118A      4.091086   119A      4.141742   120A      4.198286  
     121A      4.417303   122A      4.417303   123A      4.457767  
     124A      4.682044   125A      4.728823   126A      4.728823  
     127A      4.747701   128A      4.747702   129A      4.863893  
     130A      4.929112   131A      4.990006   132A      4.990007  
     133A      5.168745   134A      5.168746   135A      5.306530  
     136A      5.533023   137A      5.621944   138A      5.646138  
     139A      5.646139   140A      5.750142   141A      5.750142  
     142A      5.982190   143A      6.141878   144A      6.141879  
     145A      6.560946   146A      6.560946   147A      7.134157  
     148A      8.952606   149A      8.987588   150A      9.226960  
     151A      9.226960   152A      9.394807   153A      9.425397  
     154A      9.425397   155A      9.459552   156A      9.459552  
     157A      9.823107   158A      9.823107   159A      9.889359  
     160A     15.063861   161A     17.444456  

    Final Occupation by Irrep:
              A 
    DOCC [     9 ]

  @DF-RHF Final Energy:  -139.09739988084198

   => Energetics <=

    Nuclear Repulsion Energy =             37.3916595748619329
    One-Electron Energy =                -266.4607756370299967
    Two-Electron Energy =                  89.9717161813260873
    Total Energy =                       -139.0973998808419765

Computation Completed


Properties will be evaluated at   0.000000,   0.000000,   0.000000 [a0]

Properties computed using the SCF density matrix

  Nuclear Dipole Moment: [e a0]
     X:    77.5661      Y:     0.0000      Z:     0.0000

  Electronic Dipole Moment: [e a0]
     X:   -78.3744      Y:    -0.0000      Z:    -0.0000

  Dipole Moment: [e a0]
     X:    -0.8082      Y:    -0.0000      Z:    -0.0000     Total:     0.8082

  Dipole Moment: [D]
     X:    -2.0543      Y:    -0.0000      Z:    -0.0000     Total:     2.0543


*** tstop() called on node36.bme.utexas.edu at Sat Apr 11 16:24:59 2020
Module time:
	user time   =      11.34 seconds =       0.19 minutes
	system time =       0.77 seconds =       0.01 minutes
	total time  =          2 seconds =       0.03 minutes
Total time:
	user time   =      11.34 seconds =       0.19 minutes
	system time =       0.77 seconds =       0.01 minutes
	total time  =          2 seconds =       0.03 minutes

*** tstart() called on node36.bme.utexas.edu
*** at Sat Apr 11 16:24:59 2020


  //>>>>>>>>>>>>>>>>>>>>>>>>>>>>>>>>>>>//
  //               DFMP2               //
  //<<<<<<<<<<<<<<<<<<<<<<<<<<<<<<<<<<<//

   => Loading Basis Set <=

    Name: (AUG-CC-PVTZ AUX)
    Role: RIFIT
    Keyword: DF_BASIS_MP2
    atoms 1   entry F          line   322 file /home/liuchw/anaconda3/envs/psi4env/share/psi4/basis/aug-cc-pvtz-ri.gbs 
    atoms 2   entry C          line   148 file /home/liuchw/anaconda3/envs/psi4env/share/psi4/basis/aug-cc-pvtz-ri.gbs 
    atoms 3-5 entry H          line    30 file /home/liuchw/anaconda3/envs/psi4env/share/psi4/basis/aug-cc-pvtz-ri.gbs 

	 --------------------------------------------------------
	                          DF-MP2                         
	      2nd-Order Density-Fitted Moller-Plesset Theory     
	              RMP2 Wavefunction,   6 Threads             
	                                                         
	        Rob Parrish, Justin Turney, Andy Simmonett,      
	           Ed Hohenstein, and C. David Sherrill          
	 --------------------------------------------------------

   => Auxiliary Basis Set <=

  Basis Set: (AUG-CC-PVTZ AUX)
    Blend: AUG-CC-PVTZ-RI
    Number of shells: 98
    Number of basis function: 350
    Number of Cartesian functions: 437
    Spherical Harmonics?: true
    Max angular momentum: 4

	 --------------------------------------------------------
	                 NBF =   161, NAUX =   350
	 --------------------------------------------------------
	   CLASS    FOCC     OCC    AOCC    AVIR     VIR    FVIR
	   PAIRS       0       9       9     152     152       0
	 --------------------------------------------------------

	-----------------------------------------------------------
	 ==================> DF-MP2 Energies <==================== 
	-----------------------------------------------------------
	 Reference Energy          =    -139.0973998808419765 [Eh]
	 Singles Energy            =      -0.0000000000000000 [Eh]
	 Same-Spin Energy          =      -0.1097782914843714 [Eh]
	 Opposite-Spin Energy      =      -0.3667401189770910 [Eh]
	 Correlation Energy        =      -0.4765184104614624 [Eh]
	 Total Energy              =    -139.5739182913034426 [Eh]
	-----------------------------------------------------------
	 ================> DF-SCS-MP2 Energies <================== 
	-----------------------------------------------------------
	 SCS Same-Spin Scale       =       0.3333333333333333 [-]
	 SCS Opposite-Spin Scale   =       1.2000000000000000 [-]
	 SCS Same-Spin Energy      =      -0.0365927638281238 [Eh]
	 SCS Opposite-Spin Energy  =      -0.4400881427725092 [Eh]
	 SCS Correlation Energy    =      -0.4766809066006330 [Eh]
	 SCS Total Energy          =    -139.5740807874425968 [Eh]
	-----------------------------------------------------------


*** tstop() called on node36.bme.utexas.edu at Sat Apr 11 16:25:00 2020
Module time:
	user time   =       3.68 seconds =       0.06 minutes
	system time =       0.22 seconds =       0.00 minutes
	total time  =          1 seconds =       0.02 minutes
Total time:
	user time   =      15.03 seconds =       0.25 minutes
	system time =       0.99 seconds =       0.02 minutes
	total time  =          3 seconds =       0.05 minutes

  //>>>>>>>>>>>>>>>>>>>>>>>>>>>>>>>>>>>>//
  // CBS Computation: MP2 / AUG-CC-PVQZ //
  //<<<<<<<<<<<<<<<<<<<<<<<<<<<<<<<<<<<<//


Scratch directory: /scratch//

*** tstart() called on node36.bme.utexas.edu
*** at Sat Apr 11 16:25:00 2020

   => Loading Basis Set <=

    Name: AUG-CC-PVQZ
    Role: ORBITAL
    Keyword: BASIS
    atoms 1   entry F          line   483 file /home/liuchw/anaconda3/envs/psi4env/share/psi4/basis/aug-cc-pvqz.gbs 
    atoms 2   entry C          line   303 file /home/liuchw/anaconda3/envs/psi4env/share/psi4/basis/aug-cc-pvqz.gbs 
    atoms 3-5 entry H          line    40 file /home/liuchw/anaconda3/envs/psi4env/share/psi4/basis/aug-cc-pvqz.gbs 


         ---------------------------------------------------------
                                   SCF
               by Justin Turney, Rob Parrish, Andy Simmonett
                          and Daniel G. A. Smith
                              RHF Reference
                        6 Threads,  38146 MiB Core
         ---------------------------------------------------------

  ==> Geometry <==

    Molecular point group: c1
    Full point group: C1

    Geometry (in Angstrom), charge = 0, multiplicity = 1:

       Center              X                  Y                   Z               Mass       
    ------------   -----------------  -----------------  -----------------  -----------------
         F            3.031668249400     0.000001203218     0.000000750414    18.998403162730
         C            1.648302249400     0.000000203218    -0.000000249586    12.000000000000
         H            1.290469249400     1.025401203218    -0.000000249586     1.007825032230
         H            1.290470249400    -0.512701796782     0.888022750414     1.007825032230
         H            1.290471249400    -0.512700796782    -0.888025249586     1.007825032230

  Running in c1 symmetry.

  Rotational constants: A =      5.30276  B =      0.07883  C =      0.07883 [cm^-1]
  Rotational constants: A = 158972.75949  B =   2363.33003  C =   2363.33003 [MHz]
  Nuclear repulsion =   37.391659574861933

  Charge       = 0
  Multiplicity = 1
  Electrons    = 18
  Nalpha       = 9
  Nbeta        = 9

  ==> Algorithm <==

  SCF Algorithm Type is DF.
  DIIS enabled.
  MOM disabled.
  Fractional occupation disabled.
  Guess Type is SAD.
  Energy threshold   = 1.00e-07
  Density threshold  = 1.00e-08
  Integral threshold = 0.00e+00

  ==> Primary Basis <==

  Basis Set: AUG-CC-PVQZ
    Blend: AUG-CC-PVQZ
    Number of shells: 82
    Number of basis function: 298
    Number of Cartesian functions: 375
    Spherical Harmonics?: true
    Max angular momentum: 4

   => Loading Basis Set <=

    Name: (AUG-CC-PVQZ AUX)
    Role: JKFIT
    Keyword: DF_BASIS_SCF
    atoms 1   entry F          line   388 file /home/liuchw/anaconda3/envs/psi4env/share/psi4/basis/aug-cc-pvqz-jkfit.gbs 
    atoms 2   entry C          line   178 file /home/liuchw/anaconda3/envs/psi4env/share/psi4/basis/aug-cc-pvqz-jkfit.gbs 
    atoms 3-5 entry H          line    70 file /home/liuchw/anaconda3/envs/psi4env/share/psi4/basis/aug-cc-pvqz-jkfit.gbs 

  ==> Pre-Iterations <==

   -------------------------------------------------------
    Irrep   Nso     Nmo     Nalpha   Nbeta   Ndocc  Nsocc
   -------------------------------------------------------
     A        298     298       0       0       0       0
   -------------------------------------------------------
    Total     298     298       9       9       9       0
   -------------------------------------------------------

  ==> Integral Setup <==

  DFHelper Memory: AOs need 0.366 GiB; user supplied 27.940 GiB. Using in-core AOs.

  ==> MemDFJK: Density-Fitted J/K Matrices <==

    J tasked:                   Yes
    K tasked:                   Yes
    wK tasked:                   No
    OpenMP threads:               6
    Memory [MiB]:             28610
    Algorithm:                 Core
    Schwarz Cutoff:           1E-12
    Mask sparsity (%):       0.0135
    Fitting Condition:        1E-10

   => Auxiliary Basis Set <=

  Basis Set: (AUG-CC-PVQZ AUX)
    Blend: AUG-CC-PVQZ-JKFIT
    Number of shells: 122
    Number of basis function: 512
    Number of Cartesian functions: 699
    Spherical Harmonics?: true
    Max angular momentum: 5

  Minimum eigenvalue in the overlap matrix is 2.0835270419E-05.
  Using Symmetric Orthogonalization.

  SCF Guess: Superposition of Atomic Densities via on-the-fly atomic UHF.

  ==> Iterations <==

                           Total Energy        Delta E     RMS |[F,P]|

   @DF-RHF iter SAD:  -138.44697714642984   -1.38447e+02   0.00000e+00 
   @DF-RHF iter   1:  -139.06922065553886   -6.22244e-01   9.19099e-04 DIIS
   @DF-RHF iter   2:  -139.10150632774582   -3.22857e-02   4.28599e-04 DIIS
   @DF-RHF iter   3:  -139.10628350988938   -4.77718e-03   1.06277e-04 DIIS
   @DF-RHF iter   4:  -139.10683318660750   -5.49677e-04   2.59488e-05 DIIS
   @DF-RHF iter   5:  -139.10687657296867   -4.33864e-05   6.36685e-06 DIIS
   @DF-RHF iter   6:  -139.10687874459424   -2.17163e-06   1.12634e-06 DIIS
   @DF-RHF iter   7:  -139.10687886309734   -1.18503e-07   1.69916e-07 DIIS
   @DF-RHF iter   8:  -139.10687886587962   -2.78229e-09   3.60300e-08 DIIS
   @DF-RHF iter   9:  -139.10687886602489   -1.45263e-10   8.14756e-09 DIIS
  Energy and wave function converged.


  ==> Post-Iterations <==

    Orbital Energies [Eh]
    ---------------------

    Doubly Occupied:                                                      

       1A    -26.275579     2A    -11.304218     3A     -1.586143  
       4A     -0.956337     5A     -0.695740     6A     -0.695740  
       7A     -0.675568     8A     -0.531870     9A     -0.531869  

    Virtual:                                                              

      10A      0.025643    11A      0.041850    12A      0.041850  
      13A      0.064953    14A      0.106149    15A      0.106149  
      16A      0.122468    17A      0.156799    18A      0.177035  
      19A      0.177035    20A      0.185285    21A      0.185285  
      22A      0.200632    23A      0.259042    24A      0.261814  
      25A      0.261814    26A      0.272543    27A      0.272543  
      28A      0.274624    29A      0.286039    30A      0.292824  
      31A      0.292824    32A      0.325849    33A      0.377215  
      34A      0.377215    35A      0.393988    36A      0.412691  
      37A      0.417941    38A      0.417941    39A      0.535852  
      40A      0.535852    41A      0.590690    42A      0.599171  
      43A      0.599171    44A      0.618576    45A      0.670016  
      46A      0.681495    47A      0.681495    48A      0.717282  
      49A      0.717282    50A      0.720131    51A      0.727696  
      52A      0.727696    53A      0.731021    54A      0.784828  
      55A      0.785177    56A      0.792425    57A      0.792425  
      58A      0.796212    59A      0.796212    60A      0.872581  
      61A      0.878026    62A      0.878026    63A      0.901557  
      64A      0.901557    65A      0.917289    66A      0.978185  
      67A      0.989918    68A      0.989918    69A      1.067827  
      70A      1.083884    71A      1.083884    72A      1.127296  
      73A      1.155535    74A      1.155535    75A      1.164800  
      76A      1.210975    77A      1.210975    78A      1.284252  
      79A      1.284252    80A      1.291711    81A      1.352111  
      82A      1.418509    83A      1.418509    84A      1.495544  
      85A      1.509403    86A      1.509403    87A      1.591584  
      88A      1.618007    89A      1.618007    90A      1.770987  
      91A      1.783190    92A      1.783190    93A      1.837197  
      94A      1.837197    95A      1.842117    96A      1.852080  
      97A      1.880328    98A      1.880328    99A      1.934228  
     100A      1.934228   101A      1.955399   102A      1.976584  
     103A      1.976585   104A      2.021572   105A      2.028055  
     106A      2.034287   107A      2.034287   108A      2.082304  
     109A      2.100964   110A      2.118455   111A      2.118455  
     112A      2.152623   113A      2.181367   114A      2.181367  
     115A      2.195248   116A      2.230241   117A      2.231772  
     118A      2.260278   119A      2.260278   120A      2.292938  
     121A      2.292938   122A      2.366797   123A      2.366797  
     124A      2.386293   125A      2.545270   126A      2.545270  
     127A      2.621830   128A      2.654550   129A      2.654550  
     130A      2.721495   131A      2.732178   132A      2.732178  
     133A      2.738057   134A      2.745241   135A      2.787267  
     136A      2.787267   137A      2.859489   138A      2.859489  
     139A      2.883965   140A      2.942969   141A      2.942969  
     142A      3.061658   143A      3.062822   144A      3.062822  
     145A      3.157949   146A      3.207256   147A      3.207256  
     148A      3.295581   149A      3.370968   150A      3.370969  
     151A      3.517563   152A      3.517563   153A      3.579601  
     154A      3.618637   155A      3.754740   156A      3.754740  
     157A      3.812771   158A      3.849825   159A      3.879136  
     160A      3.879137   161A      4.039791   162A      4.081288  
     163A      4.081288   164A      4.122236   165A      4.170912  
     166A      4.170912   167A      4.223928   168A      4.223928  
     169A      4.266548   170A      4.266548   171A      4.547218  
     172A      4.565320   173A      4.565320   174A      4.863818  
     175A      4.874952   176A      4.874953   177A      4.880520  
     178A      5.000056   179A      5.000056   180A      5.077558  
     181A      5.297863   182A      5.436696   183A      5.448535  
     184A      5.448535   185A      5.499615   186A      5.499616  
     187A      5.661127   188A      5.740890   189A      5.760453  
     190A      5.829056   191A      5.829056   192A      5.833457  
     193A      5.971006   194A      5.971006   195A      5.985109  
     196A      6.045059   197A      6.045060   198A      6.200102  
     199A      6.317508   200A      6.496722   201A      6.496723  
     202A      6.531849   203A      6.531849   204A      6.549350  
     205A      6.549350   206A      6.591856   207A      6.736521  
     208A      6.795478   209A      6.795479   210A      6.821639  
     211A      6.824969   212A      6.883309   213A      6.883309  
     214A      7.015881   215A      7.015882   216A      7.150917  
     217A      7.170841   218A      7.170841   219A      7.420992  
     220A      7.420993   221A      7.429209   222A      7.592533  
     223A      7.601301   224A      7.601301   225A      7.667344  
     226A      7.667345   227A      7.760760   228A      7.877040  
     229A      7.877040   230A      7.974685   231A      8.043761  
     232A      8.043762   233A      8.272074   234A      8.395537  
     235A      8.395537   236A      8.472589   237A      8.595512  
     238A      8.595512   239A      8.742984   240A      8.742985  
     241A      8.916186   242A      8.941892   243A      8.941893  
     244A      9.077971   245A      9.164661   246A      9.164661  
     247A      9.250989   248A      9.280772   249A      9.315600  
     250A      9.450002   251A      9.450003   252A      9.650461  
     253A      9.650462   254A      9.715219   255A      9.844697  
     256A      9.844697   257A      9.986853   258A     10.156562  
     259A     10.156562   260A     10.157233   261A     10.369160  
     262A     10.369161   263A     10.579137   264A     10.798496  
     265A     10.798498   266A     10.903293   267A     11.043750  
     268A     11.043752   269A     11.468402   270A     13.114884  
     271A     13.114889   272A     13.490131   273A     13.789323  
     274A     13.789323   275A     14.051779   276A     14.070480  
     277A     14.140332   278A     14.140333   279A     14.255068  
     280A     14.255068   281A     14.375478   282A     14.375478  
     283A     14.380249   284A     15.013194   285A     16.001681  
     286A     16.007211   287A     16.212641   288A     16.212642  
     289A     16.699736   290A     16.699737   291A     16.809914  
     292A     17.155715   293A     17.155716   294A     17.625583  
     295A     17.625583   296A     17.950567   297A     29.164656  
     298A     56.273621  

    Final Occupation by Irrep:
              A 
    DOCC [     9 ]

  @DF-RHF Final Energy:  -139.10687886602489

   => Energetics <=

    Nuclear Repulsion Energy =             37.3916595748619329
    One-Electron Energy =                -266.4909501712583051
    Two-Electron Energy =                  89.9924117303714866
    Total Energy =                       -139.1068788660248856

Computation Completed


Properties will be evaluated at   0.000000,   0.000000,   0.000000 [a0]

Properties computed using the SCF density matrix

  Nuclear Dipole Moment: [e a0]
     X:    77.5661      Y:     0.0000      Z:     0.0000

  Electronic Dipole Moment: [e a0]
     X:   -78.3726      Y:    -0.0000      Z:    -0.0000

  Dipole Moment: [e a0]
     X:    -0.8064      Y:    -0.0000      Z:    -0.0000     Total:     0.8064

  Dipole Moment: [D]
     X:    -2.0498      Y:    -0.0000      Z:    -0.0000     Total:     2.0498


*** tstop() called on node36.bme.utexas.edu at Sat Apr 11 16:25:04 2020
Module time:
	user time   =      21.73 seconds =       0.36 minutes
	system time =       1.05 seconds =       0.02 minutes
	total time  =          4 seconds =       0.07 minutes
Total time:
	user time   =      36.81 seconds =       0.61 minutes
	system time =       2.04 seconds =       0.03 minutes
	total time  =          7 seconds =       0.12 minutes

*** tstart() called on node36.bme.utexas.edu
*** at Sat Apr 11 16:25:04 2020


  //>>>>>>>>>>>>>>>>>>>>>>>>>>>>>>>>>>>//
  //               DFMP2               //
  //<<<<<<<<<<<<<<<<<<<<<<<<<<<<<<<<<<<//

   => Loading Basis Set <=

    Name: (AUG-CC-PVQZ AUX)
    Role: RIFIT
    Keyword: DF_BASIS_MP2
    atoms 1   entry F          line   406 file /home/liuchw/anaconda3/envs/psi4env/share/psi4/basis/aug-cc-pvqz-ri.gbs 
    atoms 2   entry C          line   184 file /home/liuchw/anaconda3/envs/psi4env/share/psi4/basis/aug-cc-pvqz-ri.gbs 
    atoms 3-5 entry H          line    30 file /home/liuchw/anaconda3/envs/psi4env/share/psi4/basis/aug-cc-pvqz-ri.gbs 

	 --------------------------------------------------------
	                          DF-MP2                         
	      2nd-Order Density-Fitted Moller-Plesset Theory     
	              RMP2 Wavefunction,   6 Threads             
	                                                         
	        Rob Parrish, Justin Turney, Andy Simmonett,      
	           Ed Hohenstein, and C. David Sherrill          
	 --------------------------------------------------------

   => Auxiliary Basis Set <=

  Basis Set: (AUG-CC-PVQZ AUX)
    Blend: AUG-CC-PVQZ-RI
    Number of shells: 132
    Number of basis function: 576
    Number of Cartesian functions: 789
    Spherical Harmonics?: true
    Max angular momentum: 5

	 --------------------------------------------------------
	                 NBF =   298, NAUX =   576
	 --------------------------------------------------------
	   CLASS    FOCC     OCC    AOCC    AVIR     VIR    FVIR
	   PAIRS       0       9       9     289     289       0
	 --------------------------------------------------------

	-----------------------------------------------------------
	 ==================> DF-MP2 Energies <==================== 
	-----------------------------------------------------------
	 Reference Energy          =    -139.1068788660248856 [Eh]
	 Singles Energy            =      -0.0000000000000000 [Eh]
	 Same-Spin Energy          =      -0.1175819544855184 [Eh]
	 Opposite-Spin Energy      =      -0.4173162091552821 [Eh]
	 Correlation Energy        =      -0.5348981636408006 [Eh]
	 Total Energy              =    -139.6417770296656897 [Eh]
	-----------------------------------------------------------
	 ================> DF-SCS-MP2 Energies <================== 
	-----------------------------------------------------------
	 SCS Same-Spin Scale       =       0.3333333333333333 [-]
	 SCS Opposite-Spin Scale   =       1.2000000000000000 [-]
	 SCS Same-Spin Energy      =      -0.0391939848285061 [Eh]
	 SCS Opposite-Spin Energy  =      -0.5007794509863385 [Eh]
	 SCS Correlation Energy    =      -0.5399734358148446 [Eh]
	 SCS Total Energy          =    -139.6468523018397434 [Eh]
	-----------------------------------------------------------


*** tstop() called on node36.bme.utexas.edu at Sat Apr 11 16:25:06 2020
Module time:
	user time   =       8.30 seconds =       0.14 minutes
	system time =       0.38 seconds =       0.01 minutes
	total time  =          2 seconds =       0.03 minutes
Total time:
	user time   =      45.11 seconds =       0.75 minutes
	system time =       2.42 seconds =       0.04 minutes
	total time  =          9 seconds =       0.15 minutes

  //>>>>>>>>>>>>>>>>>>>>>>>>>>>>>>>>>>>//
  //  CBS Results: mp2/aug-cc-pv[tq]z  //
  //<<<<<<<<<<<<<<<<<<<<<<<<<<<<<<<<<<<//


   ==> HF <==

   HI-zeta (4) Energy:               -139.106878866025


   ==> Helgaker 2-point correlated extrapolation for method: MP2 <==

   LO-zeta (3) Energy:               -139.573918291303
   HI-zeta (4) Energy:               -139.641777029666
   Alpha (exponent) Value:             3.000000000000
   Extrapolated Energy:              -139.691295568471

   @Extrapolated MP2/(T,Q):          -139.691295568471



   ==> Helgaker 2-point correlated extrapolation for method: HF <==

   LO-zeta (3) Energy:               -139.097399880842
   HI-zeta (4) Energy:               -139.106878866025
   Alpha (exponent) Value:             3.000000000000
   Extrapolated Energy:              -139.113795963321

   @Extrapolated HF/(T,Q):           -139.113795963321


   ==> Components <==

  ---------------------------------------------------------------------------------------------------------
                          Method / Basis                      Rqd      Energy [Eh]   Variable
  ---------------------------------------------------------------------------------------------------------
                              hf / aug-cc-pvtz                  *    -139.09739988   HF TOTAL ENERGY
                             mp2 / aug-cc-pvtz                  *    -139.57391829   MP2 TOTAL ENERGY
                              hf / aug-cc-pvqz                  *    -139.10687887   HF TOTAL ENERGY
                             mp2 / aug-cc-pvqz                  *    -139.64177703   MP2 TOTAL ENERGY
  ---------------------------------------------------------------------------------------------------------

   ==> Stages <==

  ---------------------------------------------------------------------------------------------------------
      Stage               Method / Basis                       Wt      Energy [Eh]   Scheme
  ---------------------------------------------------------------------------------------------------------
        scf                   hf / aug-cc-pvqz                  1    -139.10687887   xtpl_highest_1
       corl                  mp2 / aug-cc-pv[tq]z               1    -139.69129557   corl_xtpl_helgaker_2
       corl                   hf / aug-cc-pv[tq]z              -1    -139.11379596   corl_xtpl_helgaker_2
  ---------------------------------------------------------------------------------------------------------

   ==> CBS <==

  ---------------------------------------------------------------------------------------------------------
      Stage               Method / Basis                               Energy [Eh]   Scheme
  ---------------------------------------------------------------------------------------------------------
        scf                   hf / aug-cc-pvqz                       -139.10687887   xtpl_highest_1
       corl                  mp2 / aug-cc-pv[tq]z                      -0.57749961   corl_xtpl_helgaker_2
      total                  CBS                                     -139.68437847   
  ---------------------------------------------------------------------------------------------------------
   => Loading Basis Set <=

    Name: DEF2-SVP
    Role: ORBITAL
    Keyword: BASIS
    atoms 1   entry F          line   150 file /home/liuchw/anaconda3/envs/psi4env/share/psi4/basis/def2-svp.gbs 
    atoms 2   entry C          line    90 file /home/liuchw/anaconda3/envs/psi4env/share/psi4/basis/def2-svp.gbs 
    atoms 3-5 entry H          line    15 file /home/liuchw/anaconda3/envs/psi4env/share/psi4/basis/def2-svp.gbs 


       N-Body: Complex Energy (fragments = (2,), basis = (2,):  -139.68437847117488)

       N-Body: Computing complex (2/4) with fragments (2,) in the basis of fragments (1, 2).


Scratch directory: /scratch//

  //>>>>>>>>>>>>>>>>>>>>>>>>>>>>>>>>>>>//
  //   CBS Setup: mp2/aug-cc-pv[tq]z   //
  //<<<<<<<<<<<<<<<<<<<<<<<<<<<<<<<<<<<//

    Naive listing of computations required.
             hf / aug-cc-pvqz              for  HF TOTAL ENERGY
            mp2 / aug-cc-pvtz              for  MP2 TOTAL ENERGY
            mp2 / aug-cc-pvqz              for  MP2 TOTAL ENERGY
             hf / aug-cc-pvtz              for  HF TOTAL ENERGY
             hf / aug-cc-pvqz              for  HF TOTAL ENERGY

    Enlightened listing of computations required.
            mp2 / aug-cc-pvtz              for  MP2 TOTAL ENERGY
            mp2 / aug-cc-pvqz              for  MP2 TOTAL ENERGY

    Full listing of computations to be obtained (required and bonus).
             hf / aug-cc-pvtz              for  HF TOTAL ENERGY
            mp2 / aug-cc-pvtz              for  MP2 TOTAL ENERGY
             hf / aug-cc-pvqz              for  HF TOTAL ENERGY
            mp2 / aug-cc-pvqz              for  MP2 TOTAL ENERGY

  //>>>>>>>>>>>>>>>>>>>>>>>>>>>>>>>>>>>>//
  // CBS Computation: MP2 / AUG-CC-PVTZ //
  //<<<<<<<<<<<<<<<<<<<<<<<<<<<<<<<<<<<<//


Scratch directory: /scratch//

*** tstart() called on node36.bme.utexas.edu
*** at Sat Apr 11 16:25:07 2020

   => Loading Basis Set <=

    Name: AUG-CC-PVTZ
    Role: ORBITAL
    Keyword: BASIS
    atoms 1, 6      entry F          line   377 file /home/liuchw/anaconda3/envs/psi4env/share/psi4/basis/aug-cc-pvtz.gbs 
    atoms 2, 7      entry C          line   239 file /home/liuchw/anaconda3/envs/psi4env/share/psi4/basis/aug-cc-pvtz.gbs 
    atoms 3-5, 8-10 entry H          line    40 file /home/liuchw/anaconda3/envs/psi4env/share/psi4/basis/aug-cc-pvtz.gbs 


         ---------------------------------------------------------
                                   SCF
               by Justin Turney, Rob Parrish, Andy Simmonett
                          and Daniel G. A. Smith
                              RHF Reference
                        6 Threads,  38146 MiB Core
         ---------------------------------------------------------

  ==> Geometry <==

    Molecular point group: c1
    Full point group: C1

    Geometry (in Angstrom), charge = 0, multiplicity = 1:

       Center              X                  Y                   Z               Mass       
    ------------   -----------------  -----------------  -----------------  -----------------
      Gh(F)          -1.746783750600    -0.000005796782    -0.000000249586    18.998403162730
      Gh(C)          -3.129805750600     0.000005203218    -0.000000249586    12.000000000000
      Gh(H)          -3.484199750600     1.027044203218    -0.000001249586     1.007825032230
      Gh(H)          -3.484211750600    -0.513509796782     0.889439750414     1.007825032230
      Gh(H)          -3.484212750600    -0.513510796782    -0.889439249586     1.007825032230
         F            3.031668249400     0.000001203218     0.000000750414    18.998403162730
         C            1.648302249400     0.000000203218    -0.000000249586    12.000000000000
         H            1.290469249400     1.025401203218    -0.000000249586     1.007825032230
         H            1.290470249400    -0.512701796782     0.888022750414     1.007825032230
         H            1.290471249400    -0.512700796782    -0.888025249586     1.007825032230

  Running in c1 symmetry.

  Rotational constants: A =      2.64716  B =      0.03942  C =      0.03942 [cm^-1]
  Rotational constants: A =  79359.77305  B =   1181.73706  C =   1181.73706 [MHz]
  Nuclear repulsion =   37.391659574861933

  Charge       = 0
  Multiplicity = 1
  Electrons    = 18
  Nalpha       = 9
  Nbeta        = 9

  ==> Algorithm <==

  SCF Algorithm Type is DF.
  DIIS enabled.
  MOM disabled.
  Fractional occupation disabled.
  Guess Type is SAD.
  Energy threshold   = 1.00e-07
  Density threshold  = 1.00e-08
  Integral threshold = 0.00e+00

  ==> Primary Basis <==

  Basis Set: AUG-CC-PVTZ
    Blend: AUG-CC-PVTZ
    Number of shells: 110
    Number of basis function: 322
    Number of Cartesian functions: 370
    Spherical Harmonics?: true
    Max angular momentum: 3

   => Loading Basis Set <=

    Name: (AUG-CC-PVTZ AUX)
    Role: JKFIT
    Keyword: DF_BASIS_SCF
    atoms 1, 6      entry F          line   348 file /home/liuchw/anaconda3/envs/psi4env/share/psi4/basis/aug-cc-pvtz-jkfit.gbs 
    atoms 2, 7      entry C          line   162 file /home/liuchw/anaconda3/envs/psi4env/share/psi4/basis/aug-cc-pvtz-jkfit.gbs 
    atoms 3-5, 8-10 entry H          line    70 file /home/liuchw/anaconda3/envs/psi4env/share/psi4/basis/aug-cc-pvtz-jkfit.gbs 

  ==> Pre-Iterations <==

   -------------------------------------------------------
    Irrep   Nso     Nmo     Nalpha   Nbeta   Ndocc  Nsocc
   -------------------------------------------------------
     A        322     322       0       0       0       0
   -------------------------------------------------------
    Total     322     322       9       9       9       0
   -------------------------------------------------------

  ==> Integral Setup <==

  DFHelper Memory: AOs need 0.505 GiB; user supplied 27.940 GiB. Using in-core AOs.

  ==> MemDFJK: Density-Fitted J/K Matrices <==

    J tasked:                   Yes
    K tasked:                   Yes
    wK tasked:                   No
    OpenMP threads:               6
    Memory [MiB]:             28610
    Algorithm:                 Core
    Schwarz Cutoff:           1E-12
    Mask sparsity (%):      10.9930
    Fitting Condition:        1E-10

   => Auxiliary Basis Set <=

  Basis Set: (AUG-CC-PVTZ AUX)
    Blend: AUG-CC-PVTZ-JKFIT
    Number of shells: 204
    Number of basis function: 692
    Number of Cartesian functions: 854
    Spherical Harmonics?: true
    Max angular momentum: 4

  Minimum eigenvalue in the overlap matrix is 4.8658032677E-05.
  Using Symmetric Orthogonalization.

  SCF Guess: Superposition of Atomic Densities via on-the-fly atomic UHF.

  ==> Iterations <==

                           Total Energy        Delta E     RMS |[F,P]|

   @DF-RHF iter SAD:  -138.43922352356557   -1.38439e+02   0.00000e+00 
   @DF-RHF iter   1:  -139.05985071518734   -6.20627e-01   8.43244e-04 DIIS
   @DF-RHF iter   2:  -139.09204959422684   -3.21989e-02   3.95380e-04 DIIS
   @DF-RHF iter   3:  -139.09683010794114   -4.78051e-03   9.70762e-05 DIIS
   @DF-RHF iter   4:  -139.09737804966468   -5.47942e-04   2.37294e-05 DIIS
   @DF-RHF iter   5:  -139.09741967133718   -4.16217e-05   5.72936e-06 DIIS
   @DF-RHF iter   6:  -139.09742177528659   -2.10395e-06   9.93501e-07 DIIS
   @DF-RHF iter   7:  -139.09742188699093   -1.11704e-07   1.51315e-07 DIIS
   @DF-RHF iter   8:  -139.09742188959905   -2.60812e-09   3.18119e-08 DIIS
   @DF-RHF iter   9:  -139.09742188973257   -1.33525e-10   7.03303e-09 DIIS
  Energy and wave function converged.


  ==> Post-Iterations <==

    Orbital Energies [Eh]
    ---------------------

    Doubly Occupied:                                                      

       1A    -26.279147     2A    -11.305195     3A     -1.587313  
       4A     -0.956563     5A     -0.695680     6A     -0.695680  
       7A     -0.675612     8A     -0.531711     9A     -0.531711  

    Virtual:                                                              

      10A      0.018174    11A      0.039443    12A      0.039443  
      13A      0.040729    14A      0.060145    15A      0.060145  
      16A      0.072537    17A      0.100037    18A      0.107009  
      19A      0.107009    20A      0.121550    21A      0.131218  
      22A      0.131218    23A      0.144953    24A      0.186369  
      25A      0.191349    26A      0.191349    27A      0.209493  
      28A      0.209493    29A      0.233343    30A      0.233343  
      31A      0.238625    32A      0.259332    33A      0.268850  
      34A      0.268850    35A      0.284688    36A      0.294966  
      37A      0.294966    38A      0.324898    39A      0.326061  
      40A      0.326061    41A      0.329285    42A      0.340447  
      43A      0.346356    44A      0.346356    45A      0.357980  
      46A      0.357981    47A      0.360637    48A      0.368842  
      49A      0.386617    50A      0.409249    51A      0.428171  
      52A      0.428171    53A      0.448630    54A      0.448729  
      55A      0.448730    56A      0.454108    57A      0.454109  
      58A      0.471025    59A      0.479871    60A      0.479872  
      61A      0.539276    62A      0.539276    63A      0.545881  
      64A      0.549656    65A      0.549656    66A      0.586916  
      67A      0.663889    68A      0.666352    69A      0.666352  
      70A      0.680277    71A      0.724157    72A      0.724157  
      73A      0.783408    74A      0.808606    75A      0.808606  
      76A      0.812481    77A      0.838022    78A      0.874375  
      79A      0.886297    80A      0.886298    81A      0.900279  
      82A      0.900279    83A      0.929306    84A      0.929307  
      85A      0.941962    86A      0.959002    87A      0.959002  
      88A      0.961728    89A      0.985326    90A      0.985327  
      91A      0.999004    92A      1.020796    93A      1.027720  
      94A      1.027720    95A      1.051514    96A      1.051514  
      97A      1.054528    98A      1.054528    99A      1.067884  
     100A      1.075032   101A      1.087816   102A      1.087816  
     103A      1.101161   104A      1.101161   105A      1.106556  
     106A      1.113798   107A      1.135402   108A      1.139520  
     109A      1.139521   110A      1.154386   111A      1.210007  
     112A      1.210008   113A      1.234748   114A      1.234748  
     115A      1.256659   116A      1.256660   117A      1.260710  
     118A      1.272836   119A      1.272837   120A      1.286426  
     121A      1.286426   122A      1.307374   123A      1.327724  
     124A      1.364428   125A      1.388233   126A      1.388233  
     127A      1.395912   128A      1.395913   129A      1.458072  
     130A      1.557596   131A      1.576472   132A      1.576472  
     133A      1.595461   134A      1.650681   135A      1.665884  
     136A      1.665885   137A      1.672476   138A      1.672477  
     139A      1.694154   140A      1.700701   141A      1.700702  
     142A      1.708454   143A      1.743521   144A      1.743521  
     145A      1.746849   146A      1.795067   147A      1.799251  
     148A      1.799252   149A      1.869202   150A      1.876140  
     151A      1.876140   152A      1.901939   153A      1.942560  
     154A      1.942561   155A      1.976540   156A      2.030522  
     157A      2.030522   158A      2.045920   159A      2.045921  
     160A      2.054659   161A      2.143084   162A      2.174245  
     163A      2.174246   164A      2.185326   165A      2.185326  
     166A      2.301393   167A      2.377120   168A      2.409141  
     169A      2.409141   170A      2.607913   171A      2.680588  
     172A      2.680588   173A      2.690855   174A      2.772025  
     175A      2.941003   176A      2.941003   177A      2.961141  
     178A      3.066423   179A      3.066423   180A      3.089066  
     181A      3.171049   182A      3.204730   183A      3.244798  
     184A      3.246509   185A      3.246510   186A      3.262245  
     187A      3.262246   188A      3.317109   189A      3.439386  
     190A      3.439386   191A      3.467348   192A      3.518550  
     193A      3.518550   194A      3.542652   195A      3.555520  
     196A      3.555520   197A      3.618370   198A      3.623978  
     199A      3.623979   200A      3.667714   201A      3.705110  
     202A      3.752028   203A      3.752029   204A      3.757391  
     205A      3.757391   206A      3.830107   207A      3.830107  
     208A      3.872936   209A      3.872937   210A      3.893334  
     211A      3.992102   212A      4.010072   213A      4.010072  
     214A      4.024531   215A      4.045027   216A      4.045028  
     217A      4.049204   218A      4.090409   219A      4.090409  
     220A      4.112005   221A      4.112005   222A      4.163300  
     223A      4.163301   224A      4.187984   225A      4.243965  
     226A      4.306156   227A      4.399488   228A      4.419588  
     229A      4.419588   230A      4.451977   231A      4.451977  
     232A      4.486007   233A      4.567594   234A      4.567594  
     235A      4.614577   236A      4.716955   237A      4.716956  
     238A      4.729808   239A      4.766354   240A      4.766355  
     241A      4.805892   242A      4.805892   243A      4.807541  
     244A      4.912209   245A      4.929147   246A      4.969423  
     247A      4.969423   248A      4.995206   249A      4.995207  
     250A      5.033127   251A      5.175361   252A      5.175362  
     253A      5.183504   254A      5.183505   255A      5.289165  
     256A      5.329912   257A      5.338266   258A      5.338266  
     259A      5.392776   260A      5.441312   261A      5.457124  
     262A      5.457124   263A      5.559049   264A      5.621967  
     265A      5.649393   266A      5.649394   267A      5.755087  
     268A      5.755087   269A      5.856289   270A      5.943586  
     271A      5.943586   272A      5.990150   273A      6.151383  
     274A      6.151384   275A      6.219856   276A      6.276562  
     277A      6.276563   278A      6.580584   279A      6.580585  
     280A      6.759561   281A      6.759562   282A      6.858603  
     283A      7.116555   284A      7.199099   285A      7.725872  
     286A      7.725873   287A      7.947109   288A      8.108588  
     289A      8.108589   290A      8.971224   291A      8.987582  
     292A      9.228353   293A      9.228354   294A      9.421283  
     295A      9.430720   296A      9.430720   297A      9.460653  
     298A      9.460653   299A      9.825596   300A      9.825596  
     301A      9.922390   302A     10.188560   303A     10.284189  
     304A     10.366289   305A     10.579962   306A     10.579962  
     307A     10.775569   308A     10.862786   309A     10.862786  
     310A     12.128471   311A     13.057036   312A     13.057036  
     313A     13.352136   314A     13.352137   315A     13.828994  
     316A     14.642596   317A     14.642597   318A     15.147757  
     319A     16.201290   320A     17.793356   321A     52.280432  
     322A     75.357485  

    Final Occupation by Irrep:
              A 
    DOCC [     9 ]

  @DF-RHF Final Energy:  -139.09742188973257

   => Energetics <=

    Nuclear Repulsion Energy =             37.3916595748619329
    One-Electron Energy =                -266.4609337405316865
    Two-Electron Energy =                  89.9718522759371808
    Total Energy =                       -139.0974218897325727

Computation Completed


Properties will be evaluated at   0.000000,   0.000000,   0.000000 [a0]

Properties computed using the SCF density matrix

  Nuclear Dipole Moment: [e a0]
     X:    77.5661      Y:     0.0000      Z:     0.0000

  Electronic Dipole Moment: [e a0]
     X:   -78.3743      Y:    -0.0000      Z:    -0.0000

  Dipole Moment: [e a0]
     X:    -0.8082      Y:    -0.0000      Z:    -0.0000     Total:     0.8082

  Dipole Moment: [D]
     X:    -2.0541      Y:    -0.0000      Z:    -0.0000     Total:     2.0541


*** tstop() called on node36.bme.utexas.edu at Sat Apr 11 16:25:12 2020
Module time:
	user time   =      24.68 seconds =       0.41 minutes
	system time =       1.03 seconds =       0.02 minutes
	total time  =          5 seconds =       0.08 minutes
Total time:
	user time   =      72.40 seconds =       1.21 minutes
	system time =       3.59 seconds =       0.06 minutes
	total time  =         15 seconds =       0.25 minutes

*** tstart() called on node36.bme.utexas.edu
*** at Sat Apr 11 16:25:12 2020


  //>>>>>>>>>>>>>>>>>>>>>>>>>>>>>>>>>>>//
  //               DFMP2               //
  //<<<<<<<<<<<<<<<<<<<<<<<<<<<<<<<<<<<//

   => Loading Basis Set <=

    Name: (AUG-CC-PVTZ AUX)
    Role: RIFIT
    Keyword: DF_BASIS_MP2
    atoms 1, 6      entry F          line   322 file /home/liuchw/anaconda3/envs/psi4env/share/psi4/basis/aug-cc-pvtz-ri.gbs 
    atoms 2, 7      entry C          line   148 file /home/liuchw/anaconda3/envs/psi4env/share/psi4/basis/aug-cc-pvtz-ri.gbs 
    atoms 3-5, 8-10 entry H          line    30 file /home/liuchw/anaconda3/envs/psi4env/share/psi4/basis/aug-cc-pvtz-ri.gbs 

	 --------------------------------------------------------
	                          DF-MP2                         
	      2nd-Order Density-Fitted Moller-Plesset Theory     
	              RMP2 Wavefunction,   6 Threads             
	                                                         
	        Rob Parrish, Justin Turney, Andy Simmonett,      
	           Ed Hohenstein, and C. David Sherrill          
	 --------------------------------------------------------

   => Auxiliary Basis Set <=

  Basis Set: (AUG-CC-PVTZ AUX)
    Blend: AUG-CC-PVTZ-RI
    Number of shells: 196
    Number of basis function: 700
    Number of Cartesian functions: 874
    Spherical Harmonics?: true
    Max angular momentum: 4

	 --------------------------------------------------------
	                 NBF =   322, NAUX =   700
	 --------------------------------------------------------
	   CLASS    FOCC     OCC    AOCC    AVIR     VIR    FVIR
	   PAIRS       0       9       9     313     313       0
	 --------------------------------------------------------

	-----------------------------------------------------------
	 ==================> DF-MP2 Energies <==================== 
	-----------------------------------------------------------
	 Reference Energy          =    -139.0974218897325727 [Eh]
	 Singles Energy            =      -0.0000000000000000 [Eh]
	 Same-Spin Energy          =      -0.1097967090534419 [Eh]
	 Opposite-Spin Energy      =      -0.3669937168633409 [Eh]
	 Correlation Energy        =      -0.4767904259167828 [Eh]
	 Total Energy              =    -139.5742123156493619 [Eh]
	-----------------------------------------------------------
	 ================> DF-SCS-MP2 Energies <================== 
	-----------------------------------------------------------
	 SCS Same-Spin Scale       =       0.3333333333333333 [-]
	 SCS Opposite-Spin Scale   =       1.2000000000000000 [-]
	 SCS Same-Spin Energy      =      -0.0365989030178140 [Eh]
	 SCS Opposite-Spin Energy  =      -0.4403924602360091 [Eh]
	 SCS Correlation Energy    =      -0.4769913632538231 [Eh]
	 SCS Total Energy          =    -139.5744132529864032 [Eh]
	-----------------------------------------------------------


*** tstop() called on node36.bme.utexas.edu at Sat Apr 11 16:25:14 2020
Module time:
	user time   =      11.04 seconds =       0.18 minutes
	system time =       0.50 seconds =       0.01 minutes
	total time  =          2 seconds =       0.03 minutes
Total time:
	user time   =      83.44 seconds =       1.39 minutes
	system time =       4.10 seconds =       0.07 minutes
	total time  =         17 seconds =       0.28 minutes

  //>>>>>>>>>>>>>>>>>>>>>>>>>>>>>>>>>>>>//
  // CBS Computation: MP2 / AUG-CC-PVQZ //
  //<<<<<<<<<<<<<<<<<<<<<<<<<<<<<<<<<<<<//


Scratch directory: /scratch//

*** tstart() called on node36.bme.utexas.edu
*** at Sat Apr 11 16:25:14 2020

   => Loading Basis Set <=

    Name: AUG-CC-PVQZ
    Role: ORBITAL
    Keyword: BASIS
    atoms 1, 6      entry F          line   483 file /home/liuchw/anaconda3/envs/psi4env/share/psi4/basis/aug-cc-pvqz.gbs 
    atoms 2, 7      entry C          line   303 file /home/liuchw/anaconda3/envs/psi4env/share/psi4/basis/aug-cc-pvqz.gbs 
    atoms 3-5, 8-10 entry H          line    40 file /home/liuchw/anaconda3/envs/psi4env/share/psi4/basis/aug-cc-pvqz.gbs 


         ---------------------------------------------------------
                                   SCF
               by Justin Turney, Rob Parrish, Andy Simmonett
                          and Daniel G. A. Smith
                              RHF Reference
                        6 Threads,  38146 MiB Core
         ---------------------------------------------------------

  ==> Geometry <==

    Molecular point group: c1
    Full point group: C1

    Geometry (in Angstrom), charge = 0, multiplicity = 1:

       Center              X                  Y                   Z               Mass       
    ------------   -----------------  -----------------  -----------------  -----------------
      Gh(F)          -1.746783750600    -0.000005796782    -0.000000249586    18.998403162730
      Gh(C)          -3.129805750600     0.000005203218    -0.000000249586    12.000000000000
      Gh(H)          -3.484199750600     1.027044203218    -0.000001249586     1.007825032230
      Gh(H)          -3.484211750600    -0.513509796782     0.889439750414     1.007825032230
      Gh(H)          -3.484212750600    -0.513510796782    -0.889439249586     1.007825032230
         F            3.031668249400     0.000001203218     0.000000750414    18.998403162730
         C            1.648302249400     0.000000203218    -0.000000249586    12.000000000000
         H            1.290469249400     1.025401203218    -0.000000249586     1.007825032230
         H            1.290470249400    -0.512701796782     0.888022750414     1.007825032230
         H            1.290471249400    -0.512700796782    -0.888025249586     1.007825032230

  Running in c1 symmetry.

  Rotational constants: A =      2.64716  B =      0.03942  C =      0.03942 [cm^-1]
  Rotational constants: A =  79359.77305  B =   1181.73706  C =   1181.73706 [MHz]
  Nuclear repulsion =   37.391659574861933

  Charge       = 0
  Multiplicity = 1
  Electrons    = 18
  Nalpha       = 9
  Nbeta        = 9

  ==> Algorithm <==

  SCF Algorithm Type is DF.
  DIIS enabled.
  MOM disabled.
  Fractional occupation disabled.
  Guess Type is SAD.
  Energy threshold   = 1.00e-07
  Density threshold  = 1.00e-08
  Integral threshold = 0.00e+00

  ==> Primary Basis <==

  Basis Set: AUG-CC-PVQZ
    Blend: AUG-CC-PVQZ
    Number of shells: 164
    Number of basis function: 596
    Number of Cartesian functions: 750
    Spherical Harmonics?: true
    Max angular momentum: 4

   => Loading Basis Set <=

    Name: (AUG-CC-PVQZ AUX)
    Role: JKFIT
    Keyword: DF_BASIS_SCF
    atoms 1, 6      entry F          line   388 file /home/liuchw/anaconda3/envs/psi4env/share/psi4/basis/aug-cc-pvqz-jkfit.gbs 
    atoms 2, 7      entry C          line   178 file /home/liuchw/anaconda3/envs/psi4env/share/psi4/basis/aug-cc-pvqz-jkfit.gbs 
    atoms 3-5, 8-10 entry H          line    70 file /home/liuchw/anaconda3/envs/psi4env/share/psi4/basis/aug-cc-pvqz-jkfit.gbs 

  ==> Pre-Iterations <==

   -------------------------------------------------------
    Irrep   Nso     Nmo     Nalpha   Nbeta   Ndocc  Nsocc
   -------------------------------------------------------
     A        596     596       0       0       0       0
   -------------------------------------------------------
    Total     596     596       9       9       9       0
   -------------------------------------------------------

  ==> Integral Setup <==

  DFHelper Memory: AOs need 2.398 GiB; user supplied 27.940 GiB. Using in-core AOs.

  ==> MemDFJK: Density-Fitted J/K Matrices <==

    J tasked:                   Yes
    K tasked:                   Yes
    wK tasked:                   No
    OpenMP threads:               6
    Memory [MiB]:             28610
    Algorithm:                 Core
    Schwarz Cutoff:           1E-12
    Mask sparsity (%):      15.6254
    Fitting Condition:        1E-10

   => Auxiliary Basis Set <=

  Basis Set: (AUG-CC-PVQZ AUX)
    Blend: AUG-CC-PVQZ-JKFIT
    Number of shells: 244
    Number of basis function: 1024
    Number of Cartesian functions: 1398
    Spherical Harmonics?: true
    Max angular momentum: 5

  Minimum eigenvalue in the overlap matrix is 9.9980836707E-06.
  Using Symmetric Orthogonalization.

  SCF Guess: Superposition of Atomic Densities via on-the-fly atomic UHF.

  ==> Iterations <==

                           Total Energy        Delta E     RMS |[F,P]|

   @DF-RHF iter SAD:  -138.44697713651655   -1.38447e+02   0.00000e+00 
   @DF-RHF iter   1:  -139.06923108918946   -6.22254e-01   4.59566e-04 DIIS
   @DF-RHF iter   2:  -139.10151845350015   -3.22874e-02   2.14302e-04 DIIS
   @DF-RHF iter   3:  -139.10629574389725   -4.77729e-03   5.31399e-05 DIIS
   @DF-RHF iter   4:  -139.10684548590004   -5.49742e-04   1.29750e-05 DIIS
   @DF-RHF iter   5:  -139.10688888151674   -4.33956e-05   3.18361e-06 DIIS
   @DF-RHF iter   6:  -139.10689105352827   -2.17201e-06   5.63244e-07 DIIS
   @DF-RHF iter   7:  -139.10689117206076   -1.18532e-07   8.49547e-08 DIIS
   @DF-RHF iter   8:  -139.10689117484290   -2.78214e-09   1.80140e-08 DIIS
   @DF-RHF iter   9:  -139.10689117498799   -1.45093e-10   4.07364e-09 DIIS
  Energy and wave function converged.


  ==> Post-Iterations <==

    Orbital Energies [Eh]
    ---------------------

    Doubly Occupied:                                                      

       1A    -26.275569     2A    -11.304214     3A     -1.586134  
       4A     -0.956332     5A     -0.695734     6A     -0.695734  
       7A     -0.675564     8A     -0.531865     9A     -0.531865  

    Virtual:                                                              

      10A      0.016475    11A      0.035599    12A      0.035599  
      13A      0.036831    14A      0.054804    15A      0.054804  
      16A      0.065055    17A      0.088684    18A      0.091720  
      19A      0.091720    20A      0.105670    21A      0.114077  
      22A      0.114077    23A      0.128452    24A      0.161309  
      25A      0.163830    26A      0.163830    27A      0.177412  
      28A      0.177412    29A      0.187588    30A      0.187588  
      31A      0.201868    32A      0.224544    33A      0.228086  
      34A      0.228086    35A      0.245573    36A      0.246385  
      37A      0.246385    38A      0.265031    39A      0.265196  
      40A      0.270149    41A      0.271425    42A      0.271425  
      43A      0.274194    44A      0.274194    45A      0.289045  
      46A      0.291159    47A      0.293183    48A      0.293184  
      49A      0.318970    50A      0.329253    51A      0.343170  
      52A      0.343170    53A      0.376850    54A      0.376850  
      55A      0.380317    56A      0.380317    57A      0.395526  
      58A      0.412945    59A      0.412946    60A      0.422717  
      61A      0.422717    62A      0.424489    63A      0.461583  
      64A      0.461583    65A      0.476478    66A      0.493207  
      67A      0.532036    68A      0.533640    69A      0.533640  
      70A      0.535333    71A      0.551174    72A      0.551174  
      73A      0.610124    74A      0.613680    75A      0.613681  
      76A      0.634005    77A      0.662965    78A      0.662965  
      79A      0.669028    80A      0.674331    81A      0.694859  
      82A      0.694860    83A      0.703727    84A      0.703728  
      85A      0.705515    86A      0.711725    87A      0.721618  
      88A      0.721618    89A      0.734817    90A      0.739791  
      91A      0.739791    92A      0.751654    93A      0.754704  
      94A      0.754705    95A      0.778861    96A      0.782815  
      97A      0.782815    98A      0.791962    99A      0.799265  
     100A      0.799266   101A      0.807130   102A      0.820217  
     103A      0.820217   104A      0.827993   105A      0.848541  
     106A      0.848541   107A      0.874807   108A      0.889248  
     109A      0.889249   110A      0.905524   111A      0.905537  
     112A      0.905538   113A      0.915403   114A      0.915404  
     115A      0.948589   116A      0.954584   117A      0.954585  
     118A      0.973010   119A      0.973010   120A      0.989960  
     121A      1.020539   122A      1.020539   123A      1.037734  
     124A      1.047487   125A      1.048714   126A      1.054571  
     127A      1.054572   128A      1.055815   129A      1.066802  
     130A      1.066803   131A      1.093474   132A      1.093474  
     133A      1.112796   134A      1.140031   135A      1.182605  
     136A      1.193967   137A      1.193967   138A      1.222959  
     139A      1.222959   140A      1.226579   141A      1.239253  
     142A      1.239254   143A      1.273674   144A      1.273927  
     145A      1.273928   146A      1.325532   147A      1.325533  
     148A      1.334550   149A      1.351880   150A      1.433901  
     151A      1.433901   152A      1.460834   153A      1.469880  
     154A      1.488228   155A      1.488229   156A      1.498820  
     157A      1.517547   158A      1.517547   159A      1.543994  
     160A      1.569571   161A      1.569571   162A      1.623349  
     163A      1.623351   164A      1.641894   165A      1.674782  
     166A      1.674782   167A      1.683967   168A      1.709021  
     169A      1.750645   170A      1.750645   171A      1.782255  
     172A      1.782256   173A      1.790118   174A      1.799381  
     175A      1.813358   176A      1.813359   177A      1.835157  
     178A      1.850814   179A      1.850814   180A      1.890964  
     181A      1.897056   182A      1.904195   183A      1.904195  
     184A      1.915907   185A      1.915907   186A      1.938430  
     187A      1.938431   188A      1.972278   189A      1.998844  
     190A      1.998844   191A      2.007014   192A      2.014650  
     193A      2.014650   194A      2.023035   195A      2.040855  
     196A      2.052778   197A      2.052778   198A      2.070335  
     199A      2.077872   200A      2.077872   201A      2.093227  
     202A      2.101022   203A      2.120705   204A      2.143164  
     205A      2.143164   206A      2.152245   207A      2.166000  
     208A      2.166000   209A      2.174874   210A      2.186366  
     211A      2.186366   212A      2.203659   213A      2.203659  
     214A      2.203741   215A      2.234971   216A      2.242112  
     217A      2.244159   218A      2.244159   219A      2.257990  
     220A      2.257990   221A      2.269527   222A      2.281569  
     223A      2.281569   224A      2.299744   225A      2.302342  
     226A      2.302342   227A      2.326030   228A      2.362864  
     229A      2.385032   230A      2.385032   231A      2.417459  
     232A      2.420637   233A      2.420638   234A      2.459954  
     235A      2.459955   236A      2.463399   237A      2.534489  
     238A      2.534489   239A      2.536963   240A      2.564279  
     241A      2.564279   242A      2.609830   243A      2.609831  
     244A      2.621620   245A      2.636340   246A      2.683293  
     247A      2.687960   248A      2.687961   249A      2.711430  
     250A      2.711431   251A      2.737291   252A      2.746606  
     253A      2.776145   254A      2.776146   255A      2.799911  
     256A      2.824007   257A      2.824008   258A      2.835181  
     259A      2.867031   260A      2.867032   261A      2.890040  
     262A      2.890040   263A      2.908259   264A      2.926763  
     265A      2.955158   266A      2.972623   267A      2.972623  
     268A      2.986890   269A      2.986890   270A      3.087378  
     271A      3.087379   272A      3.088145   273A      3.109165  
     274A      3.109165   275A      3.140186   276A      3.164294  
     277A      3.202692   278A      3.202693   279A      3.232423  
     280A      3.232424   281A      3.241233   282A      3.241234  
     283A      3.247979   284A      3.271719   285A      3.308533  
     286A      3.339006   287A      3.339007   288A      3.378953  
     289A      3.400548   290A      3.400549   291A      3.460144  
     292A      3.460144   293A      3.531499   294A      3.531499  
     295A      3.592336   296A      3.592337   297A      3.621583  
     298A      3.634544   299A      3.782866   300A      3.787418  
     301A      3.790306   302A      3.790306   303A      3.813311  
     304A      3.820283   305A      3.820284   306A      3.869066  
     307A      3.869067   308A      3.882506   309A      3.907960  
     310A      3.907960   311A      3.971584   312A      4.025957  
     313A      4.073835   314A      4.104510   315A      4.104511  
     316A      4.131908   317A      4.131908   318A      4.150743  
     319A      4.186036   320A      4.186036   321A      4.259752  
     322A      4.271950   323A      4.271951   324A      4.282796  
     325A      4.282796   326A      4.328742   327A      4.367981  
     328A      4.367982   329A      4.421806   330A      4.421807  
     331A      4.487674   332A      4.574053   333A      4.583138  
     334A      4.583139   335A      4.751337   336A      4.751337  
     337A      4.869344   338A      4.881205   339A      4.908361  
     340A      4.908361   341A      4.927351   342A      4.949146  
     343A      4.949147   344A      5.004436   345A      5.004436  
     346A      5.048237   347A      5.048237   348A      5.109408  
     349A      5.132571   350A      5.132571   351A      5.195087  
     352A      5.215194   353A      5.350933   354A      5.375490  
     355A      5.436933   356A      5.444197   357A      5.444197  
     358A      5.458385   359A      5.458385   360A      5.506821  
     361A      5.506821   362A      5.624697   363A      5.661751  
     364A      5.712354   365A      5.760823   366A      5.794383  
     367A      5.828811   368A      5.828811   369A      5.852844  
     370A      5.859869   371A      5.859872   372A      5.980170  
     373A      5.980170   374A      5.990032   375A      6.046108  
     376A      6.046109   377A      6.064619   378A      6.064620  
     379A      6.184034   380A      6.196772   381A      6.224871  
     382A      6.276372   383A      6.341080   384A      6.341081  
     385A      6.442408   386A      6.497595   387A      6.497596  
     388A      6.516510   389A      6.516510   390A      6.541348  
     391A      6.549379   392A      6.549379   393A      6.617102  
     394A      6.621416   395A      6.621416   396A      6.736754  
     397A      6.790792   398A      6.803836   399A      6.803836  
     400A      6.810279   401A      6.810280   402A      6.824262  
     403A      6.839680   404A      6.901706   405A      6.909186  
     406A      6.909186   407A      6.930294   408A      6.930295  
     409A      6.951209   410A      7.005636   411A      7.005636  
     412A      7.006128   413A      7.022287   414A      7.022288  
     415A      7.181194   416A      7.189392   417A      7.189392  
     418A      7.248425   419A      7.281980   420A      7.281981  
     421A      7.351701   422A      7.430434   423A      7.430434  
     424A      7.439380   425A      7.439380   426A      7.462345  
     427A      7.611322   428A      7.611322   429A      7.619463  
     430A      7.668078   431A      7.681514   432A      7.681515  
     433A      7.700743   434A      7.700744   435A      7.761578  
     436A      7.810158   437A      7.861418   438A      7.861418  
     439A      7.883942   440A      7.883942   441A      7.926329  
     442A      7.926330   443A      7.946194   444A      8.000264  
     445A      8.070380   446A      8.070380   447A      8.150467  
     448A      8.199269   449A      8.199270   450A      8.216764  
     451A      8.264048   452A      8.264049   453A      8.335435  
     454A      8.405503   455A      8.405503   456A      8.409469  
     457A      8.486670   458A      8.486671   459A      8.496614  
     460A      8.606415   461A      8.606415   462A      8.748512  
     463A      8.748513   464A      8.808769   465A      8.813139  
     466A      8.813140   467A      8.951387   468A      8.951388  
     469A      9.040523   470A      9.078007   471A      9.135966  
     472A      9.135967   473A      9.168213   474A      9.168213  
     475A      9.176864   476A      9.272892   477A      9.272893  
     478A      9.282225   479A      9.322063   480A      9.334553  
     481A      9.334553   482A      9.384696   483A      9.468670  
     484A      9.471991   485A      9.471992   486A      9.606796  
     487A      9.606796   488A      9.675738   489A      9.676964  
     490A      9.676965   491A      9.746826   492A      9.783099  
     493A      9.783099   494A      9.813966   495A      9.851140  
     496A      9.876974   497A      9.876974   498A      9.888550  
     499A      9.888551   500A      9.983731   501A      9.987457  
     502A     10.112294   503A     10.112295   504A     10.165640  
     505A     10.165640   506A     10.180552   507A     10.369759  
     508A     10.369761   509A     10.376780   510A     10.376782  
     511A     10.591493   512A     10.694472   513A     10.727171  
     514A     10.727172   515A     10.748940   516A     10.764945  
     517A     10.764946   518A     10.820845   519A     10.820847  
     520A     10.918840   521A     11.049700   522A     11.049701  
     523A     11.088694   524A     11.195862   525A     11.195863  
     526A     11.469095   527A     11.489287   528A     11.584046  
     529A     11.584046   530A     12.081072   531A     12.137430  
     532A     12.137431   533A     12.348762   534A     13.134464  
     535A     13.134466   536A     13.143402   537A     13.143406  
     538A     13.569259   539A     13.790492   540A     13.790492  
     541A     14.061216   542A     14.070605   543A     14.147822  
     544A     14.147822   545A     14.259372   546A     14.259372  
     547A     14.348835   548A     14.387944   549A     14.387944  
     550A     14.411377   551A     14.937020   552A     14.937020  
     553A     15.030918   554A     15.063406   555A     15.250225  
     556A     15.259119   557A     15.491227   558A     15.491228  
     559A     15.593131   560A     15.593132   561A     15.808184  
     562A     16.007399   563A     16.012587   564A     16.216137  
     565A     16.216137   566A     16.617351   567A     16.702223  
     568A     16.702223   569A     16.825829   570A     17.173309  
     571A     17.173309   572A     17.301197   573A     17.301198  
     574A     17.636537   575A     17.636537   576A     18.023893  
     577A     18.851016   578A     18.853839   579A     19.089509  
     580A     19.089509   581A     19.452526   582A     19.452526  
     583A     19.540326   584A     23.027195   585A     23.027196  
     586A     23.441154   587A     23.441155   588A     23.684548  
     589A     26.364238   590A     28.790145   591A     28.790146  
     592A     29.226673   593A     30.006034   594A     56.333151  
     595A     72.419951   596A    158.385258  

    Final Occupation by Irrep:
              A 
    DOCC [     9 ]

  @DF-RHF Final Energy:  -139.10689117498799

   => Energetics <=

    Nuclear Repulsion Energy =             37.3916595748619329
    One-Electron Energy =                -266.4910796275415237
    Two-Electron Energy =                  89.9925288776915977
    Total Energy =                       -139.1068911749879931

Computation Completed


Properties will be evaluated at   0.000000,   0.000000,   0.000000 [a0]

Properties computed using the SCF density matrix

  Nuclear Dipole Moment: [e a0]
     X:    77.5661      Y:     0.0000      Z:     0.0000

  Electronic Dipole Moment: [e a0]
     X:   -78.3725      Y:    -0.0000      Z:    -0.0000

  Dipole Moment: [e a0]
     X:    -0.8064      Y:    -0.0000      Z:    -0.0000     Total:     0.8064

  Dipole Moment: [D]
     X:    -2.0496      Y:    -0.0000      Z:    -0.0000     Total:     2.0496


*** tstop() called on node36.bme.utexas.edu at Sat Apr 11 16:25:31 2020
Module time:
	user time   =      85.84 seconds =       1.43 minutes
	system time =       2.80 seconds =       0.05 minutes
	total time  =         17 seconds =       0.28 minutes
Total time:
	user time   =     169.34 seconds =       2.82 minutes
	system time =       6.90 seconds =       0.12 minutes
	total time  =         34 seconds =       0.57 minutes

*** tstart() called on node36.bme.utexas.edu
*** at Sat Apr 11 16:25:31 2020


  //>>>>>>>>>>>>>>>>>>>>>>>>>>>>>>>>>>>//
  //               DFMP2               //
  //<<<<<<<<<<<<<<<<<<<<<<<<<<<<<<<<<<<//

   => Loading Basis Set <=

    Name: (AUG-CC-PVQZ AUX)
    Role: RIFIT
    Keyword: DF_BASIS_MP2
    atoms 1, 6      entry F          line   406 file /home/liuchw/anaconda3/envs/psi4env/share/psi4/basis/aug-cc-pvqz-ri.gbs 
    atoms 2, 7      entry C          line   184 file /home/liuchw/anaconda3/envs/psi4env/share/psi4/basis/aug-cc-pvqz-ri.gbs 
    atoms 3-5, 8-10 entry H          line    30 file /home/liuchw/anaconda3/envs/psi4env/share/psi4/basis/aug-cc-pvqz-ri.gbs 

	 --------------------------------------------------------
	                          DF-MP2                         
	      2nd-Order Density-Fitted Moller-Plesset Theory     
	              RMP2 Wavefunction,   6 Threads             
	                                                         
	        Rob Parrish, Justin Turney, Andy Simmonett,      
	           Ed Hohenstein, and C. David Sherrill          
	 --------------------------------------------------------

   => Auxiliary Basis Set <=

  Basis Set: (AUG-CC-PVQZ AUX)
    Blend: AUG-CC-PVQZ-RI
    Number of shells: 264
    Number of basis function: 1152
    Number of Cartesian functions: 1578
    Spherical Harmonics?: true
    Max angular momentum: 5

	 --------------------------------------------------------
	                 NBF =   596, NAUX =  1152
[...]
     127A      0.987366   128A      0.987367   129A      0.994405  
     130A      1.022448   131A      1.022448   132A      1.044916  
     133A      1.049426   134A      1.056751   135A      1.056752  
     136A      1.058267   137A      1.086833   138A      1.086834  
     139A      1.105416   140A      1.111113   141A      1.156665  
     142A      1.156665   143A      1.177198   144A      1.194757  
     145A      1.194757   146A      1.200086   147A      1.224259  
     148A      1.224260   149A      1.236204   150A      1.236204  
     151A      1.240313   152A      1.261660   153A      1.261660  
     154A      1.262779   155A      1.293877   156A      1.293877  
     157A      1.337219   158A      1.343978   159A      1.366242  
     160A      1.401516   161A      1.401516   162A      1.441259  
     163A      1.441259   164A      1.479582   165A      1.479582  
     166A      1.489163   167A      1.523008   168A      1.523008  
     169A      1.532846   170A      1.546923   171A      1.546923  
     172A      1.583260   173A      1.637742   174A      1.637742  
     175A      1.649294   176A      1.713777   177A      1.715999  
     178A      1.715999   179A      1.786669   180A      1.786875  
     181A      1.786875   182A      1.807009   183A      1.807009  
     184A      1.807847   185A      1.824116   186A      1.848693  
     187A      1.848693   188A      1.868834   189A      1.871533  
     190A      1.871535   191A      1.881411   192A      1.913097  
     193A      1.913098   194A      1.922676   195A      1.922676  
     196A      1.933442   197A      1.933442   198A      1.962230  
     199A      1.981924   200A      1.997352   201A      1.997353  
     202A      2.012574   203A      2.027132   204A      2.027133  
     205A      2.032280   206A      2.033472   207A      2.034353  
     208A      2.034354   209A      2.057810   210A      2.071643  
     211A      2.071643   212A      2.103795   213A      2.112696  
     214A      2.117484   215A      2.119539   216A      2.119539  
     217A      2.123971   218A      2.176439   219A      2.176440  
     220A      2.191826   221A      2.191826   222A      2.196874  
     223A      2.217755   224A      2.218658   225A      2.226668  
     226A      2.226668   227A      2.236430   228A      2.240878  
     229A      2.240878   230A      2.245954   231A      2.251263  
     232A      2.263390   233A      2.288150   234A      2.288150  
     235A      2.310537   236A      2.310538   237A      2.311801  
     238A      2.319731   239A      2.319732   240A      2.354570  
     241A      2.362915   242A      2.362916   243A      2.398522  
     244A      2.398523   245A      2.437088   246A      2.468263  
     247A      2.468263   248A      2.493586   249A      2.548856  
     250A      2.548857   251A      2.583475   252A      2.583476  
     253A      2.603290   254A      2.656667   255A      2.664238  
     256A      2.664239   257A      2.681266   258A      2.681266  
     259A      2.723894   260A      2.730686   261A      2.739681  
     262A      2.739681   263A      2.746654   264A      2.751949  
     265A      2.784741   266A      2.784742   267A      2.809437  
     268A      2.809438   269A      2.830113   270A      2.831785  
     271A      2.831785   272A      2.867456   273A      2.886245  
     274A      2.886246   275A      2.921110   276A      2.921112  
     277A      2.926299   278A      2.954823   279A      2.954823  
     280A      3.002801   281A      3.002802   282A      3.011425  
     283A      3.064975   284A      3.064976   285A      3.074798  
     286A      3.126186   287A      3.136235   288A      3.136235  
     289A      3.230029   290A      3.240950   291A      3.240950  
     292A      3.270323   293A      3.271163   294A      3.271163  
     295A      3.373921   296A      3.379632   297A      3.379632  
     298A      3.415302   299A      3.415302   300A      3.452579  
     301A      3.521927   302A      3.521928   303A      3.546063  
     304A      3.546064   305A      3.605332   306A      3.610214  
     307A      3.635470   308A      3.686078   309A      3.750724  
     310A      3.750724   311A      3.813199   312A      3.815072  
     313A      3.815072   314A      3.827224   315A      3.866351  
     316A      3.887064   317A      3.887065   318A      3.899870  
     319A      3.925453   320A      3.925454   321A      4.051817  
     322A      4.086405   323A      4.103168   324A      4.103168  
     325A      4.117062   326A      4.117063   327A      4.149430  
     328A      4.169467   329A      4.169468   330A      4.180793  
     331A      4.199179   332A      4.199180   333A      4.251901  
     334A      4.251902   335A      4.280258   336A      4.280258  
     337A      4.289138   338A      4.289138   339A      4.320357  
     340A      4.320358   341A      4.551042   342A      4.566760  
     343A      4.566761   344A      4.586596   345A      4.600461  
     346A      4.600461   347A      4.872209   348A      4.882321  
     349A      4.882791   350A      4.882791   351A      4.902247  
     352A      4.933934   353A      4.933934   354A      4.937135  
     355A      5.008466   356A      5.008467   357A      5.016577  
     358A      5.016577   359A      5.131009   360A      5.199854  
     361A      5.318892   362A      5.372286   363A      5.429257  
     364A      5.448193   365A      5.459263   366A      5.459263  
     367A      5.475630   368A      5.475631   369A      5.508197  
     370A      5.508197   371A      5.528281   372A      5.528282  
     373A      5.705955   374A      5.752013   375A      5.764520  
     376A      5.768126   377A      5.772755   378A      5.818603  
     379A      5.841415   380A      5.841415   381A      5.845298  
     382A      5.845298   383A      5.866131   384A      5.942934  
     385A      5.974339   386A      5.974339   387A      5.985973  
     388A      6.002660   389A      6.002660   390A      6.021763  
     391A      6.052025   392A      6.052025   393A      6.078326  
     394A      6.078326   395A      6.192553   396A      6.214478  
     397A      6.376704   398A      6.459624   399A      6.501722  
     400A      6.501722   401A      6.524111   402A      6.524112  
     403A      6.525490   404A      6.525490   405A      6.540883  
     406A      6.540883   407A      6.580825   408A      6.580825  
     409A      6.610586   410A      6.628755   411A      6.628755  
     412A      6.654786   413A      6.729803   414A      6.751829  
     415A      6.798771   416A      6.798771   417A      6.803656  
     418A      6.821750   419A      6.821751   420A      6.839182  
     421A      6.854560   422A      6.904635   423A      6.904635  
     424A      6.925671   425A      6.925671   426A      6.956531  
     427A      7.035210   428A      7.035211   429A      7.044317  
     430A      7.044317   431A      7.169702   432A      7.169703  
     433A      7.179262   434A      7.200440   435A      7.203911  
     436A      7.203912   437A      7.426335   438A      7.426336  
     439A      7.443879   440A      7.443879   441A      7.450664  
     442A      7.476221   443A      7.597992   444A      7.602222  
     445A      7.602222   446A      7.628954   447A      7.628954  
     448A      7.635915   449A      7.670304   450A      7.670304  
     451A      7.696003   452A      7.696004   453A      7.763810  
     454A      7.775583   455A      7.879694   456A      7.879696  
     457A      7.899019   458A      7.899019   459A      7.990844  
     460A      8.017705   461A      8.055710   462A      8.055711  
     463A      8.086179   464A      8.086179   465A      8.302007  
     466A      8.348244   467A      8.392140   468A      8.392140  
     469A      8.420384   470A      8.420384   471A      8.472814  
     472A      8.517190   473A      8.592082   474A      8.592083  
     475A      8.621462   476A      8.621463   477A      8.746929  
     478A      8.746929   479A      8.763742   480A      8.763743  
     481A      8.935866   482A      8.941182   483A      8.941183  
     484A      8.968354   485A      8.968354   486A      9.054383  
     487A      9.072204   488A      9.092310   489A      9.166245  
     490A      9.166245   491A      9.184507   492A      9.184507  
     493A      9.258434   494A      9.274595   495A      9.298278  
     496A      9.324324   497A      9.347032   498A      9.380294  
     499A      9.457332   500A      9.457333   501A      9.488344  
     502A      9.488345   503A      9.649535   504A      9.649536  
     505A      9.691818   506A      9.691819   507A      9.727860  
     508A      9.762052   509A      9.869109   510A      9.869110  
     511A      9.918807   512A      9.918808   513A      9.977249  
     514A     10.002268   515A     10.156838   516A     10.156838  
     517A     10.166408   518A     10.179673   519A     10.179673  
     520A     10.191573   521A     10.361045   522A     10.361046  
     523A     10.389844   524A     10.389846   525A     10.584129  
     526A     10.607138   527A     10.803094   528A     10.803095  
     529A     10.833563   530A     10.833565   531A     10.916048  
     532A     10.933520   533A     11.040738   534A     11.040738  
     535A     11.064590   536A     11.064591   537A     11.462814  
     538A     11.484050   539A     13.139343   540A     13.139345  
     541A     13.157175   542A     13.157180   543A     13.515488  
     544A     13.583752   545A     13.779772   546A     13.779772  
     547A     13.801080   548A     13.801080   549A     14.044976  
     550A     14.060913   551A     14.072793   552A     14.081536  
     553A     14.143210   554A     14.143210   555A     14.158683  
     556A     14.158683   557A     14.258717   558A     14.258717  
     559A     14.279337   560A     14.279337   561A     14.374872  
     562A     14.374872   563A     14.402437   564A     14.402437  
     565A     14.416230   566A     14.436956   567A     15.053694  
     568A     15.129833   569A     15.998120   570A     16.003241  
     571A     16.019370   572A     16.023386   573A     16.206691  
     574A     16.206692   575A     16.227713   576A     16.227713  
     577A     16.704122   578A     16.704122   579A     16.713667  
     580A     16.713667   581A     16.820740   582A     16.862034  
     583A     17.153245   584A     17.153246   585A     17.189348  
     586A     17.189348   587A     17.635203   588A     17.635204  
     589A     17.661910   590A     17.661910   591A     18.019053  
     592A     18.051910   593A     29.172704   594A     29.241346  
     595A     56.343457   596A     56.534165  

    Final Occupation by Irrep:
              A 
    DOCC [    18 ]

  @DF-RHF Final Energy:  -278.21539236434643

   => Energetics <=

    Nuclear Repulsion Energy =            112.3014540911341612
    One-Electron Energy =                -608.0771304296561084
    Two-Electron Energy =                 217.5602839741755474
    Total Energy =                       -278.2153923643464282

Computation Completed


Properties will be evaluated at   0.000000,   0.000000,   0.000000 [a0]

Properties computed using the SCF density matrix

  Nuclear Dipole Moment: [e a0]
     X:    -7.3818      Y:     0.0000      Z:    -0.0000

  Electronic Dipole Moment: [e a0]
     X:     5.6892      Y:    -0.0000      Z:     0.0000

  Dipole Moment: [e a0]
     X:    -1.6926      Y:     0.0000      Z:    -0.0000     Total:     1.6926

  Dipole Moment: [D]
     X:    -4.3022      Y:     0.0000      Z:    -0.0000     Total:     4.3022


*** tstop() called on node36.bme.utexas.edu at Sat Apr 11 16:26:53 2020
Module time:
	user time   =      93.46 seconds =       1.56 minutes
	system time =       3.03 seconds =       0.05 minutes
	total time  =         18 seconds =       0.30 minutes
Total time:
	user time   =     564.48 seconds =       9.41 minutes
	system time =      21.42 seconds =       0.36 minutes
	total time  =        116 seconds =       1.93 minutes

*** tstart() called on node36.bme.utexas.edu
*** at Sat Apr 11 16:26:53 2020


  //>>>>>>>>>>>>>>>>>>>>>>>>>>>>>>>>>>>//
  //               DFMP2               //
  //<<<<<<<<<<<<<<<<<<<<<<<<<<<<<<<<<<<//

   => Loading Basis Set <=

    Name: (AUG-CC-PVQZ AUX)
    Role: RIFIT
    Keyword: DF_BASIS_MP2
    atoms 1, 6      entry F          line   406 file /home/liuchw/anaconda3/envs/psi4env/share/psi4/basis/aug-cc-pvqz-ri.gbs 
    atoms 2, 7      entry C          line   184 file /home/liuchw/anaconda3/envs/psi4env/share/psi4/basis/aug-cc-pvqz-ri.gbs 
    atoms 3-5, 8-10 entry H          line    30 file /home/liuchw/anaconda3/envs/psi4env/share/psi4/basis/aug-cc-pvqz-ri.gbs 

	 --------------------------------------------------------
	                          DF-MP2                         
	      2nd-Order Density-Fitted Moller-Plesset Theory     
	              RMP2 Wavefunction,   6 Threads             
	                                                         
	        Rob Parrish, Justin Turney, Andy Simmonett,      
	           Ed Hohenstein, and C. David Sherrill          
	 --------------------------------------------------------

   => Auxiliary Basis Set <=

  Basis Set: (AUG-CC-PVQZ AUX)
    Blend: AUG-CC-PVQZ-RI
    Number of shells: 264
    Number of basis function: 1152
    Number of Cartesian functions: 1578
    Spherical Harmonics?: true
    Max angular momentum: 5

	 --------------------------------------------------------
	                 NBF =   596, NAUX =  1152
	 --------------------------------------------------------
	   CLASS    FOCC     OCC    AOCC    AVIR     VIR    FVIR
	   PAIRS       0      18      18     578     578       0
	 --------------------------------------------------------

	-----------------------------------------------------------
	 ==================> DF-MP2 Energies <==================== 
	-----------------------------------------------------------
	 Reference Energy          =    -278.2153923643464282 [Eh]
	 Singles Energy            =      -0.0000000000000000 [Eh]
	 Same-Spin Energy          =      -0.2354653032245209 [Eh]
	 Opposite-Spin Energy      =      -0.8349512366974954 [Eh]
	 Correlation Energy        =      -1.0704165399220162 [Eh]
	 Total Energy              =    -279.2858089042684355 [Eh]
	-----------------------------------------------------------
	 ================> DF-SCS-MP2 Energies <================== 
	-----------------------------------------------------------
	 SCS Same-Spin Scale       =       0.3333333333333333 [-]
	 SCS Opposite-Spin Scale   =       1.2000000000000000 [-]
	 SCS Same-Spin Energy      =      -0.0784884344081736 [Eh]
	 SCS Opposite-Spin Energy  =      -1.0019414840369945 [Eh]
	 SCS Correlation Energy    =      -1.0804299184451680 [Eh]
	 SCS Total Energy          =    -279.2958222827916188 [Eh]
	-----------------------------------------------------------


*** tstop() called on node36.bme.utexas.edu at Sat Apr 11 16:27:04 2020
Module time:
	user time   =      51.31 seconds =       0.86 minutes
	system time =       1.60 seconds =       0.03 minutes
	total time  =         11 seconds =       0.18 minutes
Total time:
	user time   =     615.80 seconds =      10.26 minutes
	system time =      23.02 seconds =       0.38 minutes
	total time  =        127 seconds =       2.12 minutes

  //>>>>>>>>>>>>>>>>>>>>>>>>>>>>>>>>>>>//
  //  CBS Results: mp2/aug-cc-pv[tq]z  //
  //<<<<<<<<<<<<<<<<<<<<<<<<<<<<<<<<<<<//


   ==> HF <==

   HI-zeta (4) Energy:               -278.215392364346


   ==> Helgaker 2-point correlated extrapolation for method: MP2 <==

   LO-zeta (3) Energy:               -279.150405127956
   HI-zeta (4) Energy:               -279.285808904268
   Alpha (exponent) Value:             3.000000000000
   Extrapolated Energy:              -279.384617065361

   @Extrapolated MP2/(T,Q):          -279.384617065361



   ==> Helgaker 2-point correlated extrapolation for method: HF <==

   LO-zeta (3) Energy:               -278.196478015599
   HI-zeta (4) Energy:               -278.215392364346
   Alpha (exponent) Value:             3.000000000000
   Extrapolated Energy:              -278.229194726946

   @Extrapolated HF/(T,Q):           -278.229194726946


   ==> Components <==

  ---------------------------------------------------------------------------------------------------------
                          Method / Basis                      Rqd      Energy [Eh]   Variable
  ---------------------------------------------------------------------------------------------------------
                              hf / aug-cc-pvtz                  *    -278.19647802   HF TOTAL ENERGY
                             mp2 / aug-cc-pvtz                  *    -279.15040513   MP2 TOTAL ENERGY
                              hf / aug-cc-pvqz                  *    -278.21539236   HF TOTAL ENERGY
                             mp2 / aug-cc-pvqz                  *    -279.28580890   MP2 TOTAL ENERGY
  ---------------------------------------------------------------------------------------------------------

   ==> Stages <==

  ---------------------------------------------------------------------------------------------------------
      Stage               Method / Basis                       Wt      Energy [Eh]   Scheme
  ---------------------------------------------------------------------------------------------------------
        scf                   hf / aug-cc-pvqz                  1    -278.21539236   xtpl_highest_1
       corl                  mp2 / aug-cc-pv[tq]z               1    -279.38461707   corl_xtpl_helgaker_2
       corl                   hf / aug-cc-pv[tq]z              -1    -278.22919473   corl_xtpl_helgaker_2
  ---------------------------------------------------------------------------------------------------------

   ==> CBS <==

  ---------------------------------------------------------------------------------------------------------
      Stage               Method / Basis                               Energy [Eh]   Scheme
  ---------------------------------------------------------------------------------------------------------
        scf                   hf / aug-cc-pvqz                       -278.21539236   xtpl_highest_1
       corl                  mp2 / aug-cc-pv[tq]z                      -1.15542234   corl_xtpl_helgaker_2
      total                  CBS                                     -279.37081470   
  ---------------------------------------------------------------------------------------------------------
   => Loading Basis Set <=

    Name: DEF2-SVP
    Role: ORBITAL
    Keyword: BASIS
    atoms 1, 6      entry F          line   150 file /home/liuchw/anaconda3/envs/psi4env/share/psi4/basis/def2-svp.gbs 
    atoms 2, 7      entry C          line    90 file /home/liuchw/anaconda3/envs/psi4env/share/psi4/basis/def2-svp.gbs 
    atoms 3-5, 8-10 entry H          line    15 file /home/liuchw/anaconda3/envs/psi4env/share/psi4/basis/def2-svp.gbs 


       N-Body: Complex Energy (fragments = (1, 2), basis = (1, 2):  -279.37081470276172)

   ==> N-Body: Counterpoise Corrected (CP) energies <==

   n-Body     Total Energy [Eh]       I.E. [kcal/mol]      Delta [kcal/mol]
        1     -279.368774268483        0.000000000000        0.000000000000
        2     -279.370821100304       -1.284406358491       -1.284406358491

   => Loading Basis Set <=

    Name: DEF2-SVP
    Role: ORBITAL
    Keyword: BASIS
    atoms 1, 6      entry F          line   150 file /home/liuchw/anaconda3/envs/psi4env/share/psi4/basis/def2-svp.gbs 
    atoms 2, 7      entry C          line    90 file /home/liuchw/anaconda3/envs/psi4env/share/psi4/basis/def2-svp.gbs 
    atoms 3-5, 8-10 entry H          line    15 file /home/liuchw/anaconda3/envs/psi4env/share/psi4/basis/def2-svp.gbs 


    Psi4 stopped on: Saturday, 11 April 2020 04:27PM
    Psi4 wall time for execution: 0:02:08.04

*** Psi4 exiting successfully. Buy a developer a beer!
