
    -----------------------------------------------------------------------
          Psi4: An Open-Source Ab Initio Electronic Structure Package
                               Psi4 1.4a2.dev224 

                         Git: Rev {master} e453b16 


    R. M. Parrish, L. A. Burns, D. G. A. Smith, A. C. Simmonett,
    A. E. DePrince III, E. G. Hohenstein, U. Bozkaya, A. Yu. Sokolov,
    R. Di Remigio, R. M. Richard, J. F. Gonthier, A. M. James,
    H. R. McAlexander, A. Kumar, M. Saitow, X. Wang, B. P. Pritchard,
    P. Verma, H. F. Schaefer III, K. Patkowski, R. A. King, E. F. Valeev,
    F. A. Evangelista, J. M. Turney, T. D. Crawford, and C. D. Sherrill,
    J. Chem. Theory Comput. 13(7) pp 3185--3197 (2017).
    (doi: 10.1021/acs.jctc.7b00174)


                         Additional Contributions by
    P. Kraus, H. Kruse, M. H. Lechner, M. C. Schieber, R. A. Shaw,
    A. Alenaizan, R. Galvelis, Z. L. Glick, S. Lehtola, and J. P. Misiewicz

    -----------------------------------------------------------------------


    Psi4 started on: Saturday, 11 April 2020 04:22PM

    Process ID: 60550
    Host:       node83.bme.utexas.edu
    PSIDATADIR: /home/liuchw/anaconda3/envs/psi4env/share/psi4
    Memory:     500.0 MiB
    Threads:    6
    
  ==> Input File <==

--------------------------------------------------------------------------
#Generated by lconvert.py for cbs job

memory 40 GB

molecule  {
0 1
 Cl        2.1117070    -0.5388240     0.0001810
  C        1.7625300     1.2092080     0.0001100
  H        0.6876190     1.3435830     0.0001220
  H        2.2019800     1.6438300    -0.8896620
  H        2.2020080     1.6439080     0.8898310
--
0 1
 Cl       -2.4795100     0.5385840     0.0002000
  C       -2.1306000    -1.2094990     0.0001180
  H       -2.5702410    -1.6440720    -0.8895840
  H       -2.5700240    -1.6441120     0.8899080
  H       -1.0557110    -1.3440580    -0.0000140
units angstrom
no_reorient
symmetry c1
}

set {
scf_type DF
mp2_type DF
e_convergence 7
reference rhf
}

energy('mp2/aug-cc-pv[tq]z', bsse_type='cp')
--------------------------------------------------------------------------

  Memory set to  37.253 GiB by Python driver.

Scratch directory: /scratch//


   ===> N-Body Interaction Abacus <===
        BSSE Treatment:                     cp
        Number of 1-body computations:     4
        Number of 2-body computations:     1

   ==> N-Body: Now computing 1-body complexes <==


       N-Body: Computing complex (1/4) with fragments (2,) in the basis of fragments (2,).


Scratch directory: /scratch//

  //>>>>>>>>>>>>>>>>>>>>>>>>>>>>>>>>>>>//
  //   CBS Setup: mp2/aug-cc-pv[tq]z   //
  //<<<<<<<<<<<<<<<<<<<<<<<<<<<<<<<<<<<//

    Naive listing of computations required.
             hf / aug-cc-pvqz              for  HF TOTAL ENERGY
            mp2 / aug-cc-pvtz              for  MP2 TOTAL ENERGY
            mp2 / aug-cc-pvqz              for  MP2 TOTAL ENERGY
             hf / aug-cc-pvtz              for  HF TOTAL ENERGY
             hf / aug-cc-pvqz              for  HF TOTAL ENERGY

    Enlightened listing of computations required.
            mp2 / aug-cc-pvtz              for  MP2 TOTAL ENERGY
            mp2 / aug-cc-pvqz              for  MP2 TOTAL ENERGY

    Full listing of computations to be obtained (required and bonus).
             hf / aug-cc-pvtz              for  HF TOTAL ENERGY
            mp2 / aug-cc-pvtz              for  MP2 TOTAL ENERGY
             hf / aug-cc-pvqz              for  HF TOTAL ENERGY
            mp2 / aug-cc-pvqz              for  MP2 TOTAL ENERGY

  //>>>>>>>>>>>>>>>>>>>>>>>>>>>>>>>>>>>>//
  // CBS Computation: MP2 / AUG-CC-PVTZ //
  //<<<<<<<<<<<<<<<<<<<<<<<<<<<<<<<<<<<<//


Scratch directory: /scratch//

*** tstart() called on node83.bme.utexas.edu
*** at Sat Apr 11 16:22:15 2020

   => Loading Basis Set <=

    Name: AUG-CC-PVTZ
    Role: ORBITAL
    Keyword: BASIS
    atoms 1   entry CL         line   988 file /home/liuchw/anaconda3/envs/psi4env/share/psi4/basis/aug-cc-pvtz.gbs 
    atoms 2   entry C          line   239 file /home/liuchw/anaconda3/envs/psi4env/share/psi4/basis/aug-cc-pvtz.gbs 
    atoms 3-5 entry H          line    40 file /home/liuchw/anaconda3/envs/psi4env/share/psi4/basis/aug-cc-pvtz.gbs 


         ---------------------------------------------------------
                                   SCF
               by Justin Turney, Rob Parrish, Andy Simmonett
                          and Daniel G. A. Smith
                              RHF Reference
                        6 Threads,  38146 MiB Core
         ---------------------------------------------------------

  ==> Geometry <==

    Molecular point group: c1
    Full point group: C1

    Geometry (in Angstrom), charge = 0, multiplicity = 1:

       Center              X                  Y                   Z               Mass       
    ------------   -----------------  -----------------  -----------------  -----------------
         CL          -2.295566778478     0.538712146978     0.000033326068    34.968852682000
         C           -1.946656778478    -1.209370853022    -0.000048673932    12.000000000000
         H           -2.386297778478    -1.643943853022    -0.889750673932     1.007825032230
         H           -2.386080778478    -1.643983853022     0.889741326068     1.007825032230
         H           -0.871767778478    -1.343929853022    -0.000180673932     1.007825032230

  Running in c1 symmetry.

  Rotational constants: A =      0.46319  B =      0.06916  C =      0.06087 [cm^-1]
  Rotational constants: A =  13886.16174  B =   2073.32146  C =   1824.76022 [MHz]
  Nuclear repulsion =   51.402569456579755

  Charge       = 0
  Multiplicity = 1
  Electrons    = 26
  Nalpha       = 13
  Nbeta        = 13

  ==> Algorithm <==

  SCF Algorithm Type is DF.
  DIIS enabled.
  MOM disabled.
  Fractional occupation disabled.
  Guess Type is SAD.
  Energy threshold   = 1.00e-07
  Density threshold  = 1.00e-08
  Integral threshold = 0.00e+00

  ==> Primary Basis <==

  Basis Set: AUG-CC-PVTZ
    Blend: AUG-CC-PVTZ
    Number of shells: 57
    Number of basis function: 165
    Number of Cartesian functions: 189
    Spherical Harmonics?: true
    Max angular momentum: 3

   => Loading Basis Set <=

    Name: (AUG-CC-PVTZ AUX)
    Role: JKFIT
    Keyword: DF_BASIS_SCF
    atoms 1   entry CL         line   816 file /home/liuchw/anaconda3/envs/psi4env/share/psi4/basis/aug-cc-pvtz-jkfit.gbs 
    atoms 2   entry C          line   162 file /home/liuchw/anaconda3/envs/psi4env/share/psi4/basis/aug-cc-pvtz-jkfit.gbs 
    atoms 3-5 entry H          line    70 file /home/liuchw/anaconda3/envs/psi4env/share/psi4/basis/aug-cc-pvtz-jkfit.gbs 

  ==> Pre-Iterations <==

   -------------------------------------------------------
    Irrep   Nso     Nmo     Nalpha   Nbeta   Ndocc  Nsocc
   -------------------------------------------------------
     A        165     165       0       0       0       0
   -------------------------------------------------------
    Total     165     165      13      13      13       0
   -------------------------------------------------------

  ==> Integral Setup <==

  DFHelper Memory: AOs need 0.087 GiB; user supplied 27.940 GiB. Using in-core AOs.

  ==> MemDFJK: Density-Fitted J/K Matrices <==

    J tasked:                   Yes
    K tasked:                   Yes
    wK tasked:                   No
    OpenMP threads:               6
    Memory [MiB]:             28610
    Algorithm:                 Core
    Schwarz Cutoff:           1E-12
    Mask sparsity (%):       0.0000
    Fitting Condition:        1E-10

   => Auxiliary Basis Set <=

  Basis Set: (AUG-CC-PVTZ AUX)
    Blend: AUG-CC-PVTZ-JKFIT
    Number of shells: 114
    Number of basis function: 388
    Number of Cartesian functions: 476
    Spherical Harmonics?: true
    Max angular momentum: 4

  Minimum eigenvalue in the overlap matrix is 7.3297842538E-05.
  Using Symmetric Orthogonalization.

  SCF Guess: Superposition of Atomic Densities via on-the-fly atomic UHF.

  ==> Iterations <==

                           Total Energy        Delta E     RMS |[F,P]|

   @DF-RHF iter SAD:  -498.70723923751871   -4.98707e+02   0.00000e+00 
   @DF-RHF iter   1:  -499.11146095426540   -4.04222e-01   1.47499e-03 DIIS
   @DF-RHF iter   2:  -499.14425178718449   -3.27908e-02   5.17100e-04 DIIS
   @DF-RHF iter   3:  -499.14824610511158   -3.99432e-03   1.55455e-04 DIIS
   @DF-RHF iter   4:  -499.14882845921318   -5.82354e-04   4.42489e-05 DIIS
   @DF-RHF iter   5:  -499.14887164523634   -4.31860e-05   6.45103e-06 DIIS
   @DF-RHF iter   6:  -499.14887299077344   -1.34554e-06   1.25796e-06 DIIS
   @DF-RHF iter   7:  -499.14887303772730   -4.69539e-08   4.02061e-07 DIIS
   @DF-RHF iter   8:  -499.14887304303386   -5.30656e-09   1.07648e-07 DIIS
   @DF-RHF iter   9:  -499.14887304359712   -5.63261e-10   1.99485e-08 DIIS
   @DF-RHF iter  10:  -499.14887304361253   -1.54046e-11   3.06363e-09 DIIS
  Energy and wave function converged.


  ==> Post-Iterations <==

    Orbital Energies [Eh]
    ---------------------

    Doubly Occupied:                                                      

       1A   -104.826145     2A    -11.290099     3A    -10.550461  
       4A     -8.017366     5A     -8.015501     6A     -8.015500  
       7A     -1.128235     8A     -0.915812     9A     -0.619447  
      10A     -0.618936    11A     -0.545435    12A     -0.435738  
      13A     -0.435618  

    Virtual:                                                              

      14A      0.028253    15A      0.046191    16A      0.046250  
      17A      0.065391    18A      0.115760    19A      0.126430  
      20A      0.126626    21A      0.133654    22A      0.140175  
      23A      0.140211    24A      0.202103    25A      0.207520  
      26A      0.207598    27A      0.264007    28A      0.276635  
      29A      0.276933    30A      0.306944    31A      0.331643  
      32A      0.331898    33A      0.343507    34A      0.343581  
      35A      0.354876    36A      0.354995    37A      0.391419  
      38A      0.423770    39A      0.437785    40A      0.437865  
      41A      0.453665    42A      0.453896    43A      0.493182  
      44A      0.493281    45A      0.508954    46A      0.509297  
      47A      0.513369    48A      0.662922    49A      0.663170  
      50A      0.711556    51A      0.742529    52A      0.781396  
      53A      0.781485    54A      0.798630    55A      0.863701  
      56A      0.863953    57A      0.869900    58A      0.893745  
      59A      0.893926    60A      0.933662    61A      0.933732  
      62A      0.950448    63A      0.959090    64A      0.959790  
      65A      0.985963    66A      1.022488    67A      1.029557  
      68A      1.029943    69A      1.055498    70A      1.095694  
      71A      1.095797    72A      1.104408    73A      1.128422  
      74A      1.128982    75A      1.151414    76A      1.168899  
      77A      1.169372    78A      1.274938    79A      1.275526  
      80A      1.289001    81A      1.385941    82A      1.411523  
      83A      1.412116    84A      1.499607    85A      1.570575  
      86A      1.581618    87A      1.582193    88A      1.628409  
      89A      1.659524    90A      1.671319    91A      1.671864  
      92A      1.706295    93A      1.706500    94A      1.755485  
      95A      1.823815    96A      1.824312    97A      1.934583  
      98A      1.935250    99A      1.935580   100A      1.969414  
     101A      2.046909   102A      2.047428   103A      2.190015  
     104A      2.192818   105A      2.193186   106A      2.483577  
     107A      2.628241   108A      2.628352   109A      2.683764  
     110A      2.683980   111A      2.708692   112A      2.927337  
     113A      2.927385   114A      2.977557   115A      3.043937  
     116A      3.108227   117A      3.138476   118A      3.138663  
     119A      3.140218   120A      3.185743   121A      3.247536  
     122A      3.247615   123A      3.344124   124A      3.344686  
     125A      3.555255   126A      3.555865   127A      3.561964  
     128A      3.566871   129A      3.594720   130A      3.595072  
     131A      3.792790   132A      3.792890   133A      3.918717  
     134A      3.919107   135A      4.031469   136A      4.079536  
     137A      4.080423   138A      4.083319   139A      4.160130  
     140A      4.196584   141A      4.197514   142A      4.465708  
     143A      4.465852   144A      4.497321   145A      4.744740  
     146A      4.745461   147A      4.768052   148A      4.854658  
     149A      4.876446   150A      4.981012   151A      4.981960  
     152A      5.185546   153A      5.188149   154A      5.213748  
     155A      5.515295   156A      5.516743   157A      5.564333  
     158A      5.658925   159A      5.954895   160A      6.047097  
     161A      6.049343   162A      6.593581   163A      6.596136  
     164A      7.515303   165A     16.876777  

    Final Occupation by Irrep:
              A 
    DOCC [    13 ]

  @DF-RHF Final Energy:  -499.14887304361253

   => Energetics <=

    Nuclear Repulsion Energy =             51.4025694565797551
    One-Electron Energy =                -790.2743027660100097
    Two-Electron Energy =                 239.7228602658177579
    Total Energy =                       -499.1488730436125252

Computation Completed


Properties will be evaluated at   0.000000,   0.000000,   0.000000 [a0]

Properties computed using the SCF density matrix

  Nuclear Dipole Moment: [e a0]
     X:  -106.4837      Y:    -5.1589      Z:     0.0002

  Electronic Dipole Moment: [e a0]
     X:   106.6476      Y:     4.3340      Z:    -0.0002

  Dipole Moment: [e a0]
     X:     0.1640      Y:    -0.8249      Z:    -0.0000     Total:     0.8410

  Dipole Moment: [D]
     X:     0.4168      Y:    -2.0966      Z:    -0.0001     Total:     2.1376


*** tstop() called on node83.bme.utexas.edu at Sat Apr 11 16:22:17 2020
Module time:
	user time   =       8.61 seconds =       0.14 minutes
	system time =       0.49 seconds =       0.01 minutes
	total time  =          2 seconds =       0.03 minutes
Total time:
	user time   =       8.61 seconds =       0.14 minutes
	system time =       0.49 seconds =       0.01 minutes
	total time  =          2 seconds =       0.03 minutes

*** tstart() called on node83.bme.utexas.edu
*** at Sat Apr 11 16:22:17 2020


  //>>>>>>>>>>>>>>>>>>>>>>>>>>>>>>>>>>>//
  //               DFMP2               //
  //<<<<<<<<<<<<<<<<<<<<<<<<<<<<<<<<<<<//

   => Loading Basis Set <=

    Name: (AUG-CC-PVTZ AUX)
    Role: RIFIT
    Keyword: DF_BASIS_MP2
    atoms 1   entry CL         line   742 file /home/liuchw/anaconda3/envs/psi4env/share/psi4/basis/aug-cc-pvtz-ri.gbs 
    atoms 2   entry C          line   148 file /home/liuchw/anaconda3/envs/psi4env/share/psi4/basis/aug-cc-pvtz-ri.gbs 
    atoms 3-5 entry H          line    30 file /home/liuchw/anaconda3/envs/psi4env/share/psi4/basis/aug-cc-pvtz-ri.gbs 

	 --------------------------------------------------------
	                          DF-MP2                         
	      2nd-Order Density-Fitted Moller-Plesset Theory     
	              RMP2 Wavefunction,   6 Threads             
	                                                         
	        Rob Parrish, Justin Turney, Andy Simmonett,      
	           Ed Hohenstein, and C. David Sherrill          
	 --------------------------------------------------------

   => Auxiliary Basis Set <=

  Basis Set: (AUG-CC-PVTZ AUX)
    Blend: AUG-CC-PVTZ-RI
    Number of shells: 107
    Number of basis function: 391
    Number of Cartesian functions: 492
    Spherical Harmonics?: true
    Max angular momentum: 4

	 --------------------------------------------------------
	                 NBF =   165, NAUX =   391
	 --------------------------------------------------------
	   CLASS    FOCC     OCC    AOCC    AVIR     VIR    FVIR
	   PAIRS       0      13      13     152     152       0
	 --------------------------------------------------------

	-----------------------------------------------------------
	 ==================> DF-MP2 Energies <==================== 
	-----------------------------------------------------------
	 Reference Energy          =    -499.1488730436125252 [Eh]
	 Singles Energy            =      -0.0000000000000000 [Eh]
	 Same-Spin Energy          =      -0.0993316450668661 [Eh]
	 Opposite-Spin Energy      =      -0.3355660825198958 [Eh]
	 Correlation Energy        =      -0.4348977275867618 [Eh]
	 Total Energy              =    -499.5837707711992834 [Eh]
	-----------------------------------------------------------
	 ================> DF-SCS-MP2 Energies <================== 
	-----------------------------------------------------------
	 SCS Same-Spin Scale       =       0.3333333333333333 [-]
	 SCS Opposite-Spin Scale   =       1.2000000000000000 [-]
	 SCS Same-Spin Energy      =      -0.0331105483556220 [Eh]
	 SCS Opposite-Spin Energy  =      -0.4026792990238749 [Eh]
	 SCS Correlation Energy    =      -0.4357898473794969 [Eh]
	 SCS Total Energy          =    -499.5846628909920355 [Eh]
	-----------------------------------------------------------


*** tstop() called on node83.bme.utexas.edu at Sat Apr 11 16:22:18 2020
Module time:
	user time   =       3.35 seconds =       0.06 minutes
	system time =       0.23 seconds =       0.00 minutes
	total time  =          1 seconds =       0.02 minutes
Total time:
	user time   =      11.96 seconds =       0.20 minutes
	system time =       0.72 seconds =       0.01 minutes
	total time  =          3 seconds =       0.05 minutes

  //>>>>>>>>>>>>>>>>>>>>>>>>>>>>>>>>>>>>//
  // CBS Computation: MP2 / AUG-CC-PVQZ //
  //<<<<<<<<<<<<<<<<<<<<<<<<<<<<<<<<<<<<//


Scratch directory: /scratch//

*** tstart() called on node83.bme.utexas.edu
*** at Sat Apr 11 16:22:18 2020

   => Loading Basis Set <=

    Name: AUG-CC-PVQZ
    Role: ORBITAL
    Keyword: BASIS
    atoms 1   entry CL         line  1222 file /home/liuchw/anaconda3/envs/psi4env/share/psi4/basis/aug-cc-pvqz.gbs 
    atoms 2   entry C          line   303 file /home/liuchw/anaconda3/envs/psi4env/share/psi4/basis/aug-cc-pvqz.gbs 
    atoms 3-5 entry H          line    40 file /home/liuchw/anaconda3/envs/psi4env/share/psi4/basis/aug-cc-pvqz.gbs 


         ---------------------------------------------------------
                                   SCF
               by Justin Turney, Rob Parrish, Andy Simmonett
                          and Daniel G. A. Smith
                              RHF Reference
                        6 Threads,  38146 MiB Core
         ---------------------------------------------------------

  ==> Geometry <==

    Molecular point group: c1
    Full point group: C1

    Geometry (in Angstrom), charge = 0, multiplicity = 1:

       Center              X                  Y                   Z               Mass       
    ------------   -----------------  -----------------  -----------------  -----------------
         CL          -2.295566778478     0.538712146978     0.000033326068    34.968852682000
         C           -1.946656778478    -1.209370853022    -0.000048673932    12.000000000000
         H           -2.386297778478    -1.643943853022    -0.889750673932     1.007825032230
         H           -2.386080778478    -1.643983853022     0.889741326068     1.007825032230
         H           -0.871767778478    -1.343929853022    -0.000180673932     1.007825032230

  Running in c1 symmetry.

  Rotational constants: A =      0.46319  B =      0.06916  C =      0.06087 [cm^-1]
  Rotational constants: A =  13886.16174  B =   2073.32146  C =   1824.76022 [MHz]
  Nuclear repulsion =   51.402569456579755

  Charge       = 0
  Multiplicity = 1
  Electrons    = 26
  Nalpha       = 13
  Nbeta        = 13

  ==> Algorithm <==

  SCF Algorithm Type is DF.
  DIIS enabled.
  MOM disabled.
  Fractional occupation disabled.
  Guess Type is SAD.
  Energy threshold   = 1.00e-07
  Density threshold  = 1.00e-08
  Integral threshold = 0.00e+00

  ==> Primary Basis <==

  Basis Set: AUG-CC-PVQZ
    Blend: AUG-CC-PVQZ
    Number of shells: 84
    Number of basis function: 302
    Number of Cartesian functions: 379
    Spherical Harmonics?: true
    Max angular momentum: 4

   => Loading Basis Set <=

    Name: (AUG-CC-PVQZ AUX)
    Role: JKFIT
    Keyword: DF_BASIS_SCF
    atoms 1   entry CL         line   904 file /home/liuchw/anaconda3/envs/psi4env/share/psi4/basis/aug-cc-pvqz-jkfit.gbs 
    atoms 2   entry C          line   178 file /home/liuchw/anaconda3/envs/psi4env/share/psi4/basis/aug-cc-pvqz-jkfit.gbs 
    atoms 3-5 entry H          line    70 file /home/liuchw/anaconda3/envs/psi4env/share/psi4/basis/aug-cc-pvqz-jkfit.gbs 

  ==> Pre-Iterations <==

   -------------------------------------------------------
    Irrep   Nso     Nmo     Nalpha   Nbeta   Ndocc  Nsocc
   -------------------------------------------------------
     A        302     302       0       0       0       0
   -------------------------------------------------------
    Total     302     302      13      13      13       0
   -------------------------------------------------------

  ==> Integral Setup <==

  DFHelper Memory: AOs need 0.405 GiB; user supplied 27.940 GiB. Using in-core AOs.

  ==> MemDFJK: Density-Fitted J/K Matrices <==

    J tasked:                   Yes
    K tasked:                   Yes
    wK tasked:                   No
    OpenMP threads:               6
    Memory [MiB]:             28610
    Algorithm:                 Core
    Schwarz Cutoff:           1E-12
    Mask sparsity (%):       0.0132
    Fitting Condition:        1E-10

   => Auxiliary Basis Set <=

  Basis Set: (AUG-CC-PVQZ AUX)
    Blend: AUG-CC-PVQZ-JKFIT
    Number of shells: 134
    Number of basis function: 554
    Number of Cartesian functions: 748
    Spherical Harmonics?: true
    Max angular momentum: 5

  Minimum eigenvalue in the overlap matrix is 1.6542991103E-05.
  Using Symmetric Orthogonalization.

  SCF Guess: Superposition of Atomic Densities via on-the-fly atomic UHF.

  ==> Iterations <==

                           Total Energy        Delta E     RMS |[F,P]|

   @DF-RHF iter SAD:  -498.71227800867661   -4.98712e+02   0.00000e+00 
   @DF-RHF iter   1:  -499.11712339100967   -4.04845e-01   8.28090e-04 DIIS
   @DF-RHF iter   2:  -499.15026249231153   -3.31391e-02   2.86513e-04 DIIS
   @DF-RHF iter   3:  -499.15431454693703   -4.05205e-03   8.76053e-05 DIIS
   @DF-RHF iter   4:  -499.15490532032800   -5.90773e-04   2.60334e-05 DIIS
   @DF-RHF iter   5:  -499.15495424969924   -4.89294e-05   3.78408e-06 DIIS
   @DF-RHF iter   6:  -499.15495584332348   -1.59362e-06   7.47985e-07 DIIS
   @DF-RHF iter   7:  -499.15495590180188   -5.84784e-08   2.59945e-07 DIIS
   @DF-RHF iter   8:  -499.15495590905465   -7.25277e-09   7.37851e-08 DIIS
   @DF-RHF iter   9:  -499.15495590994641   -8.91760e-10   1.37589e-08 DIIS
   @DF-RHF iter  10:  -499.15495590997210   -2.56932e-11   2.05516e-09 DIIS
  Energy and wave function converged.


  ==> Post-Iterations <==

    Orbital Energies [Eh]
    ---------------------

    Doubly Occupied:                                                      

       1A   -104.824058     2A    -11.288711     3A    -10.549537  
       4A     -8.016668     5A     -8.014949     6A     -8.014948  
       7A     -1.127776     8A     -0.915595     9A     -0.619377  
      10A     -0.618866    11A     -0.545513    12A     -0.435722  
      13A     -0.435602  

    Virtual:                                                              

      14A      0.025135    15A      0.041642    16A      0.041693  
      17A      0.055747    18A      0.097517    19A      0.107742  
      20A      0.107910    21A      0.114918    22A      0.114968  
      23A      0.117453    24A      0.173697    25A      0.173713  
      26A      0.174344    27A      0.231696    28A      0.241140  
      29A      0.241291    30A      0.254235    31A      0.270831  
      32A      0.271000    33A      0.273052    34A      0.273437  
      35A      0.283036    36A      0.283187    37A      0.308703  
      38A      0.336811    39A      0.340719    40A      0.340803  
      41A      0.369174    42A      0.369251    43A      0.374313  
      44A      0.374415    45A      0.386702    46A      0.413852  
      47A      0.414002    48A      0.519842    49A      0.520398  
      50A      0.545670    51A      0.565801    52A      0.567025  
      53A      0.567253    54A      0.615657    55A      0.617263  
      56A      0.617545    57A      0.653464    58A      0.653698  
      59A      0.665465    60A      0.699958    61A      0.700130  
      62A      0.716904    63A      0.741031    64A      0.748778  
      65A      0.748835    66A      0.749057    67A      0.778187  
      68A      0.778394    69A      0.783903    70A      0.800063  
      71A      0.800141    72A      0.830994    73A      0.851151  
      74A      0.872061    75A      0.872670    76A      0.920318  
      77A      0.920764    78A      0.936076    79A      0.977561  
      80A      0.977905    81A      1.001445    82A      1.046359  
      83A      1.046769    84A      1.080589    85A      1.106351  
      86A      1.145808    87A      1.146376    88A      1.163398  
      89A      1.164214    90A      1.164274    91A      1.180564  
      92A      1.238363    93A      1.238465    94A      1.245294  
      95A      1.276151    96A      1.302442    97A      1.302842  
      98A      1.390540    99A      1.429151   100A      1.429824  
     101A      1.493654   102A      1.493918   103A      1.499711  
     104A      1.620224   105A      1.665589   106A      1.665808  
     107A      1.735879   108A      1.736675   109A      1.747671  
     110A      1.765484   111A      1.766396   112A      1.783586  
     113A      1.783779   114A      1.844897   115A      1.845228  
     116A      1.858923   117A      1.875747   118A      1.887315  
     119A      1.887433   120A      1.956609   121A      1.957124  
     122A      1.972956   123A      1.980217   124A      1.983581  
     125A      1.984237   126A      2.000830   127A      2.001592  
     128A      2.001951   129A      2.041909   130A      2.063361  
     131A      2.063626   132A      2.068807   133A      2.100596  
     134A      2.123571   135A      2.123695   136A      2.149024  
     137A      2.193871   138A      2.204540   139A      2.216911  
     140A      2.217432   141A      2.263492   142A      2.263571  
     143A      2.266687   144A      2.293912   145A      2.295296  
     146A      2.329435   147A      2.329633   148A      2.385416  
     149A      2.386023   150A      2.423517   151A      2.424136  
     152A      2.451216   153A      2.520300   154A      2.521143  
     155A      2.655145   156A      2.657057   157A      2.665549  
     158A      2.677966   159A      2.761988   160A      2.762618  
     161A      2.767167   162A      2.782798   163A      2.826630  
     164A      2.826996   165A      2.884452   166A      2.959387  
     167A      2.960041   168A      3.019153   169A      3.019515  
     170A      3.086789   171A      3.087568   172A      3.088640  
     173A      3.133000   174A      3.276732   175A      3.278082  
     176A      3.312944   177A      3.436167   178A      3.437439  
     179A      3.576145   180A      3.576559   181A      3.626923  
     182A      3.660465   183A      3.778380   184A      3.812142  
     185A      3.812887   186A      3.834992   187A      3.869812  
     188A      3.872252   189A      3.906183   190A      4.050189  
     191A      4.083078   192A      4.084185   193A      4.145087  
     194A      4.145826   195A      4.178023   196A      4.249961  
     197A      4.250855   198A      4.392742   199A      4.392882  
     200A      4.498534   201A      4.509681   202A      4.509935  
     203A      4.649979   204A      4.652478   205A      4.705917  
     206A      4.706302   207A      4.743606   208A      4.746088  
     209A      4.762165   210A      4.782019   211A      4.782112  
     212A      4.833392   213A      4.871577   214A      4.872059  
     215A      4.884027   216A      4.977378   217A      5.016016  
     218A      5.019207   219A      5.057328   220A      5.058248  
     221A      5.181771   222A      5.182696   223A      5.361334  
     224A      5.362719   225A      5.565231   226A      6.121647  
     227A      6.122224   228A      6.193036   229A      6.239260  
     230A      6.373937   231A      6.374828   232A      6.423281  
     233A      6.612516   234A      6.613103   235A      6.708199  
     236A      6.708469   237A      6.733114   238A      6.802001  
     239A      6.815174   240A      6.815441   241A      6.961320  
     242A      6.973320   243A      6.975088   244A      6.992246  
     245A      6.993922   246A      7.077955   247A      7.079652  
     248A      7.170820   249A      7.305157   250A      7.338630  
     251A      7.339544   252A      7.423488   253A      7.596650  
     254A      7.596690   255A      7.614189   256A      7.702343  
     257A      7.703172   258A      7.790220   259A      7.882503  
     260A      7.888392   261A      7.926585   262A      8.282281  
     263A      8.284014   264A      8.417330   265A      8.449758  
     266A      8.453631   267A      8.529259   268A      8.594448  
     269A      8.597156   270A      8.879575   271A      8.879739  
     272A      8.942828   273A      9.035003   274A      9.166648  
     275A      9.166839   276A      9.236216   277A      9.237584  
     278A      9.424676   279A      9.428438   280A      9.582285  
     281A      9.583445   282A      9.603824   283A      9.684899  
     284A      9.685647   285A      9.958836   286A      9.995688  
     287A     10.158674   288A     10.160828   289A     10.377689  
     290A     10.378778   291A     10.421434   292A     10.828522  
     293A     10.830673   294A     10.879909   295A     10.986023  
     296A     10.987011   297A     11.497904   298A     13.181197  
     299A     13.181507   300A     13.336611   301A     26.205398  
     302A     28.723203  

    Final Occupation by Irrep:
              A 
    DOCC [    13 ]

  @DF-RHF Final Energy:  -499.15495590997210

   => Energetics <=

    Nuclear Repulsion Energy =             51.4025694565797551
    One-Electron Energy =                -790.3004072832173961
    Two-Electron Energy =                 239.7428819166655956
    Total Energy =                       -499.1549559099720454

Computation Completed


Properties will be evaluated at   0.000000,   0.000000,   0.000000 [a0]

Properties computed using the SCF density matrix

  Nuclear Dipole Moment: [e a0]
     X:  -106.4837      Y:    -5.1589      Z:     0.0002

  Electronic Dipole Moment: [e a0]
     X:   106.6468      Y:     4.3384      Z:    -0.0002

  Dipole Moment: [e a0]
     X:     0.1631      Y:    -0.8205      Z:    -0.0000     Total:     0.8366

  Dipole Moment: [D]
     X:     0.4146      Y:    -2.0856      Z:    -0.0001     Total:     2.1264


*** tstop() called on node83.bme.utexas.edu at Sat Apr 11 16:22:22 2020
Module time:
	user time   =      17.48 seconds =       0.29 minutes
	system time =       0.85 seconds =       0.01 minutes
	total time  =          4 seconds =       0.07 minutes
Total time:
	user time   =      29.47 seconds =       0.49 minutes
	system time =       1.58 seconds =       0.03 minutes
	total time  =          7 seconds =       0.12 minutes

*** tstart() called on node83.bme.utexas.edu
*** at Sat Apr 11 16:22:22 2020


  //>>>>>>>>>>>>>>>>>>>>>>>>>>>>>>>>>>>//
  //               DFMP2               //
  //<<<<<<<<<<<<<<<<<<<<<<<<<<<<<<<<<<<//

   => Loading Basis Set <=

    Name: (AUG-CC-PVQZ AUX)
    Role: RIFIT
    Keyword: DF_BASIS_MP2
    atoms 1   entry CL         line   914 file /home/liuchw/anaconda3/envs/psi4env/share/psi4/basis/aug-cc-pvqz-ri.gbs 
    atoms 2   entry C          line   184 file /home/liuchw/anaconda3/envs/psi4env/share/psi4/basis/aug-cc-pvqz-ri.gbs 
    atoms 3-5 entry H          line    30 file /home/liuchw/anaconda3/envs/psi4env/share/psi4/basis/aug-cc-pvqz-ri.gbs 

	 --------------------------------------------------------
	                          DF-MP2                         
	      2nd-Order Density-Fitted Moller-Plesset Theory     
	              RMP2 Wavefunction,   6 Threads             
	                                                         
	        Rob Parrish, Justin Turney, Andy Simmonett,      
	           Ed Hohenstein, and C. David Sherrill          
	 --------------------------------------------------------

   => Auxiliary Basis Set <=

  Basis Set: (AUG-CC-PVQZ AUX)
    Blend: AUG-CC-PVQZ-RI
    Number of shells: 140
    Number of basis function: 602
    Number of Cartesian functions: 820
    Spherical Harmonics?: true
    Max angular momentum: 5

	 --------------------------------------------------------
	                 NBF =   302, NAUX =   602
	 --------------------------------------------------------
	   CLASS    FOCC     OCC    AOCC    AVIR     VIR    FVIR
	   PAIRS       0      13      13     289     289       0
	 --------------------------------------------------------

	-----------------------------------------------------------
	 ==================> DF-MP2 Energies <==================== 
	-----------------------------------------------------------
	 Reference Energy          =    -499.1549559099721023 [Eh]
	 Singles Energy            =      -0.0000000000000000 [Eh]
	 Same-Spin Energy          =      -0.1117425171393676 [Eh]
	 Opposite-Spin Energy      =      -0.3880952950282440 [Eh]
	 Correlation Energy        =      -0.4998378121676116 [Eh]
	 Total Energy              =    -499.6547937221396865 [Eh]
	-----------------------------------------------------------
	 ================> DF-SCS-MP2 Energies <================== 
	-----------------------------------------------------------
	 SCS Same-Spin Scale       =       0.3333333333333333 [-]
	 SCS Opposite-Spin Scale   =       1.2000000000000000 [-]
	 SCS Same-Spin Energy      =      -0.0372475057131225 [Eh]
	 SCS Opposite-Spin Energy  =      -0.4657143540338928 [Eh]
	 SCS Correlation Energy    =      -0.5029618597470153 [Eh]
	 SCS Total Energy          =    -499.6579177697191199 [Eh]
	-----------------------------------------------------------


*** tstop() called on node83.bme.utexas.edu at Sat Apr 11 16:22:23 2020
Module time:
	user time   =       7.41 seconds =       0.12 minutes
	system time =       0.34 seconds =       0.01 minutes
	total time  =          1 seconds =       0.02 minutes
Total time:
	user time   =      36.89 seconds =       0.61 minutes
	system time =       1.92 seconds =       0.03 minutes
	total time  =          8 seconds =       0.13 minutes

  //>>>>>>>>>>>>>>>>>>>>>>>>>>>>>>>>>>>//
  //  CBS Results: mp2/aug-cc-pv[tq]z  //
  //<<<<<<<<<<<<<<<<<<<<<<<<<<<<<<<<<<<//


   ==> HF <==

   HI-zeta (4) Energy:               -499.154955909972


   ==> Helgaker 2-point correlated extrapolation for method: MP2 <==

   LO-zeta (3) Energy:               -499.583770771199
   HI-zeta (4) Energy:               -499.654793722140
   Alpha (exponent) Value:             3.000000000000
   Extrapolated Energy:              -499.706621280934

   @Extrapolated MP2/(T,Q):          -499.706621280934



   ==> Helgaker 2-point correlated extrapolation for method: HF <==

   LO-zeta (3) Energy:               -499.148873043613
   HI-zeta (4) Energy:               -499.154955909972
   Alpha (exponent) Value:             3.000000000000
   Extrapolated Energy:              -499.159394758397

   @Extrapolated HF/(T,Q):           -499.159394758397


   ==> Components <==

  ---------------------------------------------------------------------------------------------------------
                          Method / Basis                      Rqd      Energy [Eh]   Variable
  ---------------------------------------------------------------------------------------------------------
                              hf / aug-cc-pvtz                  *    -499.14887304   HF TOTAL ENERGY
                             mp2 / aug-cc-pvtz                  *    -499.58377077   MP2 TOTAL ENERGY
                              hf / aug-cc-pvqz                  *    -499.15495591   HF TOTAL ENERGY
                             mp2 / aug-cc-pvqz                  *    -499.65479372   MP2 TOTAL ENERGY
  ---------------------------------------------------------------------------------------------------------

   ==> Stages <==

  ---------------------------------------------------------------------------------------------------------
      Stage               Method / Basis                       Wt      Energy [Eh]   Scheme
  ---------------------------------------------------------------------------------------------------------
        scf                   hf / aug-cc-pvqz                  1    -499.15495591   xtpl_highest_1
       corl                  mp2 / aug-cc-pv[tq]z               1    -499.70662128   corl_xtpl_helgaker_2
       corl                   hf / aug-cc-pv[tq]z              -1    -499.15939476   corl_xtpl_helgaker_2
  ---------------------------------------------------------------------------------------------------------

   ==> CBS <==

  ---------------------------------------------------------------------------------------------------------
      Stage               Method / Basis                               Energy [Eh]   Scheme
  ---------------------------------------------------------------------------------------------------------
        scf                   hf / aug-cc-pvqz                       -499.15495591   xtpl_highest_1
       corl                  mp2 / aug-cc-pv[tq]z                      -0.54722652   corl_xtpl_helgaker_2
      total                  CBS                                     -499.70218243   
  ---------------------------------------------------------------------------------------------------------
   => Loading Basis Set <=

    Name: DEF2-SVP
    Role: ORBITAL
    Keyword: BASIS
    atoms 1   entry CL         line   356 file /home/liuchw/anaconda3/envs/psi4env/share/psi4/basis/def2-svp.gbs 
    atoms 2   entry C          line    90 file /home/liuchw/anaconda3/envs/psi4env/share/psi4/basis/def2-svp.gbs 
    atoms 3-5 entry H          line    15 file /home/liuchw/anaconda3/envs/psi4env/share/psi4/basis/def2-svp.gbs 


       N-Body: Complex Energy (fragments = (2,), basis = (2,):  -499.70218243250957)

       N-Body: Computing complex (2/4) with fragments (2,) in the basis of fragments (1, 2).


Scratch directory: /scratch//

  //>>>>>>>>>>>>>>>>>>>>>>>>>>>>>>>>>>>//
  //   CBS Setup: mp2/aug-cc-pv[tq]z   //
  //<<<<<<<<<<<<<<<<<<<<<<<<<<<<<<<<<<<//

    Naive listing of computations required.
             hf / aug-cc-pvqz              for  HF TOTAL ENERGY
            mp2 / aug-cc-pvtz              for  MP2 TOTAL ENERGY
            mp2 / aug-cc-pvqz              for  MP2 TOTAL ENERGY
             hf / aug-cc-pvtz              for  HF TOTAL ENERGY
             hf / aug-cc-pvqz              for  HF TOTAL ENERGY

    Enlightened listing of computations required.
            mp2 / aug-cc-pvtz              for  MP2 TOTAL ENERGY
            mp2 / aug-cc-pvqz              for  MP2 TOTAL ENERGY

    Full listing of computations to be obtained (required and bonus).
             hf / aug-cc-pvtz              for  HF TOTAL ENERGY
            mp2 / aug-cc-pvtz              for  MP2 TOTAL ENERGY
             hf / aug-cc-pvqz              for  HF TOTAL ENERGY
            mp2 / aug-cc-pvqz              for  MP2 TOTAL ENERGY

  //>>>>>>>>>>>>>>>>>>>>>>>>>>>>>>>>>>>>//
  // CBS Computation: MP2 / AUG-CC-PVTZ //
  //<<<<<<<<<<<<<<<<<<<<<<<<<<<<<<<<<<<<//


Scratch directory: /scratch//

*** tstart() called on node83.bme.utexas.edu
*** at Sat Apr 11 16:22:24 2020

   => Loading Basis Set <=

    Name: AUG-CC-PVTZ
    Role: ORBITAL
    Keyword: BASIS
    atoms 1, 6      entry CL         line   988 file /home/liuchw/anaconda3/envs/psi4env/share/psi4/basis/aug-cc-pvtz.gbs 
    atoms 2, 7      entry C          line   239 file /home/liuchw/anaconda3/envs/psi4env/share/psi4/basis/aug-cc-pvtz.gbs 
    atoms 3-5, 8-10 entry H          line    40 file /home/liuchw/anaconda3/envs/psi4env/share/psi4/basis/aug-cc-pvtz.gbs 


         ---------------------------------------------------------
                                   SCF
               by Justin Turney, Rob Parrish, Andy Simmonett
                          and Daniel G. A. Smith
                              RHF Reference
                        6 Threads,  38146 MiB Core
         ---------------------------------------------------------

  ==> Geometry <==

    Molecular point group: c1
    Full point group: C1

    Geometry (in Angstrom), charge = 0, multiplicity = 1:

       Center              X                  Y                   Z               Mass       
    ------------   -----------------  -----------------  -----------------  -----------------
      Gh(CL)          2.295650221522    -0.538695853022     0.000014326068    34.968852682000
      Gh(C)           1.946473221522     1.209336146978    -0.000056673932    12.000000000000
      Gh(H)           0.871562221522     1.343711146978    -0.000044673932     1.007825032230
      Gh(H)           2.385923221522     1.643958146978    -0.889828673932     1.007825032230
      Gh(H)           2.385951221522     1.644036146978     0.889664326068     1.007825032230
         CL          -2.295566778478     0.538712146978     0.000033326068    34.968852682000
         C           -1.946656778478    -1.209370853022    -0.000048673932    12.000000000000
         H           -2.386297778478    -1.643943853022    -0.889750673932     1.007825032230
         H           -2.386080778478    -1.643983853022     0.889741326068     1.007825032230
         H           -0.871767778478    -1.343929853022    -0.000180673932     1.007825032230

  Running in c1 symmetry.

  Rotational constants: A =      0.23160  B =      0.03458  C =      0.03043 [cm^-1]
  Rotational constants: A =   6943.29704  B =   1036.65581  C =    912.38004 [MHz]
  Nuclear repulsion =   51.402569456579755

  Charge       = 0
  Multiplicity = 1
  Electrons    = 26
  Nalpha       = 13
  Nbeta        = 13

  ==> Algorithm <==

  SCF Algorithm Type is DF.
  DIIS enabled.
  MOM disabled.
  Fractional occupation disabled.
  Guess Type is SAD.
  Energy threshold   = 1.00e-07
  Density threshold  = 1.00e-08
  Integral threshold = 0.00e+00

  ==> Primary Basis <==

  Basis Set: AUG-CC-PVTZ
    Blend: AUG-CC-PVTZ
    Number of shells: 114
    Number of basis function: 330
    Number of Cartesian functions: 378
    Spherical Harmonics?: true
    Max angular momentum: 3

   => Loading Basis Set <=

    Name: (AUG-CC-PVTZ AUX)
    Role: JKFIT
    Keyword: DF_BASIS_SCF
    atoms 1, 6      entry CL         line   816 file /home/liuchw/anaconda3/envs/psi4env/share/psi4/basis/aug-cc-pvtz-jkfit.gbs 
    atoms 2, 7      entry C          line   162 file /home/liuchw/anaconda3/envs/psi4env/share/psi4/basis/aug-cc-pvtz-jkfit.gbs 
    atoms 3-5, 8-10 entry H          line    70 file /home/liuchw/anaconda3/envs/psi4env/share/psi4/basis/aug-cc-pvtz-jkfit.gbs 

  ==> Pre-Iterations <==

   -------------------------------------------------------
    Irrep   Nso     Nmo     Nalpha   Nbeta   Ndocc  Nsocc
   -------------------------------------------------------
     A        330     330       0       0       0       0
   -------------------------------------------------------
    Total     330     330      13      13      13       0
   -------------------------------------------------------

  ==> Integral Setup <==

  DFHelper Memory: AOs need 0.629 GiB; user supplied 27.940 GiB. Using in-core AOs.

  ==> MemDFJK: Density-Fitted J/K Matrices <==

    J tasked:                   Yes
    K tasked:                   Yes
    wK tasked:                   No
    OpenMP threads:               6
    Memory [MiB]:             28610
    Algorithm:                 Core
    Schwarz Cutoff:           1E-12
    Mask sparsity (%):       5.0083
    Fitting Condition:        1E-10

   => Auxiliary Basis Set <=

  Basis Set: (AUG-CC-PVTZ AUX)
    Blend: AUG-CC-PVTZ-JKFIT
    Number of shells: 228
    Number of basis function: 776
    Number of Cartesian functions: 952
    Spherical Harmonics?: true
    Max angular momentum: 4

  Minimum eigenvalue in the overlap matrix is 5.0535262731E-05.
  Using Symmetric Orthogonalization.

  SCF Guess: Superposition of Atomic Densities via on-the-fly atomic UHF.

  ==> Iterations <==

                           Total Energy        Delta E     RMS |[F,P]|

   @DF-RHF iter SAD:  -498.70723944912345   -4.98707e+02   0.00000e+00 
   @DF-RHF iter   1:  -499.11149752817721   -4.04258e-01   7.37644e-04 DIIS
   @DF-RHF iter   2:  -499.14428907506243   -3.27915e-02   2.58593e-04 DIIS
   @DF-RHF iter   3:  -499.14828405498702   -3.99498e-03   7.77449e-05 DIIS
   @DF-RHF iter   4:  -499.14886657576210   -5.82521e-04   2.21383e-05 DIIS
   @DF-RHF iter   5:  -499.14890982042618   -4.32447e-05   3.22823e-06 DIIS
   @DF-RHF iter   6:  -499.14891116843921   -1.34801e-06   6.29373e-07 DIIS
   @DF-RHF iter   7:  -499.14891121550517   -4.70660e-08   2.01330e-07 DIIS
   @DF-RHF iter   8:  -499.14891122083139   -5.32623e-09   5.39276e-08 DIIS
   @DF-RHF iter   9:  -499.14891122139875   -5.67354e-10   9.99821e-09 DIIS
  Energy and wave function converged.


  ==> Post-Iterations <==

    Orbital Energies [Eh]
    ---------------------

    Doubly Occupied:                                                      

       1A   -104.826159     2A    -11.290078     3A    -10.550429  
       4A     -8.017334     5A     -8.015469     6A     -8.015463  
       7A     -1.128201     8A     -0.915785     9A     -0.619428  
      10A     -0.618909    11A     -0.545403    12A     -0.435735  
      13A     -0.435582  

    Virtual:                                                              

      14A      0.023456    15A      0.034127    16A      0.042155  
      17A      0.046693    18A      0.052896    19A      0.062480  
      20A      0.074587    21A      0.093929    22A      0.105093  
      23A      0.107821    24A      0.113418    25A      0.122972  
      26A      0.125372    27A      0.130628    28A      0.141591  
      29A      0.144121    30A      0.145965    31A      0.154838  
      32A      0.160778    33A      0.172797    34A      0.193652  
      35A      0.209468    36A      0.221779    37A      0.233838  
      38A      0.264422    39A      0.268332    40A      0.275376  
      41A      0.276718    42A      0.289288    43A      0.298420  
      44A      0.298516    45A      0.303664    46A      0.308148  
      47A      0.322876    48A      0.332584    49A      0.336927  
      50A      0.340487    51A      0.343552    52A      0.353400  
      53A      0.365015    54A      0.366744    55A      0.388198  
      56A      0.400060    57A      0.400307    58A      0.410391  
      59A      0.412978    60A      0.414010    61A      0.424780  
      62A      0.432773    63A      0.448116    64A      0.449463  
      65A      0.460686    66A      0.467749    67A      0.473216  
      68A      0.484068    69A      0.503287    70A      0.506738  
      71A      0.510437    72A      0.524334    73A      0.531078  
      74A      0.547914    75A      0.549104    76A      0.584850  
      77A      0.593564    78A      0.596477    79A      0.599981  
      80A      0.647832    81A      0.652823    82A      0.661068  
      83A      0.678697    84A      0.690237    85A      0.696371  
      86A      0.705477    87A      0.706748    88A      0.712366  
      89A      0.744757    90A      0.763413    91A      0.778431  
      92A      0.795777    93A      0.815716    94A      0.819485  
      95A      0.851286    96A      0.864981    97A      0.885882  
      98A      0.896885    99A      0.913919   100A      0.937743  
     101A      0.938837   102A      0.947906   103A      0.957631  
     104A      0.979450   105A      0.982465   106A      0.994576  
     107A      0.997525   108A      0.999139   109A      1.013455  
     110A      1.031426   111A      1.037356   112A      1.053865  
     113A      1.057847   114A      1.059202   115A      1.060690  
     116A      1.084158   117A      1.086639   118A      1.095279  
     119A      1.103337   120A      1.109731   121A      1.114714  
     122A      1.126038   123A      1.129760   124A      1.136872  
     125A      1.142238   126A      1.154797   127A      1.169742  
     128A      1.171403   129A      1.193618   130A      1.195952  
     131A      1.205494   132A      1.232649   133A      1.244540  
     134A      1.253228   135A      1.269816   136A      1.273949  
     137A      1.280690   138A      1.292785   139A      1.321657  
     140A      1.340344   141A      1.354562   142A      1.378429  
     143A      1.386840   144A      1.392628   145A      1.397613  
     146A      1.412798   147A      1.414684   148A      1.439621  
     149A      1.456996   150A      1.464114   151A      1.498688  
     152A      1.518962   153A      1.525866   154A      1.534608  
     155A      1.550993   156A      1.563288   157A      1.569514  
     158A      1.582431   159A      1.599105   160A      1.606043  
     161A      1.606428   162A      1.619503   163A      1.651066  
     164A      1.659788   165A      1.675718   166A      1.707251  
     167A      1.712304   168A      1.732902   169A      1.735309  
     170A      1.767031   171A      1.784463   172A      1.806620  
     173A      1.832273   174A      1.832302   175A      1.864135  
     176A      1.901715   177A      1.921962   178A      1.941330  
     179A      1.951477   180A      1.965351   181A      1.985702  
     182A      1.988896   183A      2.003055   184A      2.011710  
     185A      2.052351   186A      2.071084   187A      2.090140  
     188A      2.094612   189A      2.120285   190A      2.139236  
     191A      2.158821   192A      2.166707   193A      2.206294  
     194A      2.207036   195A      2.221439   196A      2.265842  
     197A      2.335394   198A      2.346628   199A      2.507959  
     200A      2.514240   201A      2.528999   202A      2.553170  
     203A      2.591485   204A      2.657074   205A      2.660693  
     206A      2.690864   207A      2.713372   208A      2.722024  
     209A      2.760499   210A      2.808763   211A      2.936967  
     212A      2.955027   213A      3.016635   214A      3.042015  
     215A      3.108893   216A      3.141004   217A      3.151599  
     218A      3.164769   219A      3.198534   220A      3.253967  
     221A      3.269013   222A      3.343184   223A      3.356123  
     224A      3.373804   225A      3.564932   226A      3.567869  
     227A      3.574817   228A      3.590971   229A      3.610063  
     230A      3.654834   231A      3.798519   232A      3.800564  
     233A      3.844153   234A      3.915310   235A      3.924674  
     236A      3.932416   237A      3.943895   238A      3.971594  
     239A      3.987302   240A      3.994555   241A      4.022619  
     242A      4.039158   243A      4.065959   244A      4.078811  
     245A      4.088718   246A      4.096445   247A      4.108496  
     248A      4.123216   249A      4.162794   250A      4.172947  
     251A      4.182303   252A      4.199573   253A      4.215458  
     254A      4.223809   255A      4.244497   256A      4.270232  
     257A      4.347175   258A      4.409069   259A      4.454257  
     260A      4.470804   261A      4.473642   262A      4.497037  
     263A      4.505682   264A      4.548335   265A      4.549710  
     266A      4.579796   267A      4.596492   268A      4.618351  
     269A      4.699342   270A      4.752100   271A      4.763553  
     272A      4.766492   273A      4.773500   274A      4.799682  
     275A      4.808396   276A      4.824011   277A      4.858812  
     278A      4.881427   279A      4.885542   280A      4.885918  
     281A      4.937251   282A      4.988151   283A      5.003428  
     284A      5.014156   285A      5.099678   286A      5.104599  
     287A      5.190853   288A      5.192867   289A      5.217917  
     290A      5.227980   291A      5.252665   292A      5.347402  
     293A      5.379760   294A      5.388497   295A      5.495017  
     296A      5.496171   297A      5.519163   298A      5.523804  
     299A      5.533980   300A      5.598458   301A      5.670813  
     302A      5.728937   303A      5.764920   304A      5.970102  
     305A      6.054934   306A      6.055838   307A      6.084082  
     308A      6.165998   309A      6.185851   310A      6.209304  
     311A      6.283042   312A      6.600839   313A      6.625742  
     314A      6.638857   315A      6.716466   316A      7.214652  
     317A      7.617669   318A      7.762772   319A      7.778662  
     320A      7.872062   321A      8.171947   322A      8.174760  
     323A     10.328194   324A     16.222856   325A     17.075531  
     326A     28.045415   327A     28.196064   328A     28.956702  
     329A     51.596453   330A    161.017205  

    Final Occupation by Irrep:
              A 
    DOCC [    13 ]

  @DF-RHF Final Energy:  -499.14891122139875

   => Energetics <=

    Nuclear Repulsion Energy =             51.4025694565797551
    One-Electron Energy =                -790.2750103414890646
    Two-Electron Energy =                 239.7235296635106181
    Total Energy =                       -499.1489112213987482

Computation Completed


Properties will be evaluated at   0.000000,   0.000000,   0.000000 [a0]

Properties computed using the SCF density matrix

  Nuclear Dipole Moment: [e a0]
     X:  -106.4837      Y:    -5.1589      Z:     0.0002

  Electronic Dipole Moment: [e a0]
     X:   106.6476      Y:     4.3343      Z:    -0.0002

  Dipole Moment: [e a0]
     X:     0.1640      Y:    -0.8246      Z:    -0.0000     Total:     0.8407

  Dipole Moment: [D]
     X:     0.4168      Y:    -2.0959      Z:    -0.0001     Total:     2.1369


*** tstop() called on node83.bme.utexas.edu at Sat Apr 11 16:22:28 2020
Module time:
	user time   =      21.92 seconds =       0.37 minutes
	system time =       0.85 seconds =       0.01 minutes
	total time  =          4 seconds =       0.07 minutes
Total time:
	user time   =      60.44 seconds =       1.01 minutes
	system time =       2.85 seconds =       0.05 minutes
	total time  =         13 seconds =       0.22 minutes

*** tstart() called on node83.bme.utexas.edu
*** at Sat Apr 11 16:22:28 2020


  //>>>>>>>>>>>>>>>>>>>>>>>>>>>>>>>>>>>//
  //               DFMP2               //
  //<<<<<<<<<<<<<<<<<<<<<<<<<<<<<<<<<<<//

   => Loading Basis Set <=

    Name: (AUG-CC-PVTZ AUX)
    Role: RIFIT
    Keyword: DF_BASIS_MP2
    atoms 1, 6      entry CL         line   742 file /home/liuchw/anaconda3/envs/psi4env/share/psi4/basis/aug-cc-pvtz-ri.gbs 
    atoms 2, 7      entry C          line   148 file /home/liuchw/anaconda3/envs/psi4env/share/psi4/basis/aug-cc-pvtz-ri.gbs 
    atoms 3-5, 8-10 entry H          line    30 file /home/liuchw/anaconda3/envs/psi4env/share/psi4/basis/aug-cc-pvtz-ri.gbs 

	 --------------------------------------------------------
	                          DF-MP2                         
	      2nd-Order Density-Fitted Moller-Plesset Theory     
	              RMP2 Wavefunction,   6 Threads             
	                                                         
	        Rob Parrish, Justin Turney, Andy Simmonett,      
	           Ed Hohenstein, and C. David Sherrill          
	 --------------------------------------------------------

   => Auxiliary Basis Set <=

  Basis Set: (AUG-CC-PVTZ AUX)
    Blend: AUG-CC-PVTZ-RI
    Number of shells: 214
    Number of basis function: 782
    Number of Cartesian functions: 984
    Spherical Harmonics?: true
    Max angular momentum: 4

	 --------------------------------------------------------
	                 NBF =   330, NAUX =   782
	 --------------------------------------------------------
	   CLASS    FOCC     OCC    AOCC    AVIR     VIR    FVIR
	   PAIRS       0      13      13     317     317       0
	 --------------------------------------------------------

	-----------------------------------------------------------
	 ==================> DF-MP2 Energies <==================== 
	-----------------------------------------------------------
	 Reference Energy          =    -499.1489112213987482 [Eh]
	 Singles Energy            =      -0.0000000000000000 [Eh]
	 Same-Spin Energy          =      -0.0994503671400094 [Eh]
	 Opposite-Spin Energy      =      -0.3360562564253334 [Eh]
	 Correlation Energy        =      -0.4355066235653429 [Eh]
	 Total Energy              =    -499.5844178449640935 [Eh]
	-----------------------------------------------------------
	 ================> DF-SCS-MP2 Energies <================== 
	-----------------------------------------------------------
	 SCS Same-Spin Scale       =       0.3333333333333333 [-]
	 SCS Opposite-Spin Scale   =       1.2000000000000000 [-]
	 SCS Same-Spin Energy      =      -0.0331501223800031 [Eh]
	 SCS Opposite-Spin Energy  =      -0.4032675077104001 [Eh]
	 SCS Correlation Energy    =      -0.4364176300904032 [Eh]
	 SCS Total Energy          =    -499.5853288514891233 [Eh]
	-----------------------------------------------------------


*** tstop() called on node83.bme.utexas.edu at Sat Apr 11 16:22:31 2020
Module time:
	user time   =      11.10 seconds =       0.19 minutes
	system time =       0.42 seconds =       0.01 minutes
	total time  =          3 seconds =       0.05 minutes
Total time:
	user time   =      71.55 seconds =       1.19 minutes
	system time =       3.27 seconds =       0.05 minutes
	total time  =         16 seconds =       0.27 minutes

  //>>>>>>>>>>>>>>>>>>>>>>>>>>>>>>>>>>>>//
  // CBS Computation: MP2 / AUG-CC-PVQZ //
  //<<<<<<<<<<<<<<<<<<<<<<<<<<<<<<<<<<<<//


Scratch directory: /scratch//

*** tstart() called on node83.bme.utexas.edu
*** at Sat Apr 11 16:22:31 2020

   => Loading Basis Set <=

    Name: AUG-CC-PVQZ
    Role: ORBITAL
    Keyword: BASIS
    atoms 1, 6      entry CL         line  1222 file /home/liuchw/anaconda3/envs/psi4env/share/psi4/basis/aug-cc-pvqz.gbs 
    atoms 2, 7      entry C          line   303 file /home/liuchw/anaconda3/envs/psi4env/share/psi4/basis/aug-cc-pvqz.gbs 
    atoms 3-5, 8-10 entry H          line    40 file /home/liuchw/anaconda3/envs/psi4env/share/psi4/basis/aug-cc-pvqz.gbs 


         ---------------------------------------------------------
                                   SCF
               by Justin Turney, Rob Parrish, Andy Simmonett
                          and Daniel G. A. Smith
                              RHF Reference
                        6 Threads,  38146 MiB Core
         ---------------------------------------------------------

  ==> Geometry <==

    Molecular point group: c1
    Full point group: C1

    Geometry (in Angstrom), charge = 0, multiplicity = 1:

       Center              X                  Y                   Z               Mass       
    ------------   -----------------  -----------------  -----------------  -----------------
      Gh(CL)          2.295650221522    -0.538695853022     0.000014326068    34.968852682000
      Gh(C)           1.946473221522     1.209336146978    -0.000056673932    12.000000000000
      Gh(H)           0.871562221522     1.343711146978    -0.000044673932     1.007825032230
      Gh(H)           2.385923221522     1.643958146978    -0.889828673932     1.007825032230
      Gh(H)           2.385951221522     1.644036146978     0.889664326068     1.007825032230
         CL          -2.295566778478     0.538712146978     0.000033326068    34.968852682000
         C           -1.946656778478    -1.209370853022    -0.000048673932    12.000000000000
         H           -2.386297778478    -1.643943853022    -0.889750673932     1.007825032230
         H           -2.386080778478    -1.643983853022     0.889741326068     1.007825032230
         H           -0.871767778478    -1.343929853022    -0.000180673932     1.007825032230

  Running in c1 symmetry.

  Rotational constants: A =      0.23160  B =      0.03458  C =      0.03043 [cm^-1]
  Rotational constants: A =   6943.29704  B =   1036.65581  C =    912.38004 [MHz]
  Nuclear repulsion =   51.402569456579755

  Charge       = 0
  Multiplicity = 1
  Electrons    = 26
  Nalpha       = 13
  Nbeta        = 13

  ==> Algorithm <==

  SCF Algorithm Type is DF.
  DIIS enabled.
  MOM disabled.
  Fractional occupation disabled.
  Guess Type is SAD.
  Energy threshold   = 1.00e-07
  Density threshold  = 1.00e-08
  Integral threshold = 0.00e+00

  ==> Primary Basis <==

  Basis Set: AUG-CC-PVQZ
    Blend: AUG-CC-PVQZ
    Number of shells: 168
    Number of basis function: 604
    Number of Cartesian functions: 758
    Spherical Harmonics?: true
    Max angular momentum: 4

   => Loading Basis Set <=

    Name: (AUG-CC-PVQZ AUX)
    Role: JKFIT
    Keyword: DF_BASIS_SCF
    atoms 1, 6      entry CL         line   904 file /home/liuchw/anaconda3/envs/psi4env/share/psi4/basis/aug-cc-pvqz-jkfit.gbs 
    atoms 2, 7      entry C          line   178 file /home/liuchw/anaconda3/envs/psi4env/share/psi4/basis/aug-cc-pvqz-jkfit.gbs 
    atoms 3-5, 8-10 entry H          line    70 file /home/liuchw/anaconda3/envs/psi4env/share/psi4/basis/aug-cc-pvqz-jkfit.gbs 

  ==> Pre-Iterations <==

   -------------------------------------------------------
    Irrep   Nso     Nmo     Nalpha   Nbeta   Ndocc  Nsocc
   -------------------------------------------------------
     A        604     604       0       0       0       0
   -------------------------------------------------------
    Total     604     604      13      13      13       0
   -------------------------------------------------------

  ==> Integral Setup <==

  DFHelper Memory: AOs need 2.840 GiB; user supplied 27.940 GiB. Using in-core AOs.

  ==> MemDFJK: Density-Fitted J/K Matrices <==

    J tasked:                   Yes
    K tasked:                   Yes
    wK tasked:                   No
    OpenMP threads:               6
    Memory [MiB]:             28610
    Algorithm:                 Core
    Schwarz Cutoff:           1E-12
    Mask sparsity (%):       9.5166
    Fitting Condition:        1E-10

   => Auxiliary Basis Set <=

  Basis Set: (AUG-CC-PVQZ AUX)
    Blend: AUG-CC-PVQZ-JKFIT
    Number of shells: 268
    Number of basis function: 1108
    Number of Cartesian functions: 1496
    Spherical Harmonics?: true
    Max angular momentum: 5

  Minimum eigenvalue in the overlap matrix is 1.2395685935E-05.
  Using Symmetric Orthogonalization.

  SCF Guess: Superposition of Atomic Densities via on-the-fly atomic UHF.

  ==> Iterations <==

                           Total Energy        Delta E     RMS |[F,P]|

   @DF-RHF iter SAD:  -498.71227803147832   -4.98712e+02   0.00000e+00 
   @DF-RHF iter   1:  -499.11713269702398   -4.04855e-01   4.14065e-04 DIIS
   @DF-RHF iter   2:  -499.15027266853156   -3.31400e-02   1.43260e-04 DIIS
   @DF-RHF iter   3:  -499.15432492113507   -4.05225e-03   4.38064e-05 DIIS
   @DF-RHF iter   4:  -499.15491575831288   -5.90837e-04   1.30183e-05 DIIS
   @DF-RHF iter   5:  -499.15496470199429   -4.89437e-05   1.89243e-06 DIIS
   @DF-RHF iter   6:  -499.15496629644360   -1.59445e-06   3.74008e-07 DIIS
   @DF-RHF iter   7:  -499.15496635493651   -5.84929e-08   1.29998e-07 DIIS
   @DF-RHF iter   8:  -499.15496636218927   -7.25277e-09   3.68986e-08 DIIS
   @DF-RHF iter   9:  -499.15496636308069   -8.91418e-10   6.88319e-09 DIIS
  Energy and wave function converged.


  ==> Post-Iterations <==

    Orbital Energies [Eh]
    ---------------------

    Doubly Occupied:                                                      

       1A   -104.824057     2A    -11.288706     3A    -10.549531  
       4A     -8.016663     5A     -8.014943     6A     -8.014943  
       7A     -1.127769     8A     -0.915589     9A     -0.619373  
      10A     -0.618861    11A     -0.545507    12A     -0.435720  
      13A     -0.435595  

    Virtual:                                                              

      14A      0.020918    15A      0.030981    16A      0.037575  
      17A      0.041664    18A      0.048246    19A      0.056565  
      20A      0.065577    21A      0.083132    22A      0.090907  
      23A      0.092308    24A      0.097625    25A      0.106815  
      26A      0.107824    27A      0.111688    28A      0.123606  
      29A      0.123622    30A      0.127150    31A      0.134407  
      32A      0.140729    33A      0.148030    34A      0.168298  
      35A      0.174053    36A      0.192237    37A      0.202893  
      38A      0.220496    39A      0.226061    40A      0.235706  
      41A      0.238538    42A      0.247024    43A      0.247368  
      44A      0.248564    45A      0.257643    46A      0.262938  
      47A      0.268792    48A      0.271204    49A      0.272444  
      50A      0.285201    51A      0.287466    52A      0.290941  
      53A      0.303040    54A      0.304984    55A      0.307495  
      56A      0.313572    57A      0.318949    58A      0.324740  
      59A      0.335165    60A      0.343499    61A      0.344573  
      62A      0.352922    63A      0.359087    64A      0.363719  
      65A      0.367479    66A      0.375546    67A      0.384541  
      68A      0.389165    69A      0.392300    70A      0.400909  
      71A      0.404603    72A      0.411184    73A      0.432366  
      74A      0.442343    75A      0.445058    76A      0.447689  
      77A      0.454072    78A      0.471038    79A      0.487445  
      80A      0.491223    81A      0.516660    82A      0.526690  
      83A      0.536837    84A      0.544014    85A      0.556001  
      86A      0.561744    87A      0.562365    88A      0.565563  
      89A      0.581298    90A      0.595976    91A      0.596606  
      92A      0.605515    93A      0.633071    94A      0.634221  
      95A      0.644112    96A      0.659181    97A      0.667727  
      98A      0.672648    99A      0.679795   100A      0.693523  
     101A      0.699952   102A      0.702637   103A      0.712313  
     104A      0.720388   105A      0.723569   106A      0.733413  
     107A      0.741563   108A      0.751504   109A      0.760647  
     110A      0.765052   111A      0.771284   112A      0.776957  
     113A      0.781385   114A      0.784408   115A      0.799343  
     116A      0.808828   117A      0.818931   118A      0.822256  
     119A      0.824845   120A      0.829295   121A      0.841066  
     122A      0.860036   123A      0.865450   124A      0.866715  
     125A      0.869972   126A      0.879026   127A      0.901864  
     128A      0.902444   129A      0.913511   130A      0.927549  
     131A      0.933400   132A      0.935964   133A      0.942818  
     134A      0.955322   135A      0.968044   136A      0.981340  
     137A      0.984155   138A      0.987516   139A      1.002678  
     140A      1.013717   141A      1.018102   142A      1.033154  
     143A      1.041577   144A      1.043344   145A      1.052236  
     146A      1.067280   147A      1.075364   148A      1.078334  
     149A      1.093886   150A      1.100706   151A      1.101187  
     152A      1.115566   153A      1.115724   154A      1.128481  
     155A      1.130014   156A      1.133752   157A      1.145456  
     158A      1.155449   159A      1.168903   160A      1.177340  
     161A      1.184900   162A      1.192330   163A      1.202255  
     164A      1.211721   165A      1.224050   166A      1.231588  
     167A      1.252653   168A      1.275686   169A      1.279665  
     170A      1.290037   171A      1.296893   172A      1.314885  
     173A      1.319165   174A      1.332293   175A      1.362191  
     176A      1.367031   177A      1.381133   178A      1.406592  
     179A      1.423107   180A      1.441846   181A      1.461077  
     182A      1.466717   183A      1.472986   184A      1.487127  
     185A      1.504356   186A      1.513793   187A      1.523853  
     188A      1.550382   189A      1.552751   190A      1.589924  
     191A      1.608061   192A      1.620769   193A      1.638102  
     194A      1.655536   195A      1.665035   196A      1.676229  
     197A      1.698451   198A      1.710373   199A      1.726718  
     200A      1.746856   201A      1.750283   202A      1.778417  
     203A      1.784470   204A      1.787361   205A      1.799907  
     206A      1.808762   207A      1.824872   208A      1.833944  
     209A      1.847179   210A      1.868088   211A      1.872164  
     212A      1.876021   213A      1.881969   214A      1.901988  
     215A      1.904137   216A      1.904907   217A      1.922674  
     218A      1.924397   219A      1.937831   220A      1.945712  
     221A      1.952276   222A      1.958433   223A      1.964763  
     224A      1.984997   225A      1.985376   226A      1.987903  
     227A      1.999752   228A      2.003298   229A      2.010101  
     230A      2.030802   231A      2.033049   232A      2.041223  
     233A      2.046390   234A      2.057611   235A      2.071000  
     236A      2.075172   237A      2.085459   238A      2.090561  
     239A      2.101598   240A      2.108592   241A      2.113469  
     242A      2.114064   243A      2.142081   244A      2.149569  
     245A      2.161804   246A      2.167524   247A      2.183219  
     248A      2.187270   249A      2.192264   250A      2.198303  
     251A      2.201284   252A      2.213445   253A      2.223808  
     254A      2.229649   255A      2.229991   256A      2.233586  
     257A      2.240191   258A      2.270711   259A      2.279739  
     260A      2.287253   261A      2.302101   262A      2.305239  
     263A      2.314599   264A      2.320644   265A      2.332178  
     266A      2.337192   267A      2.351248   268A      2.357531  
     269A      2.378140   270A      2.387536   271A      2.399179  
     272A      2.402356   273A      2.421988   274A      2.427516  
     275A      2.452744   276A      2.468773   277A      2.473677  
     278A      2.487739   279A      2.503181   280A      2.507043  
     281A      2.518924   282A      2.530760   283A      2.539848  
     284A      2.561794   285A      2.565235   286A      2.582779  
     287A      2.588108   288A      2.606671   289A      2.633485  
     290A      2.666605   291A      2.671014   292A      2.676553  
     293A      2.684864   294A      2.714694   295A      2.767585  
     296A      2.769661   297A      2.774013   298A      2.778215  
     299A      2.788747   300A      2.810149   301A      2.818942  
     302A      2.820405   303A      2.826518   304A      2.846898  
     305A      2.861962   306A      2.884578   307A      2.900239  
     308A      2.903691   309A      2.919292   310A      2.942461  
     311A      2.958996   312A      2.981526   313A      2.989117  
     314A      3.011630   315A      3.018891   316A      3.021203  
     317A      3.035930   318A      3.051341   319A      3.052237  
     320A      3.055201   321A      3.109087   322A      3.125302  
     323A      3.132571   324A      3.158457   325A      3.179432  
     326A      3.186770   327A      3.241374   328A      3.265048  
     329A      3.282340   330A      3.291853   331A      3.292668  
     332A      3.297212   333A      3.315676   334A      3.362598  
     335A      3.385922   336A      3.387569   337A      3.402181  
     338A      3.409963   339A      3.444440   340A      3.460450  
     341A      3.461426   342A      3.483065   343A      3.511780  
     344A      3.524552   345A      3.534875   346A      3.603860  
     347A      3.625955   348A      3.646340   349A      3.655723  
     350A      3.668839   351A      3.707018   352A      3.785319  
     353A      3.796985   354A      3.818792   355A      3.827228  
     356A      3.844409   357A      3.853030   358A      3.865168  
     359A      3.888009   360A      3.892627   361A      3.909059  
     362A      3.915638   363A      3.960969   364A      3.975322  
     365A      3.999245   366A      4.079494   367A      4.080399  
     368A      4.104912   369A      4.124362   370A      4.149491  
     371A      4.161205   372A      4.166281   373A      4.189475  
     374A      4.222938   375A      4.247678   376A      4.247789  
     377A      4.272514   378A      4.279831   379A      4.355657  
     380A      4.399783   381A      4.401453   382A      4.442451  
     383A      4.449023   384A      4.464152   385A      4.534721  
     386A      4.538871   387A      4.594350   388A      4.609832  
     389A      4.658649   390A      4.684432   391A      4.709989  
     392A      4.726546   393A      4.728006   394A      4.737469  
     395A      4.781481   396A      4.796190   397A      4.814374  
     398A      4.832971   399A      4.854547   400A      4.885725  
     401A      4.890690   402A      4.904192   403A      4.912139  
     404A      4.929337   405A      4.982948   406A      4.983556  
     407A      4.991492   408A      5.047297   409A      5.053234  
     410A      5.078636   411A      5.079266   412A      5.142661  
     413A      5.166845   414A      5.190525   415A      5.194846  
     416A      5.270499   417A      5.288317   418A      5.385049  
     419A      5.392242   420A      5.470266   421A      5.491833  
     422A      5.503875   423A      5.514421   424A      5.536750  
     425A      5.583762   426A      5.591873   427A      5.646937  
     428A      5.794558   429A      5.851979   430A      5.858027  
     431A      5.867761   432A      6.037710   433A      6.128935  
     434A      6.176364   435A      6.205587   436A      6.279089  
     437A      6.367675   438A      6.369640   439A      6.380484  
     440A      6.389627   441A      6.397816   442A      6.447286  
     443A      6.464967   444A      6.506899   445A      6.520665  
     446A      6.621705   447A      6.625645   448A      6.650673  
     449A      6.719568   450A      6.748605   451A      6.754125  
     452A      6.777454   453A      6.805538   454A      6.816142  
     455A      6.826293   456A      6.827338   457A      6.891572  
     458A      6.944686   459A      6.956184   460A      6.974007  
     461A      6.981432   462A      6.994565   463A      6.996755  
     464A      7.013744   465A      7.021047   466A      7.043560  
     467A      7.107020   468A      7.134775   469A      7.136222  
     470A      7.143879   471A      7.189425   472A      7.256300  
     473A      7.283073   474A      7.295956   475A      7.322201  
     476A      7.359366   477A      7.365468   478A      7.383026  
     479A      7.385635   480A      7.423913   481A      7.459719  
     482A      7.610747   483A      7.628648   484A      7.636618  
     485A      7.649538   486A      7.653209   487A      7.678686  
     488A      7.688254   489A      7.706158   490A      7.709342  
     491A      7.734545   492A      7.778188   493A      7.809305  
     494A      7.863894   495A      7.882683   496A      7.890048  
     497A      7.905194   498A      7.921606   499A      7.941377  
     500A      7.950110   501A      7.981079   502A      8.027762  
     503A      8.060561   504A      8.166633   505A      8.177880  
     506A      8.297620   507A      8.301489   508A      8.356642  
     509A      8.358787   510A      8.365384   511A      8.427025  
     512A      8.458039   513A      8.493858   514A      8.531168  
     515A      8.554196   516A      8.559375   517A      8.599399  
     518A      8.607193   519A      8.656985   520A      8.834895  
     521A      8.848917   522A      8.887617   523A      8.902432  
     524A      8.913903   525A      8.932250   526A      8.951977  
     527A      8.959535   528A      9.042387   529A      9.179261  
     530A      9.184774   531A      9.208897   532A      9.241127  
     533A      9.256834   534A      9.310592   535A      9.340247  
     536A      9.421630   537A      9.440636   538A      9.469427  
     539A      9.536726   540A      9.585412   541A      9.592741  
     542A      9.611605   543A      9.618408   544A      9.640815  
     545A      9.690444   546A      9.703278   547A      9.707952  
     548A      9.740457   549A      9.791918   550A      9.796292  
     551A      9.864358   552A      9.870273   553A      9.914865  
     554A      9.986261   555A     10.013969   556A     10.078308  
     557A     10.120921   558A     10.174533   559A     10.175660  
     560A     10.330346   561A     10.359546   562A     10.381278  
     563A     10.409934   564A     10.432676   565A     10.523962  
     566A     10.615139   567A     10.642156   568A     10.744633  
     569A     10.769350   570A     10.796329   571A     10.801494  
     572A     10.840640   573A     10.869632   574A     10.909081  
     575A     10.932866   576A     10.989811   577A     11.006338  
     578A     11.218930   579A     11.244612   580A     11.376083  
     581A     11.388848   582A     11.508252   583A     12.077643  
     584A     12.103204   585A     12.127082   586A     12.405218  
     587A     13.195514   588A     13.203637   589A     13.206727  
     590A     13.218403   591A     13.391993   592A     13.597335  
     593A     14.857342   594A     16.533475   595A     17.371809  
     596A     17.407523   597A     26.360102   598A     28.774173  
     599A     31.101508   600A     31.122570   601A     31.349956  
     602A     42.972220   603A     71.782069   604A    160.373904  

    Final Occupation by Irrep:
              A 
    DOCC [    13 ]

  @DF-RHF Final Energy:  -499.15496636308069

   => Energetics <=

    Nuclear Repulsion Energy =             51.4025694565797551
    One-Electron Energy =                -790.3005529647292633
    Two-Electron Energy =                 239.7430171450688761
    Total Energy =                       -499.1549663630806890

Computation Completed


Properties will be evaluated at   0.000000,   0.000000,   0.000000 [a0]

Properties computed using the SCF density matrix

  Nuclear Dipole Moment: [e a0]
     X:  -106.4837      Y:    -5.1589      Z:     0.0002

  Electronic Dipole Moment: [e a0]
     X:   106.6468      Y:     4.3384      Z:    -0.0002

  Dipole Moment: [e a0]
     X:     0.1631      Y:    -0.8206      Z:    -0.0000     Total:     0.8366

  Dipole Moment: [D]
     X:     0.4146      Y:    -2.0856      Z:    -0.0001     Total:     2.1264


*** tstop() called on node83.bme.utexas.edu at Sat Apr 11 16:22:45 2020
Module time:
	user time   =      71.56 seconds =       1.19 minutes
	system time =       2.05 seconds =       0.03 minutes
	total time  =         14 seconds =       0.23 minutes
Total time:
	user time   =     143.14 seconds =       2.39 minutes
	system time =       5.32 seconds =       0.09 minutes
	total time  =         30 seconds =       0.50 minutes

*** tstart() called on node83.bme.utexas.edu
*** at Sat Apr 11 16:22:45 2020


  //>>>>>>>>>>>>>>>>>>>>>>>>>>>>>>>>>>>//
  //               DFMP2               //
  //<<<<<<<<<<<<<<<<<<<<<<<<<<<<<<<<<<<//

   => Loading Basis Set <=

    Name: (AUG-CC-PVQZ AUX)
    Role: RIFIT
    Keyword: DF_BASIS_MP2
    atoms 1, 6      entry CL         line   914 file /home/liuchw/anaconda3/envs/psi4env/share/psi4/basis/aug-cc-pvqz-ri.gbs 
    atoms 2, 7      entry C          line   184 file /home/liuchw/anaconda3/envs/psi4env/share/psi4/basis/aug-cc-pvqz-ri.gbs 
    atoms 3-5, 8-10 entry H          line    30 file /home/liuchw/anaconda3/envs/psi4env/share/psi4/basis/aug-cc-pvqz-ri.gbs 

	 --------------------------------------------------------
	                          DF-MP2                         
	      2nd-Order Density-Fitted Moller-Plesset Theory     
[...]
     135A      0.811605   136A      0.829167   137A      0.835501  
     138A      0.846433   139A      0.848892   140A      0.859984  
     141A      0.865517   142A      0.867908   143A      0.872727  
     144A      0.882571   145A      0.887677   146A      0.920342  
     147A      0.921344   148A      0.943680   149A      0.948336  
     150A      0.950231   151A      0.969772   152A      0.983869  
     153A      0.986505   154A      0.988013   155A      0.999930  
     156A      1.016347   157A      1.016473   158A      1.031357  
     159A      1.060599   160A      1.064534   161A      1.070267  
     162A      1.080221   163A      1.085101   164A      1.097187  
     165A      1.104515   166A      1.109232   167A      1.142446  
     168A      1.160976   169A      1.164555   170A      1.167419  
     171A      1.177381   172A      1.177530   173A      1.178967  
     174A      1.179647   175A      1.191859   176A      1.203778  
     177A      1.217299   178A      1.224096   179A      1.237313  
     180A      1.248985   181A      1.249497   182A      1.256732  
     183A      1.276233   184A      1.281371   185A      1.285345  
     186A      1.289980   187A      1.308682   188A      1.317248  
     189A      1.329025   190A      1.337389   191A      1.343210  
     192A      1.348486   193A      1.362082   194A      1.417025  
     195A      1.417320   196A      1.429551   197A      1.468886  
     198A      1.476023   199A      1.478587   200A      1.483987  
     201A      1.509361   202A      1.517038   203A      1.520246  
     204A      1.555465   205A      1.625807   206A      1.634470  
     207A      1.665924   208A      1.668788   209A      1.677339  
     210A      1.701185   211A      1.723671   212A      1.733578  
     213A      1.734974   214A      1.735749   215A      1.747909  
     216A      1.753208   217A      1.764349   218A      1.782517  
     219A      1.786633   220A      1.793720   221A      1.802873  
     222A      1.810056   223A      1.812119   224A      1.854885  
     225A      1.859011   226A      1.865734   227A      1.871091  
     228A      1.881786   229A      1.888372   230A      1.898185  
     231A      1.911590   232A      1.921769   233A      1.931622  
     234A      1.934259   235A      1.936315   236A      1.946762  
     237A      1.950827   238A      1.965616   239A      1.969640  
     240A      1.971798   241A      1.985066   242A      1.985563  
     243A      1.993419   244A      1.996182   245A      2.003738  
     246A      2.009906   247A      2.018691   248A      2.025384  
     249A      2.033275   250A      2.039786   251A      2.041318  
     252A      2.057883   253A      2.060693   254A      2.063004  
     255A      2.069483   256A      2.074965   257A      2.081678  
     258A      2.120524   259A      2.122177   260A      2.138543  
     261A      2.139608   262A      2.148354   263A      2.158202  
     264A      2.159918   265A      2.161814   266A      2.167698  
     267A      2.182799   268A      2.191192   269A      2.206249  
     270A      2.229084   271A      2.231260   272A      2.231598  
     273A      2.234526   274A      2.238572   275A      2.247875  
     276A      2.257253   277A      2.266814   278A      2.266881  
     279A      2.286758   280A      2.289240   281A      2.291123  
     282A      2.292225   283A      2.309892   284A      2.315906  
     285A      2.317597   286A      2.344106   287A      2.348328  
     288A      2.357997   289A      2.363572   290A      2.372694  
     291A      2.379923   292A      2.383464   293A      2.394216  
     294A      2.406962   295A      2.410391   296A      2.417301  
     297A      2.442728   298A      2.458082   299A      2.473348  
     300A      2.485682   301A      2.486788   302A      2.510706  
     303A      2.522855   304A      2.523026   305A      2.534578  
     306A      2.535516   307A      2.634033   308A      2.650474  
     309A      2.669207   310A      2.669890   311A      2.670588  
     312A      2.677458   313A      2.697883   314A      2.722821  
     315A      2.744626   316A      2.767617   317A      2.771454  
     318A      2.779066   319A      2.783619   320A      2.800438  
     321A      2.817756   322A      2.833398   323A      2.837612  
     324A      2.854453   325A      2.884238   326A      2.895567  
     327A      2.916932   328A      2.939898   329A      2.956966  
     330A      2.985154   331A      2.988391   332A      2.990722  
     333A      2.993219   334A      3.012665   335A      3.038366  
     336A      3.050108   337A      3.076297   338A      3.080075  
     339A      3.109317   340A      3.122549   341A      3.125683  
     342A      3.135406   343A      3.170892   344A      3.186423  
     345A      3.192541   346A      3.250010   347A      3.285933  
     348A      3.294337   349A      3.304595   350A      3.319642  
     351A      3.364102   352A      3.390937   353A      3.455001  
     354A      3.470998   355A      3.489395   356A      3.495230  
     357A      3.604127   358A      3.604848   359A      3.613173  
     360A      3.630954   361A      3.641168   362A      3.658719  
     363A      3.670992   364A      3.688192   365A      3.808546  
     366A      3.811628   367A      3.817641   368A      3.839424  
     369A      3.848537   370A      3.865586   371A      3.878864  
     372A      3.890898   373A      3.898327   374A      3.901371  
     375A      3.906902   376A      3.948247   377A      3.952391  
     378A      3.981505   379A      4.068833   380A      4.086466  
     381A      4.104296   382A      4.108481   383A      4.123692  
     384A      4.155167   385A      4.161622   386A      4.162330  
     387A      4.189147   388A      4.195402   389A      4.212215  
     390A      4.232982   391A      4.252818   392A      4.270219  
     393A      4.324057   394A      4.352074   395A      4.396130  
     396A      4.409808   397A      4.435127   398A      4.451035  
     399A      4.514943   400A      4.525408   401A      4.542121  
     402A      4.549959   403A      4.578835   404A      4.597562  
     405A      4.652468   406A      4.660916   407A      4.665895  
     408A      4.698426   409A      4.706900   410A      4.714287  
     411A      4.730064   412A      4.734316   413A      4.770390  
     414A      4.777478   415A      4.786808   416A      4.804247  
     417A      4.809370   418A      4.824586   419A      4.828960  
     420A      4.832482   421A      4.850177   422A      4.880825  
     423A      4.886555   424A      4.894245   425A      4.901161  
     426A      4.915200   427A      4.916266   428A      4.923018  
     429A      4.955510   430A      4.981494   431A      4.994886  
     432A      5.024259   433A      5.024491   434A      5.062877  
     435A      5.062983   436A      5.072401   437A      5.077521  
     438A      5.078245   439A      5.170150   440A      5.181770  
     441A      5.183552   442A      5.203460   443A      5.237144  
     444A      5.294982   445A      5.370411   446A      5.396330  
     447A      5.410545   448A      5.410904   449A      5.586195  
     450A      5.597900   451A      6.131259   452A      6.134026  
     453A      6.164504   454A      6.193041   455A      6.206878  
     456A      6.212448   457A      6.282267   458A      6.286867  
     459A      6.381051   460A      6.383140   461A      6.383425  
     462A      6.403899   463A      6.471691   464A      6.502247  
     465A      6.620628   466A      6.621429   467A      6.629126  
     468A      6.629702   469A      6.711829   470A      6.722289  
     471A      6.745458   472A      6.745847   473A      6.762909  
     474A      6.770296   475A      6.808774   476A      6.815853  
     477A      6.828210   478A      6.836006   479A      6.873594  
     480A      6.912892   481A      6.975791   482A      6.986029  
     483A      6.990466   484A      6.991044   485A      6.998614  
     486A      7.001554   487A      7.006661   488A      7.009622  
     489A      7.032747   490A      7.055135   491A      7.107307  
     492A      7.109949   493A      7.121713   494A      7.154444  
     495A      7.191180   496A      7.196728   497A      7.315527  
     498A      7.328090   499A      7.355891   500A      7.368383  
     501A      7.372224   502A      7.379822   503A      7.458053  
     504A      7.465206   505A      7.606172   506A      7.609618  
     507A      7.628685   508A      7.644588   509A      7.647485  
     510A      7.662501   511A      7.711236   512A      7.711529  
     513A      7.739579   514A      7.741456   515A      7.809218  
     516A      7.814528   517A      7.891733   518A      7.893451  
     519A      7.923971   520A      7.927916   521A      7.947446  
     522A      7.955134   523A      8.297417   524A      8.298558  
     525A      8.301840   526A      8.307561   527A      8.423598  
     528A      8.435089   529A      8.458661   530A      8.460883  
     531A      8.491674   532A      8.501389   533A      8.553160  
     534A      8.559444   535A      8.607541   536A      8.611586  
     537A      8.650144   538A      8.670842   539A      8.893816  
     540A      8.893854   541A      8.910440   542A      8.950996  
     543A      8.957088   544A      8.959979   545A      9.040435  
     546A      9.049598   547A      9.179281   548A      9.184046  
     549A      9.185866   550A      9.192866   551A      9.234129  
     552A      9.242702   553A      9.244430   554A      9.271501  
     555A      9.429188   556A      9.440994   557A      9.444986  
     558A      9.523336   559A      9.593899   560A      9.595714  
     561A      9.607928   562A      9.614183   563A      9.636138  
     564A      9.648607   565A      9.693907   566A      9.695141  
     567A      9.725593   568A      9.753698   569A      9.984167  
     570A      9.994445   571A     10.012359   572A     10.021145  
     573A     10.173970   574A     10.175603   575A     10.179958  
     576A     10.180983   577A     10.384053   578A     10.384423  
     579A     10.408650   580A     10.411336   581A     10.432978  
     582A     10.437165   583A     10.840223   584A     10.842965  
     585A     10.867327   586A     10.874686   587A     10.905036  
     588A     10.920062   589A     10.990707   590A     10.992326  
     591A     11.007540   592A     11.010840   593A     11.509994  
     594A     11.511657   595A     13.194113   596A     13.202330  
     597A     13.210104   598A     13.233263   599A     13.379062  
     600A     13.410220   601A     26.242839   602A     26.474793  
     603A     28.770877   604A     28.781525  

    Final Occupation by Irrep:
              A 
    DOCC [    26 ]

  @DF-RHF Final Energy:  -998.31155937961375

   => Energetics <=

    Nuclear Repulsion Energy =            182.4614225643652503
    One-Electron Energy =               -1739.8826121220051846
    Two-Electron Energy =                 559.1096301780262365
    Total Energy =                       -998.3115593796137546

Computation Completed


Properties will be evaluated at   0.000000,   0.000000,   0.000000 [a0]

Properties computed using the SCF density matrix

  Nuclear Dipole Moment: [e a0]
     X:    -0.0007      Y:    -0.0002      Z:    -0.0004

  Electronic Dipole Moment: [e a0]
     X:     0.0006      Y:     0.0001      Z:     0.0003

  Dipole Moment: [e a0]
     X:    -0.0002      Y:    -0.0000      Z:    -0.0001     Total:     0.0002

  Dipole Moment: [D]
     X:    -0.0004      Y:    -0.0001      Z:    -0.0002     Total:     0.0004


*** tstop() called on node83.bme.utexas.edu at Sat Apr 11 16:23:56 2020
Module time:
	user time   =      79.55 seconds =       1.33 minutes
	system time =       2.03 seconds =       0.03 minutes
	total time  =         15 seconds =       0.25 minutes
Total time:
	user time   =     485.71 seconds =       8.10 minutes
	system time =      16.32 seconds =       0.27 minutes
	total time  =        101 seconds =       1.68 minutes

*** tstart() called on node83.bme.utexas.edu
*** at Sat Apr 11 16:23:56 2020


  //>>>>>>>>>>>>>>>>>>>>>>>>>>>>>>>>>>>//
  //               DFMP2               //
  //<<<<<<<<<<<<<<<<<<<<<<<<<<<<<<<<<<<//

   => Loading Basis Set <=

    Name: (AUG-CC-PVQZ AUX)
    Role: RIFIT
    Keyword: DF_BASIS_MP2
    atoms 1, 6      entry CL         line   914 file /home/liuchw/anaconda3/envs/psi4env/share/psi4/basis/aug-cc-pvqz-ri.gbs 
    atoms 2, 7      entry C          line   184 file /home/liuchw/anaconda3/envs/psi4env/share/psi4/basis/aug-cc-pvqz-ri.gbs 
    atoms 3-5, 8-10 entry H          line    30 file /home/liuchw/anaconda3/envs/psi4env/share/psi4/basis/aug-cc-pvqz-ri.gbs 

	 --------------------------------------------------------
	                          DF-MP2                         
	      2nd-Order Density-Fitted Moller-Plesset Theory     
	              RMP2 Wavefunction,   6 Threads             
	                                                         
	        Rob Parrish, Justin Turney, Andy Simmonett,      
	           Ed Hohenstein, and C. David Sherrill          
	 --------------------------------------------------------

   => Auxiliary Basis Set <=

  Basis Set: (AUG-CC-PVQZ AUX)
    Blend: AUG-CC-PVQZ-RI
    Number of shells: 280
    Number of basis function: 1204
    Number of Cartesian functions: 1640
    Spherical Harmonics?: true
    Max angular momentum: 5

	 --------------------------------------------------------
	                 NBF =   604, NAUX =  1204
	 --------------------------------------------------------
	   CLASS    FOCC     OCC    AOCC    AVIR     VIR    FVIR
	   PAIRS       0      26      26     578     578       0
	 --------------------------------------------------------

	-----------------------------------------------------------
	 ==================> DF-MP2 Energies <==================== 
	-----------------------------------------------------------
	 Reference Energy          =    -998.3115593796137546 [Eh]
	 Singles Energy            =      -0.0000000000000000 [Eh]
	 Same-Spin Energy          =      -0.2245478337615426 [Eh]
	 Opposite-Spin Energy      =      -0.7773405871428650 [Eh]
	 Correlation Energy        =      -1.0018884209044077 [Eh]
	 Total Energy              =    -999.3134478005181336 [Eh]
	-----------------------------------------------------------
	 ================> DF-SCS-MP2 Energies <================== 
	-----------------------------------------------------------
	 SCS Same-Spin Scale       =       0.3333333333333333 [-]
	 SCS Opposite-Spin Scale   =       1.2000000000000000 [-]
	 SCS Same-Spin Energy      =      -0.0748492779205142 [Eh]
	 SCS Opposite-Spin Energy  =      -0.9328087045714379 [Eh]
	 SCS Correlation Energy    =      -1.0076579824919520 [Eh]
	 SCS Total Energy          =    -999.3192173621057464 [Eh]
	-----------------------------------------------------------


*** tstop() called on node83.bme.utexas.edu at Sat Apr 11 16:24:07 2020
Module time:
	user time   =      50.51 seconds =       0.84 minutes
	system time =       1.39 seconds =       0.02 minutes
	total time  =         11 seconds =       0.18 minutes
Total time:
	user time   =     536.22 seconds =       8.94 minutes
	system time =      17.71 seconds =       0.30 minutes
	total time  =        112 seconds =       1.87 minutes

  //>>>>>>>>>>>>>>>>>>>>>>>>>>>>>>>>>>>//
  //  CBS Results: mp2/aug-cc-pv[tq]z  //
  //<<<<<<<<<<<<<<<<<<<<<<<<<<<<<<<<<<<//


   ==> HF <==

   HI-zeta (4) Energy:               -998.311559379614


   ==> Helgaker 2-point correlated extrapolation for method: MP2 <==

   LO-zeta (3) Energy:               -999.172169168767
   HI-zeta (4) Energy:               -999.313447800518
   Alpha (exponent) Value:             3.000000000000
   Extrapolated Energy:              -999.416543018283

   @Extrapolated MP2/(T,Q):          -999.416543018283



   ==> Helgaker 2-point correlated extrapolation for method: HF <==

   LO-zeta (3) Energy:               -998.299455584473
   HI-zeta (4) Energy:               -998.311559379614
   Alpha (exponent) Value:             3.000000000000
   Extrapolated Energy:              -998.320391878770

   @Extrapolated HF/(T,Q):           -998.320391878770


   ==> Components <==

  ---------------------------------------------------------------------------------------------------------
                          Method / Basis                      Rqd      Energy [Eh]   Variable
  ---------------------------------------------------------------------------------------------------------
                              hf / aug-cc-pvtz                  *    -998.29945558   HF TOTAL ENERGY
                             mp2 / aug-cc-pvtz                  *    -999.17216917   MP2 TOTAL ENERGY
                              hf / aug-cc-pvqz                  *    -998.31155938   HF TOTAL ENERGY
                             mp2 / aug-cc-pvqz                  *    -999.31344780   MP2 TOTAL ENERGY
  ---------------------------------------------------------------------------------------------------------

   ==> Stages <==

  ---------------------------------------------------------------------------------------------------------
      Stage               Method / Basis                       Wt      Energy [Eh]   Scheme
  ---------------------------------------------------------------------------------------------------------
        scf                   hf / aug-cc-pvqz                  1    -998.31155938   xtpl_highest_1
       corl                  mp2 / aug-cc-pv[tq]z               1    -999.41654302   corl_xtpl_helgaker_2
       corl                   hf / aug-cc-pv[tq]z              -1    -998.32039188   corl_xtpl_helgaker_2
  ---------------------------------------------------------------------------------------------------------

   ==> CBS <==

  ---------------------------------------------------------------------------------------------------------
      Stage               Method / Basis                               Energy [Eh]   Scheme
  ---------------------------------------------------------------------------------------------------------
        scf                   hf / aug-cc-pvqz                       -998.31155938   xtpl_highest_1
       corl                  mp2 / aug-cc-pv[tq]z                      -1.09615114   corl_xtpl_helgaker_2
      total                  CBS                                     -999.40771052   
  ---------------------------------------------------------------------------------------------------------
   => Loading Basis Set <=

    Name: DEF2-SVP
    Role: ORBITAL
    Keyword: BASIS
    atoms 1, 6      entry CL         line   356 file /home/liuchw/anaconda3/envs/psi4env/share/psi4/basis/def2-svp.gbs 
    atoms 2, 7      entry C          line    90 file /home/liuchw/anaconda3/envs/psi4env/share/psi4/basis/def2-svp.gbs 
    atoms 3-5, 8-10 entry H          line    15 file /home/liuchw/anaconda3/envs/psi4env/share/psi4/basis/def2-svp.gbs 


       N-Body: Complex Energy (fragments = (1, 2), basis = (1, 2):  -999.40771051912600)

   ==> N-Body: Counterpoise Corrected (CP) energies <==

   n-Body     Total Energy [Eh]       I.E. [kcal/mol]      Delta [kcal/mol]
        1     -999.404364852576        0.000000000000        0.000000000000
        2     -999.407870724245       -2.199967686328       -2.199967686328

   => Loading Basis Set <=

    Name: DEF2-SVP
    Role: ORBITAL
    Keyword: BASIS
    atoms 1, 6      entry CL         line   356 file /home/liuchw/anaconda3/envs/psi4env/share/psi4/basis/def2-svp.gbs 
    atoms 2, 7      entry C          line    90 file /home/liuchw/anaconda3/envs/psi4env/share/psi4/basis/def2-svp.gbs 
    atoms 3-5, 8-10 entry H          line    15 file /home/liuchw/anaconda3/envs/psi4env/share/psi4/basis/def2-svp.gbs 


    Psi4 stopped on: Saturday, 11 April 2020 04:24PM
    Psi4 wall time for execution: 0:01:52.12

*** Psi4 exiting successfully. Buy a developer a beer!
