
    -----------------------------------------------------------------------
          Psi4: An Open-Source Ab Initio Electronic Structure Package
                               Psi4 1.4a2.dev224 

                         Git: Rev {master} e453b16 


    R. M. Parrish, L. A. Burns, D. G. A. Smith, A. C. Simmonett,
    A. E. DePrince III, E. G. Hohenstein, U. Bozkaya, A. Yu. Sokolov,
    R. Di Remigio, R. M. Richard, J. F. Gonthier, A. M. James,
    H. R. McAlexander, A. Kumar, M. Saitow, X. Wang, B. P. Pritchard,
    P. Verma, H. F. Schaefer III, K. Patkowski, R. A. King, E. F. Valeev,
    F. A. Evangelista, J. M. Turney, T. D. Crawford, and C. D. Sherrill,
    J. Chem. Theory Comput. 13(7) pp 3185--3197 (2017).
    (doi: 10.1021/acs.jctc.7b00174)


                         Additional Contributions by
    P. Kraus, H. Kruse, M. H. Lechner, M. C. Schieber, R. A. Shaw,
    A. Alenaizan, R. Galvelis, Z. L. Glick, S. Lehtola, and J. P. Misiewicz

    -----------------------------------------------------------------------


    Psi4 started on: Thursday, 23 April 2020 11:57AM

    Process ID: 118581
    Host:       node86.bme.utexas.edu
    PSIDATADIR: /home/liuchw/anaconda3/envs/psi4env/share/psi4
    Memory:     500.0 MiB
    Threads:    8
    
  ==> Input File <==

--------------------------------------------------------------------------
#Generated by lconvert.py for cbs job

memory 20 GB

molecule  {
0 1
 Br       2.177490   -0.607410    0.000150
  C       1.823120    1.288190    0.000110
  H       0.749230    1.426570    0.000140
  H       2.269760    1.710430   -0.891300
  H       2.269820    1.710470    0.891480
--
0 1
 Br      -5.353920    1.052400    0.000170
  C      -4.999800   -0.843240    0.000130
  H      -5.446630   -1.265440   -0.891210
  H      -5.446430   -1.265440    0.891570
  H      -3.925930   -0.981800    0.000010
units angstrom
no_reorient
symmetry c1
}

set {
scf_type DF
mp2_type DF
e_convergence 7
reference rhf
}

energy('mp2/aug-cc-pv[tq]z', bsse_type='cp')
--------------------------------------------------------------------------

  Memory set to  18.626 GiB by Python driver.

Scratch directory: /scratch/liuchw/


   ===> N-Body Interaction Abacus <===
        BSSE Treatment:                     cp
        Number of 1-body computations:     4
        Number of 2-body computations:     1

   ==> N-Body: Now computing 1-body complexes <==


       N-Body: Computing complex (1/4) with fragments (2,) in the basis of fragments (2,).


Scratch directory: /scratch/liuchw/

  //>>>>>>>>>>>>>>>>>>>>>>>>>>>>>>>>>>>//
  //   CBS Setup: mp2/aug-cc-pv[tq]z   //
  //<<<<<<<<<<<<<<<<<<<<<<<<<<<<<<<<<<<//

    Naive listing of computations required.
             hf / aug-cc-pvqz              for  HF TOTAL ENERGY
            mp2 / aug-cc-pvtz              for  MP2 TOTAL ENERGY
            mp2 / aug-cc-pvqz              for  MP2 TOTAL ENERGY
             hf / aug-cc-pvtz              for  HF TOTAL ENERGY
             hf / aug-cc-pvqz              for  HF TOTAL ENERGY

    Enlightened listing of computations required.
            mp2 / aug-cc-pvtz              for  MP2 TOTAL ENERGY
            mp2 / aug-cc-pvqz              for  MP2 TOTAL ENERGY

    Full listing of computations to be obtained (required and bonus).
             hf / aug-cc-pvtz              for  HF TOTAL ENERGY
            mp2 / aug-cc-pvtz              for  MP2 TOTAL ENERGY
             hf / aug-cc-pvqz              for  HF TOTAL ENERGY
            mp2 / aug-cc-pvqz              for  MP2 TOTAL ENERGY

  //>>>>>>>>>>>>>>>>>>>>>>>>>>>>>>>>>>>>//
  // CBS Computation: MP2 / AUG-CC-PVTZ //
  //<<<<<<<<<<<<<<<<<<<<<<<<<<<<<<<<<<<<//


Scratch directory: /scratch/liuchw/

*** tstart() called on node86.bme.utexas.edu
*** at Thu Apr 23 11:57:09 2020

   => Loading Basis Set <=

    Name: AUG-CC-PVTZ
    Role: ORBITAL
    Keyword: BASIS
    atoms 1   entry BR         line  4208 file /home/liuchw/anaconda3/envs/psi4env/share/psi4/basis/aug-cc-pvtz.gbs 
    atoms 2   entry C          line   239 file /home/liuchw/anaconda3/envs/psi4env/share/psi4/basis/aug-cc-pvtz.gbs 
    atoms 3-5 entry H          line    40 file /home/liuchw/anaconda3/envs/psi4env/share/psi4/basis/aug-cc-pvtz.gbs 


         ---------------------------------------------------------
                                   SCF
               by Justin Turney, Rob Parrish, Andy Simmonett
                          and Daniel G. A. Smith
                              RHF Reference
                        8 Threads,  19073 MiB Core
         ---------------------------------------------------------

  ==> Geometry <==

    Molecular point group: c1
    Full point group: C1

    Geometry (in Angstrom), charge = 0, multiplicity = 1:

       Center              X                  Y                   Z               Mass       
    ------------   -----------------  -----------------  -----------------  -----------------
         BR          -3.765684258627     0.829908520309     0.000016557851    78.918337600000
         C           -3.411564258627    -1.065731479691    -0.000023442149    12.000000000000
         H           -3.858394258627    -1.487931479691    -0.891363442149     1.007825032230
         H           -3.858194258627    -1.487931479691     0.891416557851     1.007825032230
         H           -2.337694258627    -1.204291479691    -0.000143442149     1.007825032230

  Running in c1 symmetry.

  Rotational constants: A =      0.35845  B =      0.01273  C =      0.01232 [cm^-1]
  Rotational constants: A =  10746.05437  B =    381.60449  C =    369.38077 [MHz]
  Nuclear repulsion =   89.670432870001832

  Charge       = 0
  Multiplicity = 1
  Electrons    = 44
  Nalpha       = 22
  Nbeta        = 22

  ==> Algorithm <==

  SCF Algorithm Type is DF.
  DIIS enabled.
  MOM disabled.
  Fractional occupation disabled.
  Guess Type is SAD.
  Energy threshold   = 1.00e-07
  Density threshold  = 1.00e-08
  Integral threshold = 0.00e+00

  ==> Primary Basis <==

  Basis Set: AUG-CC-PVTZ
    Blend: AUG-CC-PVTZ
    Number of shells: 60
    Number of basis function: 174
    Number of Cartesian functions: 199
    Spherical Harmonics?: true
    Max angular momentum: 3

   => Loading Basis Set <=

    Name: (AUG-CC-PVTZ AUX)
    Role: JKFIT
    Keyword: DF_BASIS_SCF
    atoms 1   entry BR         line  1492 file /home/liuchw/anaconda3/envs/psi4env/share/psi4/basis/aug-cc-pvtz-jkfit.gbs 
    atoms 2   entry C          line   162 file /home/liuchw/anaconda3/envs/psi4env/share/psi4/basis/aug-cc-pvtz-jkfit.gbs 
    atoms 3-5 entry H          line    70 file /home/liuchw/anaconda3/envs/psi4env/share/psi4/basis/aug-cc-pvtz-jkfit.gbs 

  ==> Pre-Iterations <==

   -------------------------------------------------------
    Irrep   Nso     Nmo     Nalpha   Nbeta   Ndocc  Nsocc
   -------------------------------------------------------
     A        174     174       0       0       0       0
   -------------------------------------------------------
    Total     174     174      22      22      22       0
   -------------------------------------------------------

  ==> Integral Setup <==

  DFHelper Memory: AOs need 0.120 GiB; user supplied 13.970 GiB. Using in-core AOs.

  ==> MemDFJK: Density-Fitted J/K Matrices <==

    J tasked:                   Yes
    K tasked:                   Yes
    wK tasked:                   No
    OpenMP threads:               8
    Memory [MiB]:             14305
    Algorithm:                 Core
    Schwarz Cutoff:           1E-12
    Mask sparsity (%):       0.0000
    Fitting Condition:        1E-10

   => Auxiliary Basis Set <=

  Basis Set: (AUG-CC-PVTZ AUX)
    Blend: AUG-CC-PVTZ-JKFIT
    Number of shells: 130
    Number of basis function: 490
    Number of Cartesian functions: 625
    Spherical Harmonics?: true
    Max angular momentum: 4

  Minimum eigenvalue in the overlap matrix is 8.1489403769E-05.
  Using Symmetric Orthogonalization.

  SCF Guess: Superposition of Atomic Densities via on-the-fly atomic UHF.

  ==> Iterations <==

                           Total Energy        Delta E     RMS |[F,P]|

   @DF-RHF iter SAD: -2609.99263921690863   -2.60999e+03   0.00000e+00 
   @DF-RHF iter   1: -2611.91672690910036   -1.92409e+00   5.46969e-03 DIIS
   @DF-RHF iter   2: -2612.06226808763040   -1.45541e-01   2.47078e-03 DIIS
   @DF-RHF iter   3: -2612.09222679072036   -2.99587e-02   1.43675e-04 DIIS
   @DF-RHF iter   4: -2612.09286607566719   -6.39285e-04   4.24397e-05 DIIS
   @DF-RHF iter   5: -2612.09292043197684   -5.43563e-05   1.32223e-05 DIIS
   @DF-RHF iter   6: -2612.09292458345544   -4.15148e-06   3.28677e-06 DIIS
   @DF-RHF iter   7: -2612.09292487386028   -2.90405e-07   7.50288e-07 DIIS
   @DF-RHF iter   8: -2612.09292490284224   -2.89820e-08   2.31335e-07 DIIS
   @DF-RHF iter   9: -2612.09292490597591   -3.13366e-09   3.56325e-08 DIIS
   @DF-RHF iter  10: -2612.09292490604412   -6.82121e-11   3.76129e-09 DIIS
  Energy and wave function converged.


  ==> Post-Iterations <==

    Orbital Energies [Eh]
    ---------------------

    Doubly Occupied:                                                      

       1A   -490.013254     2A    -65.153253     3A    -58.508535  
       4A    -58.507165     5A    -58.507165     6A    -11.287327  
       7A     -9.826234     8A     -7.437799     9A     -7.431107  
      10A     -7.431106    11A     -3.181381    12A     -3.177902  
      13A     -3.177902    14A     -3.169340    15A     -3.169340  
      16A     -1.064088    17A     -0.897085    18A     -0.613540  
      19A     -0.612994    20A     -0.507690    21A     -0.401719  
      22A     -0.401662  

    Virtual:                                                              

      23A      0.027859    24A      0.046237    25A      0.046285  
      26A      0.058460    27A      0.100771    28A      0.115703  
      29A      0.115712    30A      0.127975    31A      0.128109  
      32A      0.131157    33A      0.176078    34A      0.199503  
      35A      0.199519    36A      0.213646    37A      0.263067  
      38A      0.263251    39A      0.290254    40A      0.310963  
      41A      0.310997    42A      0.333897    43A      0.334385  
      44A      0.334516    45A      0.342336    46A      0.393531  
      47A      0.397419    48A      0.397467    49A      0.415575  
      50A      0.433848    51A      0.433933    52A      0.437008  
      53A      0.448390    54A      0.448415    55A      0.494717  
      56A      0.494965    57A      0.578557    58A      0.578646  
      59A      0.579006    60A      0.668534    61A      0.668746  
      62A      0.700510    63A      0.768739    64A      0.784950  
      65A      0.784982    66A      0.817568    67A      0.817762  
      68A      0.867202    69A      0.868114    70A      0.868124  
      71A      0.914281    72A      0.932460    73A      0.935244  
      74A      0.954609    75A      0.955286    76A      0.956186  
      77A      0.977408    78A      0.992460    79A      0.992715  
      80A      1.060021    81A      1.073201    82A      1.073240  
      83A      1.085877    84A      1.086303    85A      1.132053  
      86A      1.132514    87A      1.144246    88A      1.224714  
      89A      1.224910    90A      1.255651    91A      1.255941  
      92A      1.296655    93A      1.351929    94A      1.438627  
      95A      1.438913    96A      1.476221    97A      1.549153  
      98A      1.581328    99A      1.581640   100A      1.613507  
     101A      1.627829   102A      1.627889   103A      1.652395  
     104A      1.710276   105A      1.718732   106A      1.719133  
     107A      1.902356   108A      1.902917   109A      1.937179  
     110A      2.007673   111A      2.008242   112A      2.050500  
     113A      2.158025   114A      2.158597   115A      2.253930  
     116A      2.254138   117A      2.265965   118A      2.344088  
     119A      2.344098   120A      2.345407   121A      2.346178  
     122A      2.428997   123A      2.429112   124A      2.472487  
     125A      2.533732   126A      2.534193   127A      2.609374  
     128A      2.609426   129A      2.642553   130A      2.901941  
     131A      3.006075   132A      3.311543   133A      3.311930  
     134A      3.478547   135A      3.478551   136A      3.504764  
     137A      3.558160   138A      3.577615   139A      3.577941  
     140A      3.727356   141A      3.727669   142A      3.912880  
     143A      3.913391   144A      3.933707   145A      4.022891  
     146A      4.057398   147A      4.058311   148A      4.069950  
     149A      4.123654   150A      4.123720   151A      4.208065  
     152A      4.441802   153A      4.442536   154A      4.471975  
     155A      4.744839   156A      4.745379   157A      4.836844  
     158A      4.857616   159A      4.930582   160A      4.930795  
     161A      5.045628   162A      5.148784   163A      5.150561  
     164A      5.296601   165A      5.486425   166A      5.488230  
     167A      5.588960   168A      5.681409   169A      6.018826  
     170A      6.021521   171A      6.110311   172A      6.580058  
     173A      6.582350   174A     16.981413  

    Final Occupation by Irrep:
              A 
    DOCC [    22 ]

  @DF-RHF Final Energy: -2612.09292490604412

   => Energetics <=

    Nuclear Repulsion Energy =             89.6704328700018323
    One-Electron Energy =               -3814.5715380820847713
    Two-Electron Energy =                1112.8081803060390484
    Total Energy =                      -2612.0929249060441180

Computation Completed


Properties will be evaluated at   0.000000,   0.000000,   0.000000 [a0]

Properties computed using the SCF density matrix

  Nuclear Dipole Moment: [e a0]
     X:  -306.7453      Y:    34.9075      Z:     0.0007

  Electronic Dipole Moment: [e a0]
     X:   306.8986      Y:   -35.7311      Z:    -0.0007

  Dipole Moment: [e a0]
     X:     0.1533      Y:    -0.8236      Z:    -0.0000     Total:     0.8377

  Dipole Moment: [D]
     X:     0.3897      Y:    -2.0933      Z:    -0.0000     Total:     2.1293


*** tstop() called on node86.bme.utexas.edu at Thu Apr 23 11:57:12 2020
Module time:
	user time   =      16.14 seconds =       0.27 minutes
	system time =       0.55 seconds =       0.01 minutes
	total time  =          3 seconds =       0.05 minutes
Total time:
	user time   =      16.14 seconds =       0.27 minutes
	system time =       0.55 seconds =       0.01 minutes
	total time  =          3 seconds =       0.05 minutes

*** tstart() called on node86.bme.utexas.edu
*** at Thu Apr 23 11:57:12 2020


  //>>>>>>>>>>>>>>>>>>>>>>>>>>>>>>>>>>>//
  //               DFMP2               //
  //<<<<<<<<<<<<<<<<<<<<<<<<<<<<<<<<<<<//

   => Loading Basis Set <=

    Name: (AUG-CC-PVTZ AUX)
    Role: RIFIT
    Keyword: DF_BASIS_MP2
    atoms 1   entry BR         line  1248 file /home/liuchw/anaconda3/envs/psi4env/share/psi4/basis/aug-cc-pvtz-ri.gbs 
    atoms 2   entry C          line   148 file /home/liuchw/anaconda3/envs/psi4env/share/psi4/basis/aug-cc-pvtz-ri.gbs 
    atoms 3-5 entry H          line    30 file /home/liuchw/anaconda3/envs/psi4env/share/psi4/basis/aug-cc-pvtz-ri.gbs 

	 --------------------------------------------------------
	                          DF-MP2                         
	      2nd-Order Density-Fitted Moller-Plesset Theory     
	              RMP2 Wavefunction,   8 Threads             
	                                                         
	        Rob Parrish, Justin Turney, Andy Simmonett,      
	           Ed Hohenstein, and C. David Sherrill          
	 --------------------------------------------------------

   => Auxiliary Basis Set <=

  Basis Set: (AUG-CC-PVTZ AUX)
    Blend: AUG-CC-PVTZ-RI
    Number of shells: 113
    Number of basis function: 435
    Number of Cartesian functions: 562
    Spherical Harmonics?: true
    Max angular momentum: 5

	 --------------------------------------------------------
	                 NBF =   174, NAUX =   435
	 --------------------------------------------------------
	   CLASS    FOCC     OCC    AOCC    AVIR     VIR    FVIR
	   PAIRS       0      22      22     152     152       0
	 --------------------------------------------------------

	-----------------------------------------------------------
	 ==================> DF-MP2 Energies <==================== 
	-----------------------------------------------------------
	 Reference Energy          =   -2612.0929249060441180 [Eh]
	 Singles Energy            =      -0.0000000000000000 [Eh]
	 Same-Spin Energy          =      -0.1267786735079423 [Eh]
	 Opposite-Spin Energy      =      -0.3643839833439575 [Eh]
	 Correlation Energy        =      -0.4911626568518998 [Eh]
	 Total Energy              =   -2612.5840875628960021 [Eh]
	-----------------------------------------------------------
	 ================> DF-SCS-MP2 Energies <================== 
	-----------------------------------------------------------
	 SCS Same-Spin Scale       =       0.3333333333333333 [-]
	 SCS Opposite-Spin Scale   =       1.2000000000000000 [-]
	 SCS Same-Spin Energy      =      -0.0422595578359808 [Eh]
	 SCS Opposite-Spin Energy  =      -0.4372607800127490 [Eh]
	 SCS Correlation Energy    =      -0.4795203378487298 [Eh]
	 SCS Total Energy          =   -2612.5724452438930712 [Eh]
	-----------------------------------------------------------


*** tstop() called on node86.bme.utexas.edu at Thu Apr 23 11:57:13 2020
Module time:
	user time   =       6.10 seconds =       0.10 minutes
	system time =       0.19 seconds =       0.00 minutes
	total time  =          1 seconds =       0.02 minutes
Total time:
	user time   =      22.25 seconds =       0.37 minutes
	system time =       0.74 seconds =       0.01 minutes
	total time  =          4 seconds =       0.07 minutes

  //>>>>>>>>>>>>>>>>>>>>>>>>>>>>>>>>>>>>//
  // CBS Computation: MP2 / AUG-CC-PVQZ //
  //<<<<<<<<<<<<<<<<<<<<<<<<<<<<<<<<<<<<//


Scratch directory: /scratch/liuchw/

*** tstart() called on node86.bme.utexas.edu
*** at Thu Apr 23 11:57:13 2020

   => Loading Basis Set <=

    Name: AUG-CC-PVQZ
    Role: ORBITAL
    Keyword: BASIS
    atoms 1   entry BR         line  5448 file /home/liuchw/anaconda3/envs/psi4env/share/psi4/basis/aug-cc-pvqz.gbs 
    atoms 2   entry C          line   303 file /home/liuchw/anaconda3/envs/psi4env/share/psi4/basis/aug-cc-pvqz.gbs 
    atoms 3-5 entry H          line    40 file /home/liuchw/anaconda3/envs/psi4env/share/psi4/basis/aug-cc-pvqz.gbs 


         ---------------------------------------------------------
                                   SCF
               by Justin Turney, Rob Parrish, Andy Simmonett
                          and Daniel G. A. Smith
                              RHF Reference
                        8 Threads,  19073 MiB Core
         ---------------------------------------------------------

  ==> Geometry <==

    Molecular point group: c1
    Full point group: C1

    Geometry (in Angstrom), charge = 0, multiplicity = 1:

       Center              X                  Y                   Z               Mass       
    ------------   -----------------  -----------------  -----------------  -----------------
         BR          -3.765684258627     0.829908520309     0.000016557851    78.918337600000
         C           -3.411564258627    -1.065731479691    -0.000023442149    12.000000000000
         H           -3.858394258627    -1.487931479691    -0.891363442149     1.007825032230
         H           -3.858194258627    -1.487931479691     0.891416557851     1.007825032230
         H           -2.337694258627    -1.204291479691    -0.000143442149     1.007825032230

  Running in c1 symmetry.

  Rotational constants: A =      0.35845  B =      0.01273  C =      0.01232 [cm^-1]
  Rotational constants: A =  10746.05437  B =    381.60449  C =    369.38077 [MHz]
  Nuclear repulsion =   89.670432870001832

  Charge       = 0
  Multiplicity = 1
  Electrons    = 44
  Nalpha       = 22
  Nbeta        = 22

  ==> Algorithm <==

  SCF Algorithm Type is DF.
  DIIS enabled.
  MOM disabled.
  Fractional occupation disabled.
  Guess Type is SAD.
  Energy threshold   = 1.00e-07
  Density threshold  = 1.00e-08
  Integral threshold = 0.00e+00

  ==> Primary Basis <==

  Basis Set: AUG-CC-PVQZ
    Blend: AUG-CC-PVQZ
    Number of shells: 87
    Number of basis function: 311
    Number of Cartesian functions: 389
    Spherical Harmonics?: true
    Max angular momentum: 4

   => Loading Basis Set <=

    Name: (AUG-CC-PVQZ AUX)
    Role: JKFIT
    Keyword: DF_BASIS_SCF
    atoms 1   entry BR         line  1612 file /home/liuchw/anaconda3/envs/psi4env/share/psi4/basis/aug-cc-pvqz-jkfit.gbs 
    atoms 2   entry C          line   178 file /home/liuchw/anaconda3/envs/psi4env/share/psi4/basis/aug-cc-pvqz-jkfit.gbs 
    atoms 3-5 entry H          line    70 file /home/liuchw/anaconda3/envs/psi4env/share/psi4/basis/aug-cc-pvqz-jkfit.gbs 

  ==> Pre-Iterations <==

   -------------------------------------------------------
    Irrep   Nso     Nmo     Nalpha   Nbeta   Ndocc  Nsocc
   -------------------------------------------------------
     A        311     311       0       0       0       0
   -------------------------------------------------------
    Total     311     311      22      22      22       0
   -------------------------------------------------------

  ==> Integral Setup <==

  DFHelper Memory: AOs need 0.494 GiB; user supplied 13.970 GiB. Using in-core AOs.

  ==> MemDFJK: Density-Fitted J/K Matrices <==

    J tasked:                   Yes
    K tasked:                   Yes
    wK tasked:                   No
    OpenMP threads:               8
    Memory [MiB]:             14305
    Algorithm:                 Core
    Schwarz Cutoff:           1E-12
    Mask sparsity (%):       0.0289
    Fitting Condition:        1E-10

   => Auxiliary Basis Set <=

  Basis Set: (AUG-CC-PVQZ AUX)
    Blend: AUG-CC-PVQZ-JKFIT
    Number of shells: 148
    Number of basis function: 640
    Number of Cartesian functions: 872
    Spherical Harmonics?: true
    Max angular momentum: 5

  Minimum eigenvalue in the overlap matrix is 1.6681737289E-05.
  Using Symmetric Orthogonalization.

  SCF Guess: Superposition of Atomic Densities via on-the-fly atomic UHF.

  ==> Iterations <==

                           Total Energy        Delta E     RMS |[F,P]|

   @DF-RHF iter SAD: -2609.97749348880507   -2.60998e+03   0.00000e+00 
   @DF-RHF iter   1: -2611.88316218575255   -1.90567e+00   3.90032e-03 DIIS
   @DF-RHF iter   2: -2612.04769453891231   -1.64532e-01   2.06704e-03 DIIS
   @DF-RHF iter   3: -2612.09730842421277   -4.96139e-02   8.69561e-05 DIIS
   @DF-RHF iter   4: -2612.09800939575098   -7.00972e-04   2.73761e-05 DIIS
   @DF-RHF iter   5: -2612.09807962707646   -7.02313e-05   9.31619e-06 DIIS
   @DF-RHF iter   6: -2612.09808590072271   -6.27365e-06   2.16540e-06 DIIS
   @DF-RHF iter   7: -2612.09808628433075   -3.83608e-07   5.00517e-07 DIIS
   @DF-RHF iter   8: -2612.09808632063869   -3.63079e-08   1.57496e-07 DIIS
   @DF-RHF iter   9: -2612.09808632513841   -4.49973e-09   3.12141e-08 DIIS
   @DF-RHF iter  10: -2612.09808632528620   -1.47793e-10   4.46751e-09 DIIS
  Energy and wave function converged.


  ==> Post-Iterations <==

    Orbital Energies [Eh]
    ---------------------

    Doubly Occupied:                                                      

       1A   -490.012288     2A    -65.152733     3A    -58.508139  
       4A    -58.506741     5A    -58.506740     6A    -11.286038  
       7A     -9.826015     8A     -7.437500     9A     -7.431026  
      10A     -7.431025    11A     -3.181066    12A     -3.177650  
      13A     -3.177650    14A     -3.169267    15A     -3.169267  
      16A     -1.063757    17A     -0.896943    18A     -0.613552  
      19A     -0.613006    20A     -0.507596    21A     -0.401767  
      22A     -0.401710  

    Virtual:                                                              

      23A      0.024716    24A      0.041704    25A      0.041748  
      26A      0.049887    27A      0.085538    28A      0.095197  
      29A      0.095208    30A      0.108549    31A      0.108683  
      32A      0.114501    33A      0.154021    34A      0.169882  
      35A      0.169889    36A      0.191337    37A      0.230508  
      38A      0.230607    39A      0.235739    40A      0.256913  
      41A      0.256939    42A      0.267217    43A      0.272216  
      44A      0.273786    45A      0.273942    46A      0.310677  
      47A      0.319689    48A      0.319718    49A      0.332435  
      50A      0.349049    51A      0.351131    52A      0.351150  
      53A      0.363330    54A      0.363349    55A      0.391904  
      56A      0.392160    57A      0.412308    58A      0.412590  
      59A      0.422633    60A      0.509713    61A      0.509781  
      62A      0.526548    63A      0.573666    64A      0.573703  
      65A      0.590073    66A      0.591370    67A      0.591383  
      68A      0.656950    69A      0.672522    70A      0.680304  
      71A      0.693544    72A      0.693713    73A      0.708308  
      74A      0.708545    75A      0.710815    76A      0.728272  
      77A      0.742606    78A      0.742683    79A      0.749425  
      80A      0.790633    81A      0.790658    82A      0.793497  
      83A      0.834864    84A      0.835384    85A      0.850304  
      86A      0.887910    87A      0.888014    88A      0.893909  
      89A      0.894185    90A      0.930732    91A      0.930859  
      92A      0.935653    93A      0.941729    94A      1.021148  
      95A      1.063459    96A      1.063498    97A      1.078627  
      98A      1.091904    99A      1.092252   100A      1.132997  
     101A      1.145379   102A      1.145616   103A      1.152382  
     104A      1.194542   105A      1.232118   106A      1.232425  
     107A      1.355719   108A      1.355834   109A      1.365110  
     110A      1.394565   111A      1.394949   112A      1.464143  
     113A      1.494443   114A      1.494642   115A      1.497567  
     116A      1.497583   117A      1.501073   118A      1.552771  
     119A      1.552799   120A      1.555653   121A      1.575209  
     122A      1.575363   123A      1.616859   124A      1.642604  
     125A      1.669197   126A      1.669989   127A      1.708741  
     128A      1.720329   129A      1.720512   130A      1.744349  
     131A      1.800815   132A      1.801359   133A      1.810710  
     134A      1.826978   135A      1.887896   136A      1.888298  
     137A      1.907548   138A      1.909056   139A      1.909767  
     140A      1.936853   141A      1.937683   142A      1.972164  
     143A      1.972663   144A      1.985018   145A      2.003548  
     146A      2.003867   147A      2.049824   148A      2.050372  
     149A      2.055386   150A      2.084139   151A      2.087331  
     152A      2.129228   153A      2.140484   154A      2.167928  
     155A      2.168096   156A      2.246150   157A      2.266429  
     158A      2.266999   159A      2.288929   160A      2.289436  
     161A      2.304607   162A      2.312954   163A      2.312955  
     164A      2.411932   165A      2.513486   166A      2.542680  
     167A      2.543768   168A      2.583749   169A      2.670693  
     170A      2.671105   171A      2.696216   172A      2.769734  
     173A      2.787193   174A      2.787473   175A      2.835495  
     176A      2.835594   177A      2.883030   178A      2.930348  
     179A      2.930425   180A      3.006183   181A      3.026958  
     182A      3.027815   183A      3.063520   184A      3.064123  
     185A      3.107501   186A      3.239634   187A      3.239724  
     188A      3.248982   189A      3.431383   190A      3.443359  
     191A      3.455704   192A      3.456361   193A      3.498075  
     194A      3.539441   195A      3.540045   196A      3.545296  
     197A      3.576365   198A      3.665087   199A      3.665456  
     200A      3.694454   201A      3.694571   202A      3.701294  
     203A      3.710792   204A      3.710813   205A      3.735512  
     206A      3.840810   207A      3.840961   208A      3.855135  
     209A      3.855257   210A      3.865249   211A      3.877344  
     212A      3.878324   213A      3.992577   214A      3.995833  
     215A      4.027671   216A      4.027758   217A      4.069818  
     218A      4.069981   219A      4.082442   220A      4.160838  
     221A      4.161984   222A      4.246080   223A      4.265273  
     224A      4.265315   225A      4.390321   226A      4.390513  
     227A      4.537755   228A      4.538539   229A      4.589198  
     230A      4.681236   231A      4.686189   232A      4.687270  
     233A      4.871198   234A      4.931562   235A      4.978054  
     236A      4.979291   237A      5.341628   238A      6.101206  
     239A      6.101852   240A      6.151913   241A      6.182728  
     242A      6.250465   243A      6.251415   244A      6.460046  
     245A      6.469131   246A      6.469474   247A      6.699811  
     248A      6.699982   249A      6.724439   250A      6.789271  
     251A      6.922100   252A      6.922375   253A      6.979065  
     254A      6.980423   255A      7.040217   256A      7.079023  
     257A      7.080733   258A      7.133389   259A      7.133645  
     260A      7.187550   261A      7.385804   262A      7.581498  
     263A      7.581733   264A      7.604152   265A      7.624039  
     266A      7.705035   267A      7.705941   268A      7.838386  
     269A      7.854535   270A      7.860545   271A      7.975934  
     272A      8.271739   273A      8.273507   274A      8.381204  
     275A      8.383880   276A      8.428955   277A      8.583194  
     278A      8.586702   279A      8.683159   280A      8.843651  
     281A      8.844363   282A      9.003951   283A      9.163208  
     284A      9.163618   285A      9.171224   286A      9.224152  
     287A      9.409433   288A      9.412593   289A      9.532582  
     290A      9.533540   291A      9.593436   292A      9.687398  
     293A      9.688747   294A      9.926130   295A      9.981880  
     296A     10.148813   297A     10.151220   298A     10.366682  
     299A     10.367495   300A     10.404676   301A     10.831032  
     302A     10.833509   303A     10.856977   304A     10.912241  
     305A     10.912311   306A     11.508163   307A     13.170056  
     308A     13.179795   309A     13.180733   310A     14.769090  
     311A     28.296309  

    Final Occupation by Irrep:
              A 
    DOCC [    22 ]

  @DF-RHF Final Energy: -2612.09808632528620

   => Energetics <=

    Nuclear Repulsion Energy =             89.6704328700018323
    One-Electron Energy =               -3814.5940964347637419
    Two-Electron Energy =                1112.8255772394763881
    Total Energy =                      -2612.0980863252857489

Computation Completed


Properties will be evaluated at   0.000000,   0.000000,   0.000000 [a0]

Properties computed using the SCF density matrix

  Nuclear Dipole Moment: [e a0]
     X:  -306.7453      Y:    34.9075      Z:     0.0007

  Electronic Dipole Moment: [e a0]
     X:   306.8982      Y:   -35.7288      Z:    -0.0007

  Dipole Moment: [e a0]
     X:     0.1529      Y:    -0.8213      Z:    -0.0000     Total:     0.8354

  Dipole Moment: [D]
     X:     0.3887      Y:    -2.0876      Z:    -0.0000     Total:     2.1235


*** tstop() called on node86.bme.utexas.edu at Thu Apr 23 11:57:18 2020
Module time:
	user time   =      30.02 seconds =       0.50 minutes
	system time =       0.90 seconds =       0.02 minutes
	total time  =          5 seconds =       0.08 minutes
Total time:
	user time   =      52.31 seconds =       0.87 minutes
	system time =       1.64 seconds =       0.03 minutes
	total time  =          9 seconds =       0.15 minutes

*** tstart() called on node86.bme.utexas.edu
*** at Thu Apr 23 11:57:18 2020


  //>>>>>>>>>>>>>>>>>>>>>>>>>>>>>>>>>>>//
  //               DFMP2               //
  //<<<<<<<<<<<<<<<<<<<<<<<<<<<<<<<<<<<//

   => Loading Basis Set <=

    Name: (AUG-CC-PVQZ AUX)
    Role: RIFIT
    Keyword: DF_BASIS_MP2
    atoms 1   entry BR         line  1518 file /home/liuchw/anaconda3/envs/psi4env/share/psi4/basis/aug-cc-pvqz-ri.gbs 
    atoms 2   entry C          line   184 file /home/liuchw/anaconda3/envs/psi4env/share/psi4/basis/aug-cc-pvqz-ri.gbs 
    atoms 3-5 entry H          line    30 file /home/liuchw/anaconda3/envs/psi4env/share/psi4/basis/aug-cc-pvqz-ri.gbs 

	 --------------------------------------------------------
	                          DF-MP2                         
	      2nd-Order Density-Fitted Moller-Plesset Theory     
	              RMP2 Wavefunction,   8 Threads             
	                                                         
	        Rob Parrish, Justin Turney, Andy Simmonett,      
	           Ed Hohenstein, and C. David Sherrill          
	 --------------------------------------------------------

   => Auxiliary Basis Set <=

  Basis Set: (AUG-CC-PVQZ AUX)
    Blend: AUG-CC-PVQZ-RI
    Number of shells: 148
    Number of basis function: 670
    Number of Cartesian functions: 939
    Spherical Harmonics?: true
    Max angular momentum: 6

	 --------------------------------------------------------
	                 NBF =   311, NAUX =   670
	 --------------------------------------------------------
	   CLASS    FOCC     OCC    AOCC    AVIR     VIR    FVIR
	   PAIRS       0      22      22     289     289       0
	 --------------------------------------------------------

	-----------------------------------------------------------
	 ==================> DF-MP2 Energies <==================== 
	-----------------------------------------------------------
	 Reference Energy          =   -2612.0980863252862036 [Eh]
	 Singles Energy            =      -0.0000000000000000 [Eh]
	 Same-Spin Energy          =      -0.1612222187119970 [Eh]
	 Opposite-Spin Energy      =      -0.4538164263707035 [Eh]
	 Correlation Energy        =      -0.6150386450827006 [Eh]
	 Total Energy              =   -2612.7131249703688809 [Eh]
	-----------------------------------------------------------
	 ================> DF-SCS-MP2 Energies <================== 
	-----------------------------------------------------------
	 SCS Same-Spin Scale       =       0.3333333333333333 [-]
	 SCS Opposite-Spin Scale   =       1.2000000000000000 [-]
	 SCS Same-Spin Energy      =      -0.0537407395706657 [Eh]
	 SCS Opposite-Spin Energy  =      -0.5445797116448442 [Eh]
	 SCS Correlation Energy    =      -0.5983204512155099 [Eh]
	 SCS Total Energy          =   -2612.6964067765015898 [Eh]
	-----------------------------------------------------------


*** tstop() called on node86.bme.utexas.edu at Thu Apr 23 11:57:21 2020
Module time:
	user time   =      12.68 seconds =       0.21 minutes
	system time =       0.43 seconds =       0.01 minutes
	total time  =          3 seconds =       0.05 minutes
Total time:
	user time   =      65.00 seconds =       1.08 minutes
	system time =       2.07 seconds =       0.03 minutes
	total time  =         12 seconds =       0.20 minutes

  //>>>>>>>>>>>>>>>>>>>>>>>>>>>>>>>>>>>//
  //  CBS Results: mp2/aug-cc-pv[tq]z  //
  //<<<<<<<<<<<<<<<<<<<<<<<<<<<<<<<<<<<//


   ==> HF <==

   HI-zeta (4) Energy:               -2612.098086325286


   ==> Helgaker 2-point correlated extrapolation for method: MP2 <==

   LO-zeta (3) Energy:               -2612.584087562896
   HI-zeta (4) Energy:               -2612.713124970369
   Alpha (exponent) Value:             3.000000000000
   Extrapolated Energy:              -2612.807287402849

   @Extrapolated MP2/(T,Q):          -2612.807287402849



   ==> Helgaker 2-point correlated extrapolation for method: HF <==

   LO-zeta (3) Energy:               -2612.092924906044
   HI-zeta (4) Energy:               -2612.098086325286
   Alpha (exponent) Value:             3.000000000000
   Extrapolated Energy:              -2612.101852766354

   @Extrapolated HF/(T,Q):           -2612.101852766354


   ==> Components <==

  ---------------------------------------------------------------------------------------------------------
                          Method / Basis                      Rqd      Energy [Eh]   Variable
  ---------------------------------------------------------------------------------------------------------
                              hf / aug-cc-pvtz                  *   -2612.09292491   HF TOTAL ENERGY
                             mp2 / aug-cc-pvtz                  *   -2612.58408756   MP2 TOTAL ENERGY
                              hf / aug-cc-pvqz                  *   -2612.09808633   HF TOTAL ENERGY
                             mp2 / aug-cc-pvqz                  *   -2612.71312497   MP2 TOTAL ENERGY
  ---------------------------------------------------------------------------------------------------------

   ==> Stages <==

  ---------------------------------------------------------------------------------------------------------
      Stage               Method / Basis                       Wt      Energy [Eh]   Scheme
  ---------------------------------------------------------------------------------------------------------
        scf                   hf / aug-cc-pvqz                  1   -2612.09808633   xtpl_highest_1
       corl                  mp2 / aug-cc-pv[tq]z               1   -2612.80728740   corl_xtpl_helgaker_2
       corl                   hf / aug-cc-pv[tq]z              -1   -2612.10185277   corl_xtpl_helgaker_2
  ---------------------------------------------------------------------------------------------------------

   ==> CBS <==

  ---------------------------------------------------------------------------------------------------------
      Stage               Method / Basis                               Energy [Eh]   Scheme
  ---------------------------------------------------------------------------------------------------------
        scf                   hf / aug-cc-pvqz                      -2612.09808633   xtpl_highest_1
       corl                  mp2 / aug-cc-pv[tq]z                      -0.70543464   corl_xtpl_helgaker_2
      total                  CBS                                    -2612.80352096   
  ---------------------------------------------------------------------------------------------------------
   => Loading Basis Set <=

    Name: DEF2-SVP
    Role: ORBITAL
    Keyword: BASIS
    atoms 1   entry BR         line  1084 file /home/liuchw/anaconda3/envs/psi4env/share/psi4/basis/def2-svp.gbs 
    atoms 2   entry C          line    90 file /home/liuchw/anaconda3/envs/psi4env/share/psi4/basis/def2-svp.gbs 
    atoms 3-5 entry H          line    15 file /home/liuchw/anaconda3/envs/psi4env/share/psi4/basis/def2-svp.gbs 


       N-Body: Complex Energy (fragments = (2,), basis = (2,): -2612.80352096178103)

       N-Body: Computing complex (2/4) with fragments (2,) in the basis of fragments (1, 2).


Scratch directory: /scratch/liuchw/

  //>>>>>>>>>>>>>>>>>>>>>>>>>>>>>>>>>>>//
  //   CBS Setup: mp2/aug-cc-pv[tq]z   //
  //<<<<<<<<<<<<<<<<<<<<<<<<<<<<<<<<<<<//

    Naive listing of computations required.
             hf / aug-cc-pvqz              for  HF TOTAL ENERGY
            mp2 / aug-cc-pvtz              for  MP2 TOTAL ENERGY
            mp2 / aug-cc-pvqz              for  MP2 TOTAL ENERGY
             hf / aug-cc-pvtz              for  HF TOTAL ENERGY
             hf / aug-cc-pvqz              for  HF TOTAL ENERGY

    Enlightened listing of computations required.
            mp2 / aug-cc-pvtz              for  MP2 TOTAL ENERGY
            mp2 / aug-cc-pvqz              for  MP2 TOTAL ENERGY

    Full listing of computations to be obtained (required and bonus).
             hf / aug-cc-pvtz              for  HF TOTAL ENERGY
            mp2 / aug-cc-pvtz              for  MP2 TOTAL ENERGY
             hf / aug-cc-pvqz              for  HF TOTAL ENERGY
            mp2 / aug-cc-pvqz              for  MP2 TOTAL ENERGY

  //>>>>>>>>>>>>>>>>>>>>>>>>>>>>>>>>>>>>//
  // CBS Computation: MP2 / AUG-CC-PVTZ //
  //<<<<<<<<<<<<<<<<<<<<<<<<<<<<<<<<<<<<//


Scratch directory: /scratch/liuchw/

*** tstart() called on node86.bme.utexas.edu
*** at Thu Apr 23 11:57:22 2020

   => Loading Basis Set <=

    Name: AUG-CC-PVTZ
    Role: ORBITAL
    Keyword: BASIS
    atoms 1, 6      entry BR         line  4208 file /home/liuchw/anaconda3/envs/psi4env/share/psi4/basis/aug-cc-pvtz.gbs 
    atoms 2, 7      entry C          line   239 file /home/liuchw/anaconda3/envs/psi4env/share/psi4/basis/aug-cc-pvtz.gbs 
    atoms 3-5, 8-10 entry H          line    40 file /home/liuchw/anaconda3/envs/psi4env/share/psi4/basis/aug-cc-pvtz.gbs 


         ---------------------------------------------------------
                                   SCF
               by Justin Turney, Rob Parrish, Andy Simmonett
                          and Daniel G. A. Smith
                              RHF Reference
                        8 Threads,  19073 MiB Core
         ---------------------------------------------------------

  ==> Geometry <==

    Molecular point group: c1
    Full point group: C1

    Geometry (in Angstrom), charge = 0, multiplicity = 1:

       Center              X                  Y                   Z               Mass       
    ------------   -----------------  -----------------  -----------------  -----------------
      Gh(BR)          3.765725741373    -0.829901479691    -0.000003442149    78.918337600000
      Gh(C)           3.411355741373     1.065698520309    -0.000043442149    12.000000000000
      Gh(H)           2.337465741373     1.204078520309    -0.000013442149     1.007825032230
      Gh(H)           3.857995741373     1.487938520309    -0.891453442149     1.007825032230
      Gh(H)           3.858055741373     1.487978520309     0.891326557851     1.007825032230
         BR          -3.765684258627     0.829908520309     0.000016557851    78.918337600000
         C           -3.411564258627    -1.065731479691    -0.000023442149    12.000000000000
         H           -3.858394258627    -1.487931479691    -0.891363442149     1.007825032230
         H           -3.858194258627    -1.487931479691     0.891416557851     1.007825032230
         H           -2.337694258627    -1.204291479691    -0.000143442149     1.007825032230

  Running in c1 symmetry.

  Rotational constants: A =      0.17923  B =      0.00636  C =      0.00616 [cm^-1]
  Rotational constants: A =   5373.24409  B =    190.80196  C =    184.69037 [MHz]
  Nuclear repulsion =   89.670432870001832

  Charge       = 0
  Multiplicity = 1
  Electrons    = 44
  Nalpha       = 22
  Nbeta        = 22

  ==> Algorithm <==

  SCF Algorithm Type is DF.
  DIIS enabled.
  MOM disabled.
  Fractional occupation disabled.
  Guess Type is SAD.
  Energy threshold   = 1.00e-07
  Density threshold  = 1.00e-08
  Integral threshold = 0.00e+00

  ==> Primary Basis <==

  Basis Set: AUG-CC-PVTZ
    Blend: AUG-CC-PVTZ
    Number of shells: 120
    Number of basis function: 348
    Number of Cartesian functions: 398
    Spherical Harmonics?: true
    Max angular momentum: 3

   => Loading Basis Set <=

    Name: (AUG-CC-PVTZ AUX)
    Role: JKFIT
    Keyword: DF_BASIS_SCF
    atoms 1, 6      entry BR         line  1492 file /home/liuchw/anaconda3/envs/psi4env/share/psi4/basis/aug-cc-pvtz-jkfit.gbs 
    atoms 2, 7      entry C          line   162 file /home/liuchw/anaconda3/envs/psi4env/share/psi4/basis/aug-cc-pvtz-jkfit.gbs 
    atoms 3-5, 8-10 entry H          line    70 file /home/liuchw/anaconda3/envs/psi4env/share/psi4/basis/aug-cc-pvtz-jkfit.gbs 

  ==> Pre-Iterations <==

   -------------------------------------------------------
    Irrep   Nso     Nmo     Nalpha   Nbeta   Ndocc  Nsocc
   -------------------------------------------------------
     A        348     348       0       0       0       0
   -------------------------------------------------------
    Total     348     348      22      22      22       0
   -------------------------------------------------------

  ==> Integral Setup <==

  DFHelper Memory: AOs need 0.726 GiB; user supplied 13.970 GiB. Using in-core AOs.

  ==> MemDFJK: Density-Fitted J/K Matrices <==

    J tasked:                   Yes
    K tasked:                   Yes
    wK tasked:                   No
    OpenMP threads:               8
    Memory [MiB]:             14305
    Algorithm:                 Core
    Schwarz Cutoff:           1E-12
    Mask sparsity (%):      22.2734
    Fitting Condition:        1E-10

   => Auxiliary Basis Set <=

  Basis Set: (AUG-CC-PVTZ AUX)
    Blend: AUG-CC-PVTZ-JKFIT
    Number of shells: 260
    Number of basis function: 980
    Number of Cartesian functions: 1250
    Spherical Harmonics?: true
    Max angular momentum: 4

  Minimum eigenvalue in the overlap matrix is 7.5543077269E-05.
  Using Symmetric Orthogonalization.

  SCF Guess: Superposition of Atomic Densities via on-the-fly atomic UHF.

  ==> Iterations <==

                           Total Energy        Delta E     RMS |[F,P]|

   @DF-RHF iter SAD: -2609.99263989862447   -2.60999e+03   0.00000e+00 
   @DF-RHF iter   1: -2611.91670933104797   -1.92407e+00   2.73540e-03 DIIS
   @DF-RHF iter   2: -2612.06226134866074   -1.45552e-01   1.23577e-03 DIIS
   @DF-RHF iter   3: -2612.09222947830631   -2.99681e-02   7.18409e-05 DIIS
   @DF-RHF iter   4: -2612.09286881101389   -6.39333e-04   2.12208e-05 DIIS
   @DF-RHF iter   5: -2612.09292317650443   -5.43655e-05   6.61199e-06 DIIS
   @DF-RHF iter   6: -2612.09292732925906   -4.15275e-06   1.64371e-06 DIIS
   @DF-RHF iter   7: -2612.09292761977304   -2.90514e-07   3.75235e-07 DIIS
   @DF-RHF iter   8: -2612.09292764877728   -2.90042e-08   1.15696e-07 DIIS
   @DF-RHF iter   9: -2612.09292765191003   -3.13275e-09   1.78231e-08 DIIS
   @DF-RHF iter  10: -2612.09292765197051   -6.04814e-11   1.88192e-09 DIIS
  Energy and wave function converged.


  ==> Post-Iterations <==

    Orbital Energies [Eh]
    ---------------------

    Doubly Occupied:                                                      

       1A   -490.013257     2A    -65.153255     3A    -58.508537  
       4A    -58.507167     5A    -58.507167     6A    -11.287325  
       7A     -9.826232     8A     -7.437798     9A     -7.431105  
      10A     -7.431105    11A     -3.181379    12A     -3.177901  
      13A     -3.177900    14A     -3.169339    15A     -3.169339  
      16A     -1.064086    17A     -0.897083    18A     -0.613538  
      19A     -0.612992    20A     -0.507688    21A     -0.401718  
      22A     -0.401660  

    Virtual:                                                              

      23A      0.020587    24A      0.030715    25A      0.043839  
      26A      0.046147    27A      0.048982    28A      0.051560  
      29A      0.060378    30A      0.078853    31A      0.095117  
      32A      0.096340    33A      0.101559    34A      0.102865  
      35A      0.114112    36A      0.115201    37A      0.119528  
      38A      0.129387    39A      0.134441    40A      0.135326  
      41A      0.144694    42A      0.149677    43A      0.160533  
      44A      0.183215    45A      0.189799    46A      0.198516  
      47A      0.214092    48A      0.227699    49A      0.228027  
      50A      0.261166    51A      0.263189    52A      0.269171  
      53A      0.289851    54A      0.293475    55A      0.297112  
      56A      0.299964    57A      0.302860    58A      0.308915  
      59A      0.311437    60A      0.317177    61A      0.334775  
      62A      0.337699    63A      0.338782    64A      0.343699  
      65A      0.345865    66A      0.348681    67A      0.352848  
      68A      0.363440    69A      0.364003    70A      0.368598  
      71A      0.370417    72A      0.393715    73A      0.399407  
      74A      0.403682    75A      0.406494    76A      0.419795  
      77A      0.433686    78A      0.437276    79A      0.438831  
      80A      0.440406    81A      0.445186    82A      0.451018  
      83A      0.451020    84A      0.471054    85A      0.490660  
      86A      0.494077    87A      0.494886    88A      0.514661  
      89A      0.527203    90A      0.533628    91A      0.543902  
      92A      0.576936    93A      0.582114    94A      0.585646  
      95A      0.589010    96A      0.602740    97A      0.616245  
      98A      0.667421    99A      0.669732   100A      0.672679  
     101A      0.688791   102A      0.699749   103A      0.711907  
     104A      0.775412   105A      0.785266   106A      0.791113  
     107A      0.819239   108A      0.829951   109A      0.867722  
     110A      0.869095   111A      0.874955   112A      0.919202  
     113A      0.929137   114A      0.933823   115A      0.934764  
     116A      0.937483   117A      0.943258   118A      0.956042  
     119A      0.960379   120A      0.960624   121A      0.977217  
     122A      0.978230   123A      0.992990   124A      0.993736  
     125A      0.995149   126A      1.001605   127A      1.018204  
     128A      1.034099   129A      1.038833   130A      1.045212  
     131A      1.056656   132A      1.059643   133A      1.060125  
     134A      1.064322   135A      1.073675   136A      1.079832  
     137A      1.087329   138A      1.087743   139A      1.109471  
     140A      1.111244   141A      1.113898   142A      1.118652  
     143A      1.132716   144A      1.139040   145A      1.144247  
     146A      1.153178   147A      1.168433   148A      1.173187  
     149A      1.174381   150A      1.186226   151A      1.204389  
     152A      1.210456   153A      1.211359   154A      1.223582  
     155A      1.225167   156A      1.230807   157A      1.255780  
     158A      1.256110   159A      1.278649   160A      1.281118  
     161A      1.299469   162A      1.331190   163A      1.335116  
     164A      1.353068   165A      1.363993   166A      1.370472  
     167A      1.373873   168A      1.408346   169A      1.422613  
     170A      1.425939   171A      1.439584   172A      1.448665  
     173A      1.481419   174A      1.547386   175A      1.556417  
     176A      1.581502   177A      1.588465   178A      1.614533  
     179A      1.630218   180A      1.631073   181A      1.660184  
     182A      1.716461   183A      1.718981   184A      1.722180  
     185A      1.724328   186A      1.728322   187A      1.760013  
     188A      1.823297   189A      1.860283   190A      1.861486  
     191A      1.887182   192A      1.898297   193A      1.900448  
     194A      1.902940   195A      1.915833   196A      1.938959  
     197A      1.972865   198A      2.007727   199A      2.023815  
     200A      2.052308   201A      2.055824   202A      2.067357  
     203A      2.099926   204A      2.159306   205A      2.160585  
     206A      2.236698   207A      2.240065   208A      2.254767  
     209A      2.260316   210A      2.272693   211A      2.293077  
     212A      2.344216   213A      2.345972   214A      2.346300  
     215A      2.351317   216A      2.415697   217A      2.417806  
     218A      2.427109   219A      2.429332   220A      2.430804  
     221A      2.476001   222A      2.534743   223A      2.535962  
     224A      2.609515   225A      2.611337   226A      2.644962  
     227A      2.693641   228A      2.710584   229A      2.809596  
     230A      2.904610   231A      2.971568   232A      2.978868  
     233A      3.010161   234A      3.138772   235A      3.149302  
     236A      3.247922   237A      3.248269   238A      3.251213  
     239A      3.288856   240A      3.312589   241A      3.316967  
     242A      3.329296   243A      3.333566   244A      3.432126  
     245A      3.434414   246A      3.478374   247A      3.479347  
     248A      3.485797   249A      3.485973   250A      3.506613  
     251A      3.558569   252A      3.577712   253A      3.581891  
     254A      3.667554   255A      3.698971   256A      3.727862  
     257A      3.731125   258A      3.913018   259A      3.916868  
     260A      3.934286   261A      3.943662   262A      4.023371  
     263A      4.053186   264A      4.058330   265A      4.067476  
     266A      4.072346   267A      4.082004   268A      4.082144  
     269A      4.121012   270A      4.121613   271A      4.123828  
     272A      4.128002   273A      4.211716   274A      4.394051  
     275A      4.401026   276A      4.404916   277A      4.441820  
     278A      4.443070   279A      4.447121   280A      4.468701  
     281A      4.469734   282A      4.483467   283A      4.610827  
     284A      4.614059   285A      4.738268   286A      4.745749  
     287A      4.748807   288A      4.786016   289A      4.839740  
     290A      4.857960   291A      4.862578   292A      4.865603  
     293A      4.896126   294A      4.898956   295A      4.931029  
     296A      4.932412   297A      5.047378   298A      5.148842  
     299A      5.151478   300A      5.226979   301A      5.229343  
     302A      5.291012   303A      5.294507   304A      5.297757  
     305A      5.366432   306A      5.481060   307A      5.482658  
     308A      5.486813   309A      5.488994   310A      5.589770  
     311A      5.619024   312A      5.624681   313A      5.681976  
     314A      5.698384   315A      6.018874   316A      6.026077  
     317A      6.048175   318A      6.115933   319A      6.140888  
     320A      6.145184   321A      6.291468   322A      6.582354  
     323A      6.583975   324A      6.587535   325A      6.597801  
     326A      7.171592   327A      7.472473   328A      7.741088  
     329A      7.741874   330A      8.141393   331A      8.142263  
     332A     10.280810   333A     10.603186   334A     13.613709  
     335A     13.618939   336A     14.351109   337A     17.005911  
     338A     26.175046   339A     26.178657   340A     26.334154  
     341A     26.335844   342A     26.582112   343A     46.197078  
     344A     51.446312   345A    138.653215   346A    138.661236  
     347A    139.816503   348A    710.821029  

    Final Occupation by Irrep:
              A 
    DOCC [    22 ]

  @DF-RHF Final Energy: -2612.09292765197051

   => Energetics <=

    Nuclear Repulsion Energy =             89.6704328700018323
    One-Electron Energy =               -3814.5715777032269216
    Two-Electron Energy =                1112.8082171812545766
    Total Energy =                      -2612.0929276519700579

Computation Completed


Properties will be evaluated at   0.000000,   0.000000,   0.000000 [a0]

Properties computed using the SCF density matrix

  Nuclear Dipole Moment: [e a0]
     X:  -306.7453      Y:    34.9075      Z:     0.0007

  Electronic Dipole Moment: [e a0]
     X:   306.8984      Y:   -35.7310      Z:    -0.0007

  Dipole Moment: [e a0]
     X:     0.1531      Y:    -0.8235      Z:    -0.0000     Total:     0.8377

  Dipole Moment: [D]
     X:     0.3892      Y:    -2.0932      Z:    -0.0000     Total:     2.1291


*** tstop() called on node86.bme.utexas.edu at Thu Apr 23 11:57:28 2020
Module time:
	user time   =      38.10 seconds =       0.63 minutes
	system time =       0.98 seconds =       0.02 minutes
	total time  =          6 seconds =       0.10 minutes
Total time:
	user time   =     105.08 seconds =       1.75 minutes
	system time =       3.11 seconds =       0.05 minutes
	total time  =         19 seconds =       0.32 minutes

*** tstart() called on node86.bme.utexas.edu
*** at Thu Apr 23 11:57:28 2020


  //>>>>>>>>>>>>>>>>>>>>>>>>>>>>>>>>>>>//
  //               DFMP2               //
  //<<<<<<<<<<<<<<<<<<<<<<<<<<<<<<<<<<<//

   => Loading Basis Set <=

    Name: (AUG-CC-PVTZ AUX)
    Role: RIFIT
    Keyword: DF_BASIS_MP2
    atoms 1, 6      entry BR         line  1248 file /home/liuchw/anaconda3/envs/psi4env/share/psi4/basis/aug-cc-pvtz-ri.gbs 
    atoms 2, 7      entry C          line   148 file /home/liuchw/anaconda3/envs/psi4env/share/psi4/basis/aug-cc-pvtz-ri.gbs 
    atoms 3-5, 8-10 entry H          line    30 file /home/liuchw/anaconda3/envs/psi4env/share/psi4/basis/aug-cc-pvtz-ri.gbs 

	 --------------------------------------------------------
	                          DF-MP2                         
	      2nd-Order Density-Fitted Moller-Plesset Theory     
	              RMP2 Wavefunction,   8 Threads             
	                                                         
	        Rob Parrish, Justin Turney, Andy Simmonett,      
	           Ed Hohenstein, and C. David Sherrill          
	 --------------------------------------------------------

   => Auxiliary Basis Set <=

  Basis Set: (AUG-CC-PVTZ AUX)
    Blend: AUG-CC-PVTZ-RI
    Number of shells: 226
    Number of basis function: 870
    Number of Cartesian functions: 1124
    Spherical Harmonics?: true
    Max angular momentum: 5

	 --------------------------------------------------------
	                 NBF =   348, NAUX =   870
	 --------------------------------------------------------
	   CLASS    FOCC     OCC    AOCC    AVIR     VIR    FVIR
	   PAIRS       0      22      22     326     326       0
	 --------------------------------------------------------

	-----------------------------------------------------------
	 ==================> DF-MP2 Energies <==================== 
	-----------------------------------------------------------
	 Reference Energy          =   -2612.0929276519705127 [Eh]
	 Singles Energy            =      -0.0000000000000000 [Eh]
	 Same-Spin Energy          =      -0.1267991895862292 [Eh]
	 Opposite-Spin Energy      =      -0.3644388820706029 [Eh]
	 Correlation Energy        =      -0.4912380716568320 [Eh]
	 Total Energy              =   -2612.5841657236273932 [Eh]
	-----------------------------------------------------------
	 ================> DF-SCS-MP2 Energies <================== 
	-----------------------------------------------------------
	 SCS Same-Spin Scale       =       0.3333333333333333 [-]
	 SCS Opposite-Spin Scale   =       1.2000000000000000 [-]
	 SCS Same-Spin Energy      =      -0.0422663965287430 [Eh]
	 SCS Opposite-Spin Energy  =      -0.4373266584847235 [Eh]
	 SCS Correlation Energy    =      -0.4795930550134665 [Eh]
	 SCS Total Energy          =   -2612.5725207069840508 [Eh]
	-----------------------------------------------------------


*** tstop() called on node86.bme.utexas.edu at Thu Apr 23 11:57:32 2020
Module time:
	user time   =      20.03 seconds =       0.33 minutes
	system time =       0.50 seconds =       0.01 minutes
	total time  =          4 seconds =       0.07 minutes
Total time:
	user time   =     125.11 seconds =       2.09 minutes
	system time =       3.61 seconds =       0.06 minutes
	total time  =         23 seconds =       0.38 minutes

  //>>>>>>>>>>>>>>>>>>>>>>>>>>>>>>>>>>>>//
  // CBS Computation: MP2 / AUG-CC-PVQZ //
  //<<<<<<<<<<<<<<<<<<<<<<<<<<<<<<<<<<<<//


Scratch directory: /scratch/liuchw/

*** tstart() called on node86.bme.utexas.edu
*** at Thu Apr 23 11:57:32 2020

   => Loading Basis Set <=

    Name: AUG-CC-PVQZ
    Role: ORBITAL
    Keyword: BASIS
    atoms 1, 6      entry BR         line  5448 file /home/liuchw/anaconda3/envs/psi4env/share/psi4/basis/aug-cc-pvqz.gbs 
    atoms 2, 7      entry C          line   303 file /home/liuchw/anaconda3/envs/psi4env/share/psi4/basis/aug-cc-pvqz.gbs 
    atoms 3-5, 8-10 entry H          line    40 file /home/liuchw/anaconda3/envs/psi4env/share/psi4/basis/aug-cc-pvqz.gbs 


         ---------------------------------------------------------
                                   SCF
               by Justin Turney, Rob Parrish, Andy Simmonett
                          and Daniel G. A. Smith
                              RHF Reference
                        8 Threads,  19073 MiB Core
         ---------------------------------------------------------

  ==> Geometry <==

    Molecular point group: c1
    Full point group: C1

    Geometry (in Angstrom), charge = 0, multiplicity = 1:

       Center              X                  Y                   Z               Mass       
    ------------   -----------------  -----------------  -----------------  -----------------
      Gh(BR)          3.765725741373    -0.829901479691    -0.000003442149    78.918337600000
      Gh(C)           3.411355741373     1.065698520309    -0.000043442149    12.000000000000
      Gh(H)           2.337465741373     1.204078520309    -0.000013442149     1.007825032230
      Gh(H)           3.857995741373     1.487938520309    -0.891453442149     1.007825032230
      Gh(H)           3.858055741373     1.487978520309     0.891326557851     1.007825032230
         BR          -3.765684258627     0.829908520309     0.000016557851    78.918337600000
         C           -3.411564258627    -1.065731479691    -0.000023442149    12.000000000000
         H           -3.858394258627    -1.487931479691    -0.891363442149     1.007825032230
         H           -3.858194258627    -1.487931479691     0.891416557851     1.007825032230
         H           -2.337694258627    -1.204291479691    -0.000143442149     1.007825032230

  Running in c1 symmetry.

  Rotational constants: A =      0.17923  B =      0.00636  C =      0.00616 [cm^-1]
  Rotational constants: A =   5373.24409  B =    190.80196  C =    184.69037 [MHz]
  Nuclear repulsion =   89.670432870001832

  Charge       = 0
  Multiplicity = 1
  Electrons    = 44
  Nalpha       = 22
  Nbeta        = 22

  ==> Algorithm <==

  SCF Algorithm Type is DF.
  DIIS enabled.
  MOM disabled.
  Fractional occupation disabled.
  Guess Type is SAD.
  Energy threshold   = 1.00e-07
  Density threshold  = 1.00e-08
  Integral threshold = 0.00e+00

  ==> Primary Basis <==

  Basis Set: AUG-CC-PVQZ
    Blend: AUG-CC-PVQZ
    Number of shells: 174
    Number of basis function: 622
    Number of Cartesian functions: 778
    Spherical Harmonics?: true
    Max angular momentum: 4

   => Loading Basis Set <=

    Name: (AUG-CC-PVQZ AUX)
    Role: JKFIT
    Keyword: DF_BASIS_SCF
    atoms 1, 6      entry BR         line  1612 file /home/liuchw/anaconda3/envs/psi4env/share/psi4/basis/aug-cc-pvqz-jkfit.gbs 
    atoms 2, 7      entry C          line   178 file /home/liuchw/anaconda3/envs/psi4env/share/psi4/basis/aug-cc-pvqz-jkfit.gbs 
    atoms 3-5, 8-10 entry H          line    70 file /home/liuchw/anaconda3/envs/psi4env/share/psi4/basis/aug-cc-pvqz-jkfit.gbs 

  ==> Pre-Iterations <==

   -------------------------------------------------------
    Irrep   Nso     Nmo     Nalpha   Nbeta   Ndocc  Nsocc
   -------------------------------------------------------
     A        622     622       0       0       0       0
   -------------------------------------------------------
    Total     622     622      22      22      22       0
   -------------------------------------------------------

  ==> Integral Setup <==

  DFHelper Memory: AOs need 2.818 GiB; user supplied 13.970 GiB. Using in-core AOs.

  ==> MemDFJK: Density-Fitted J/K Matrices <==

    J tasked:                   Yes
    K tasked:                   Yes
    wK tasked:                   No
    OpenMP threads:               8
    Memory [MiB]:             14305
    Algorithm:                 Core
    Schwarz Cutoff:           1E-12
    Mask sparsity (%):      27.1482
    Fitting Condition:        1E-10

   => Auxiliary Basis Set <=

  Basis Set: (AUG-CC-PVQZ AUX)
    Blend: AUG-CC-PVQZ-JKFIT
    Number of shells: 296
    Number of basis function: 1280
    Number of Cartesian functions: 1744
    Spherical Harmonics?: true
    Max angular momentum: 5

  Minimum eigenvalue in the overlap matrix is 1.4972048317E-05.
  Using Symmetric Orthogonalization.

  SCF Guess: Superposition of Atomic Densities via on-the-fly atomic UHF.

  ==> Iterations <==

                           Total Energy        Delta E     RMS |[F,P]|

   @DF-RHF iter SAD: -2609.97749349945479   -2.60998e+03   0.00000e+00 
   @DF-RHF iter   1: -2611.88315065308825   -1.90566e+00   1.95037e-03 DIIS
   @DF-RHF iter   2: -2612.04768742013948   -1.64537e-01   1.03368e-03 DIIS
   @DF-RHF iter   3: -2612.09730924416817   -4.96218e-02   4.34796e-05 DIIS
   @DF-RHF iter   4: -2612.09801023957471   -7.00995e-04   1.36882e-05 DIIS
   @DF-RHF iter   5: -2612.09808047442039   -7.02348e-05   4.65827e-06 DIIS
   @DF-RHF iter   6: -2612.09808674853684   -6.27412e-06   1.08284e-06 DIIS
   @DF-RHF iter   7: -2612.09808713221992   -3.83683e-07   2.50279e-07 DIIS
   @DF-RHF iter   8: -2612.09808716853786   -3.63179e-08   7.87556e-08 DIIS
   @DF-RHF iter   9: -2612.09808717303304   -4.49518e-09   1.56104e-08 DIIS
   @DF-RHF iter  10: -2612.09808717318674   -1.53705e-10   2.23429e-09 DIIS
  Energy and wave function converged.


  ==> Post-Iterations <==

    Orbital Energies [Eh]
    ---------------------

    Doubly Occupied:                                                      

       1A   -490.012287     2A    -65.152731     3A    -58.508137  
       4A    -58.506739     5A    -58.506739     6A    -11.286038  
       7A     -9.826015     8A     -7.437499     9A     -7.431025  
      10A     -7.431024    11A     -3.181066    12A     -3.177650  
      13A     -3.177649    14A     -3.169266    15A     -3.169266  
      16A     -1.063756    17A     -0.896943    18A     -0.613551  
      19A     -0.613005    20A     -0.507596    21A     -0.401767  
      22A     -0.401710  

    Virtual:                                                              

      23A      0.018276    24A      0.027644    25A      0.039226  
      26A      0.040192    27A      0.044452    28A      0.047007  
      29A      0.052977    30A      0.070850    31A      0.080663  
      32A      0.080970    33A      0.088114    34A      0.090410  
      35A      0.094934    36A      0.099427    37A      0.101433  
      38A      0.110473    39A      0.117427    40A      0.118801  
      41A      0.125082    42A      0.130991    43A      0.141491  
      44A      0.152388    45A      0.165038    46A      0.167300  
      47A      0.189466    48A      0.189715    49A      0.194888  
      50A      0.223994    51A      0.228998    52A      0.230389  
      53A      0.236001    54A      0.238256    55A      0.246455  
      56A      0.246532    57A      0.253377    58A      0.255462  
      59A      0.260262    60A      0.260455    61A      0.266490  
      62A      0.270895    63A      0.274814    64A      0.277940  
      65A      0.278272    66A      0.281591    67A      0.282883  
      68A      0.292483    69A      0.295410    70A      0.304828  
      71A      0.305082    72A      0.315878    73A      0.322533  
      74A      0.327236    75A      0.332904    76A      0.338594  
      77A      0.343741    78A      0.346538    79A      0.349715  
      80A      0.353505    81A      0.354594    82A      0.363622  
      83A      0.366649    84A      0.368092    85A      0.384944  
      86A      0.390314    87A      0.397862    88A      0.401624  
      89A      0.406141    90A      0.414339    91A      0.430359  
      92A      0.432784    93A      0.435089    94A      0.446279  
      95A      0.457743    96A      0.460002    97A      0.505071  
      98A      0.510741    99A      0.528229   100A      0.540978  
     101A      0.544340   102A      0.551782   103A      0.564961  
     104A      0.576772   105A      0.589511   106A      0.592997  
     107A      0.603868   108A      0.607042   109A      0.656583  
     110A      0.658389   111A      0.668290   112A      0.674053  
     113A      0.678207   114A      0.681304   115A      0.687570  
     116A      0.689188   117A      0.689760   118A      0.695254  
     119A      0.702898   120A      0.708695   121A      0.710559  
     122A      0.720163   123A      0.724632   124A      0.726977  
     125A      0.734558   126A      0.737420   127A      0.739497  
     128A      0.744818   129A      0.745999   130A      0.755762  
     131A      0.765346   132A      0.769604   133A      0.778715  
     134A      0.786758   135A      0.790300   136A      0.800105  
     137A      0.803552   138A      0.804046   139A      0.825215  
     140A      0.828817   141A      0.832654   142A      0.837562  
     143A      0.838574   144A      0.850928   145A      0.856466  
     146A      0.863178   147A      0.872616   148A      0.873335  
     149A      0.877826   150A      0.884495   151A      0.890238  
     152A      0.896990   153A      0.898839   154A      0.905321  
     155A      0.921112   156A      0.931932   157A      0.933761  
     158A      0.935473   159A      0.941442   160A      0.947756  
     161A      0.953334   162A      0.955995   163A      0.960217  
     164A      0.972862   165A      0.997035   166A      1.002024  
     167A      1.009790   168A      1.013689   169A      1.022845  
     170A      1.064827   171A      1.070714   172A      1.076503  
     173A      1.083039   174A      1.084625   175A      1.096650  
     176A      1.105000   177A      1.117085   178A      1.134506  
     179A      1.147344   180A      1.155566   181A      1.166397  
     182A      1.179228   183A      1.182136   184A      1.185105  
     185A      1.201478   186A      1.233255   187A      1.243258  
     188A      1.292813   189A      1.297174   190A      1.299700  
     191A      1.348167   192A      1.356254   193A      1.367226  
     194A      1.373011   195A      1.379116   196A      1.379692  
     197A      1.395658   198A      1.396129   199A      1.400721  
     200A      1.470782   201A      1.485786   202A      1.498400  
     203A      1.499841   204A      1.501028   205A      1.508803  
     206A      1.516813   207A      1.543182   208A      1.546111  
     209A      1.553611   210A      1.556470   211A      1.565423  
     212A      1.575317   213A      1.589581   214A      1.591231  
     215A      1.598620   216A      1.599571   217A      1.622499  
     218A      1.624619   219A      1.643159   220A      1.643549  
     221A      1.672141   222A      1.678471   223A      1.698284  
     224A      1.709523   225A      1.718561   226A      1.720018  
     227A      1.724700   228A      1.725584   229A      1.744058  
     230A      1.745904   231A      1.783442   232A      1.783856  
     233A      1.788167   234A      1.801492   235A      1.803313  
     236A      1.808602   237A      1.813110   238A      1.821707  
     239A      1.828679   240A      1.835062   241A      1.885137  
     242A      1.888544   243A      1.893220   244A      1.901933  
     245A      1.908117   246A      1.908735   247A      1.909021  
     248A      1.912331   249A      1.918629   250A      1.925240  
     251A      1.928383   252A      1.937439   253A      1.938790  
     254A      1.943344   255A      1.974005   256A      1.974326  
     257A      1.985054   258A      1.996696   259A      2.003199  
     260A      2.005517   261A      2.006815   262A      2.008982  
     263A      2.016527   264A      2.024134   265A      2.024903  
     266A      2.037724   267A      2.052769   268A      2.054424  
     269A      2.058347   270A      2.062005   271A      2.074251  
     272A      2.078706   273A      2.089460   274A      2.090155  
     275A      2.093694   276A      2.103104   277A      2.125820  
     278A      2.131148   279A      2.140866   280A      2.140890  
     281A      2.142502   282A      2.148012   283A      2.149779  
     284A      2.169976   285A      2.183443   286A      2.221302  
     287A      2.233707   288A      2.239639   289A      2.247748  
     290A      2.250384   291A      2.263261   292A      2.268190  
     293A      2.268864   294A      2.271095   295A      2.290917  
     296A      2.295034   297A      2.307748   298A      2.314265  
     299A      2.315668   300A      2.320504   301A      2.372574  
     302A      2.377047   303A      2.383290   304A      2.417835  
     305A      2.450220   306A      2.451373   307A      2.454526  
     308A      2.515744   309A      2.517023   310A      2.520617  
     311A      2.521200   312A      2.544951   313A      2.546630  
     314A      2.584952   315A      2.660200   316A      2.670975  
     317A      2.676526   318A      2.700197   319A      2.726793  
     320A      2.753295   321A      2.754039   322A      2.773864  
     323A      2.788106   324A      2.810053   325A      2.835914  
     326A      2.840633   327A      2.885829   328A      2.888080  
     329A      2.899684   330A      2.902223   331A      2.930699  
     332A      2.932962   333A      3.004817   334A      3.008451  
     335A      3.018340   336A      3.026361   337A      3.028547  
     338A      3.028853   339A      3.032532   340A      3.064130  
     341A      3.072098   342A      3.110786   343A      3.132604  
     344A      3.135941   345A      3.227780   346A      3.239920  
     347A      3.240567   348A      3.241218   349A      3.244333  
     350A      3.254550   351A      3.279892   352A      3.283840  
     353A      3.288122   354A      3.364779   355A      3.367743  
     356A      3.431235   357A      3.433566   358A      3.437502  
     359A      3.450090   360A      3.458347   361A      3.460386  
     362A      3.503200   363A      3.535581   364A      3.539322  
     365A      3.540415   366A      3.542718   367A      3.545562  
     368A      3.549090   369A      3.577751   370A      3.666281  
     371A      3.668685   372A      3.692069   373A      3.696351  
     374A      3.701525   375A      3.704842   376A      3.710992  
     377A      3.714678   378A      3.739150   379A      3.753277  
     380A      3.827707   381A      3.830465   382A      3.840983  
     383A      3.846000   384A      3.856270   385A      3.864951  
     386A      3.866660   387A      3.878022   388A      3.892653  
     389A      3.902984   390A      3.983777   391A      3.988641  
     392A      3.994009   393A      3.999992   394A      4.021306  
     395A      4.028113   396A      4.030592   397A      4.068636  
     398A      4.075340   399A      4.076749   400A      4.077818  
     401A      4.091577   402A      4.162298   403A      4.164272  
     404A      4.201923   405A      4.249858   406A      4.262540  
     407A      4.265962   408A      4.269335   409A      4.294912  
     410A      4.303877   411A      4.307497   412A      4.311960  
     413A      4.380588   414A      4.382349   415A      4.390938  
     416A      4.399725   417A      4.473123   418A      4.540200  
     419A      4.540337   420A      4.551594   421A      4.590134  
     422A      4.635815   423A      4.655659   424A      4.659458  
     425A      4.686990   426A      4.687008   427A      4.689368  
     428A      4.739208   429A      4.742733   430A      4.789944  
     431A      4.825149   432A      4.838397   433A      4.851445  
     434A      4.875933   435A      4.879920   436A      4.888923  
     437A      4.893113   438A      4.902750   439A      4.934695  
     440A      4.978562   441A      4.982364   442A      5.003649  
     443A      5.003668   444A      5.015301   445A      5.081871  
     446A      5.082529   447A      5.185189   448A      5.195119  
     449A      5.265840   450A      5.343404   451A      5.346094  
     452A      5.445545   453A      5.446716   454A      5.620020  
     455A      5.622635   456A      5.632413   457A      5.733237  
     458A      5.735483   459A      5.944701   460A      6.103288  
     461A      6.103787   462A      6.154755   463A      6.184935  
     464A      6.252255   465A      6.253157   466A      6.460347  
     467A      6.469512   468A      6.471335   469A      6.481825  
     470A      6.700045   471A      6.700314   472A      6.706363  
     473A      6.706541   474A      6.724499   475A      6.770548  
     476A      6.790590   477A      6.916934   478A      6.922390  
     479A      6.924867   480A      6.935487   481A      6.936044  
     482A      6.979350   483A      6.982738   484A      6.994973  
     485A      7.026424   486A      7.027590   487A      7.041136  
     488A      7.081754   489A      7.087956   490A      7.133466  
     491A      7.140155   492A      7.189288   493A      7.206902  
     494A      7.206970   495A      7.275502   496A      7.359715  
     497A      7.374230   498A      7.379322   499A      7.394726  
     500A      7.582473   501A      7.583640   502A      7.606811  
     503A      7.624802   504A      7.650769   505A      7.653777  
     506A      7.658326   507A      7.705509   508A      7.713007  
     509A      7.839489   510A      7.850549   511A      7.854176  
     512A      7.854858   513A      7.862477   514A      7.885322  
     515A      7.970105   516A      7.979231   517A      7.979814  
     518A      8.021257   519A      8.078744   520A      8.272512  
     521A      8.276004   522A      8.379049   523A      8.381616  
     524A      8.387642   525A      8.430597   526A      8.484649  
     527A      8.490035   528A      8.498351   529A      8.584716  
     530A      8.592462   531A      8.685819   532A      8.782076  
     533A      8.784875   534A      8.820118   535A      8.826137  
     536A      8.844753   537A      8.845546   538A      9.005204  
     539A      9.024030   540A      9.163497   541A      9.166147  
     542A      9.172917   543A      9.224404   544A      9.270756  
     545A      9.272925   546A      9.413358   547A      9.413499  
     548A      9.455122   549A      9.464854   550A      9.535087  
     551A      9.536770   552A      9.567433   553A      9.596784  
     554A      9.684496   555A      9.689217   556A      9.689487  
     557A      9.689516   558A      9.690438   559A      9.747474  
     560A      9.748966   561A      9.778361   562A      9.853096  
     563A      9.927728   564A      9.985001   565A     10.043415  
     566A     10.043850   567A     10.152323   568A     10.154318  
     569A     10.312880   570A     10.320149   571A     10.322598  
     572A     10.366960   573A     10.368744   574A     10.405471  
     575A     10.449797   576A     10.561018   577A     10.561836  
     578A     10.698168   579A     10.749914   580A     10.756694  
     581A     10.771676   582A     10.832089   583A     10.835750  
     584A     10.865344   585A     10.912571   586A     10.912693  
     587A     11.198310   588A     11.201970   589A     11.303566  
     590A     11.304228   591A     11.510297   592A     12.038583  
     593A     12.040424   594A     12.042496   595A     12.406781  
     596A     13.147199   597A     13.148129   598A     13.176967  
     599A     13.181479   600A     13.185541   601A     13.548120  
     602A     14.570189   603A     14.572909   604A     14.624142  
     605A     14.777025   606A     14.937373   607A     16.376912  
     608A     17.349515   609A     17.356856   610A     20.616634  
     611A     28.303063   612A     30.075733   613A     30.086835  
     614A     30.537608   615A     30.539894   616A     30.971616  
     617A     51.814287   618A     71.200415   619A    139.356144  
     620A    139.358647   621A    139.626863   622A    728.669874  

    Final Occupation by Irrep:
              A 
    DOCC [    22 ]

  @DF-RHF Final Energy: -2612.09808717318674

   => Energetics <=

    Nuclear Repulsion Energy =             89.6704328700018323
    One-Electron Energy =               -3814.5941333088476313
    Two-Electron Energy =                1112.8256132656590580
    Total Energy =                      -2612.0980871731871957

Computation Completed


Properties will be evaluated at   0.000000,   0.000000,   0.000000 [a0]

Properties computed using the SCF density matrix

  Nuclear Dipole Moment: [e a0]
     X:  -306.7453      Y:    34.9075      Z:     0.0007

  Electronic Dipole Moment: [e a0]
     X:   306.8982      Y:   -35.7288      Z:    -0.0007

  Dipole Moment: [e a0]
     X:     0.1529      Y:    -0.8213      Z:    -0.0000     Total:     0.8354

  Dipole Moment: [D]
[...]
     153A      0.742999   154A      0.746537   155A      0.747908  
     156A      0.748300   157A      0.764308   158A      0.784019  
     159A      0.786432   160A      0.791221   161A      0.794528  
     162A      0.796460   163A      0.803888   164A      0.825375  
     165A      0.834707   166A      0.836204   167A      0.837249  
     168A      0.848385   169A      0.852514   170A      0.858718  
     171A      0.883587   172A      0.883930   173A      0.891741  
     174A      0.898261   175A      0.905455   176A      0.906066  
     177A      0.908082   178A      0.921734   179A      0.926179  
     180A      0.930906   181A      0.931132   182A      0.933847  
     183A      0.942242   184A      0.946789   185A      0.947753  
     186A      0.963026   187A      1.020847   188A      1.023056  
     189A      1.057663   190A      1.069500   191A      1.070311  
     192A      1.072562   193A      1.082263   194A      1.089268  
     195A      1.092479   196A      1.096385   197A      1.102723  
     198A      1.107701   199A      1.133228   200A      1.136125  
     201A      1.143212   202A      1.147726   203A      1.153383  
     204A      1.159512   205A      1.161358   206A      1.168501  
     207A      1.194157   208A      1.208356   209A      1.232673  
     210A      1.232913   211A      1.243483   212A      1.243514  
     213A      1.352517   214A      1.355802   215A      1.355938  
     216A      1.358847   217A      1.386751   218A      1.387329  
     219A      1.393410   220A      1.396366   221A      1.397437  
     222A      1.402275   223A      1.467392   224A      1.472923  
     225A      1.491363   226A      1.493179   227A      1.495139  
     228A      1.497501   229A      1.499676   230A      1.502425  
     231A      1.502916   232A      1.508397   233A      1.517526  
     234A      1.523759   235A      1.547701   236A      1.550671  
     237A      1.554678   238A      1.557393   239A      1.559685  
     240A      1.573703   241A      1.574464   242A      1.575978  
     243A      1.591985   244A      1.594700   245A      1.618801  
     246A      1.641767   247A      1.641770   248A      1.643232  
     249A      1.670320   250A      1.673418   251A      1.674582  
     252A      1.683527   253A      1.710998   254A      1.712752  
     255A      1.718830   256A      1.719353   257A      1.723666  
     258A      1.732387   259A      1.743442   260A      1.747467  
     261A      1.794311   262A      1.801171   263A      1.801472  
     264A      1.808934   265A      1.810093   266A      1.825687  
     267A      1.829210   268A      1.840569   269A      1.887727  
     270A      1.888583   271A      1.891183   272A      1.892134  
     273A      1.908447   274A      1.908964   275A      1.909381  
     276A      1.909978   277A      1.911136   278A      1.913574  
     279A      1.936518   280A      1.940425   281A      1.940452  
     282A      1.948700   283A      1.970523   284A      1.973141  
     285A      1.976831   286A      1.979852   287A      1.984943  
     288A      1.985634   289A      2.004694   290A      2.006438  
     291A      2.006988   292A      2.016277   293A      2.043925  
     294A      2.051909   295A      2.053717   296A      2.059059  
     297A      2.062036   298A      2.064608   299A      2.086927  
     300A      2.087364   301A      2.091212   302A      2.091683  
     303A      2.130422   304A      2.131578   305A      2.141158  
     306A      2.145022   307A      2.168631   308A      2.171790  
     309A      2.175558   310A      2.187068   311A      2.248663  
     312A      2.254792   313A      2.263718   314A      2.268904  
     315A      2.271153   316A      2.272118   317A      2.290394  
     318A      2.290939   319A      2.294551   320A      2.295315  
     321A      2.306734   322A      2.307426   323A      2.310841  
     324A      2.314940   325A      2.318105   326A      2.327572  
     327A      2.412534   328A      2.422104   329A      2.514005  
     330A      2.516558   331A      2.542467   332A      2.543143  
     333A      2.546310   334A      2.548673   335A      2.582489  
     336A      2.587095   337A      2.670705   338A      2.670788  
     339A      2.674613   340A      2.675973   341A      2.698714  
     342A      2.701085   343A      2.765582   344A      2.782164  
     345A      2.785233   346A      2.790819   347A      2.806271  
     348A      2.808958   349A      2.834364   350A      2.835789  
     351A      2.836932   352A      2.848342   353A      2.883618  
     354A      2.888890   355A      2.930049   356A      2.930960  
     357A      2.932534   358A      2.933882   359A      3.008204  
     360A      3.009071   361A      3.025304   362A      3.028897  
     363A      3.029955   364A      3.030538   365A      3.061768  
     366A      3.065236   367A      3.067076   368A      3.078431  
     369A      3.104794   370A      3.118864   371A      3.238892  
     372A      3.239941   373A      3.240286   374A      3.240921  
     375A      3.250928   376A      3.256493   377A      3.429640  
     378A      3.431981   379A      3.441555   380A      3.452227  
     381A      3.453947   382A      3.458793   383A      3.460976  
     384A      3.461106   385A      3.499691   386A      3.506297  
     387A      3.537824   388A      3.539389   389A      3.539629  
     390A      3.544141   391A      3.544469   392A      3.545772  
     393A      3.574673   394A      3.579837   395A      3.665211  
     396A      3.665899   397A      3.666250   398A      3.670057  
     399A      3.692646   400A      3.697718   401A      3.698113  
     402A      3.702623   403A      3.703449   404A      3.704155  
     405A      3.709868   406A      3.709988   407A      3.710236  
     408A      3.718215   409A      3.733550   410A      3.745538  
     411A      3.840170   412A      3.840408   413A      3.843516  
     414A      3.846313   415A      3.855048   416A      3.855189  
     417A      3.855908   418A      3.863236   419A      3.868537  
     420A      3.869180   421A      3.875453   422A      3.880167  
     423A      3.888264   424A      3.898079   425A      3.991332  
     426A      3.995386   427A      3.996816   428A      4.002131  
     429A      4.027020   430A      4.028094   431A      4.029310  
     432A      4.030312   433A      4.065113   434A      4.071887  
     435A      4.076005   436A      4.079125   437A      4.086343  
     438A      4.103173   439A      4.161311   440A      4.161911  
     441A      4.162725   442A      4.166249   443A      4.248436  
     444A      4.251208   445A      4.264248   446A      4.266448  
     447A      4.267150   448A      4.275042   449A      4.390471  
     450A      4.390733   451A      4.391578   452A      4.406315  
     453A      4.538285   454A      4.538898   455A      4.541465  
     456A      4.541873   457A      4.588543   458A      4.591711  
     459A      4.682240   460A      4.686093   461A      4.687273  
     462A      4.688995   463A      4.689512   464A      4.692199  
     465A      4.874224   466A      4.877989   467A      4.928440  
     468A      4.941054   469A      4.976340   470A      4.980009  
     471A      4.982036   472A      4.982375   473A      5.341951  
     474A      5.348324   475A      6.099985   476A      6.101370  
     477A      6.105593   478A      6.105674   479A      6.154308  
     480A      6.154619   481A      6.180496   482A      6.188750  
     483A      6.247533   484A      6.252672   485A      6.253103  
     486A      6.257051   487A      6.460011   488A      6.460135  
     489A      6.468800   490A      6.469669   491A      6.470438  
     492A      6.471765   493A      6.699614   494A      6.699759  
     495A      6.699949   496A      6.700688   497A      6.724254  
     498A      6.724495   499A      6.789633   500A      6.790925  
     501A      6.921885   502A      6.921908   503A      6.922847  
     504A      6.927380   505A      6.978862   506A      6.979319  
     507A      6.981971   508A      6.983075   509A      7.040008  
     510A      7.041104   511A      7.078446   512A      7.084549  
     513A      7.087678   514A      7.088233   515A      7.132942  
     516A      7.133369   517A      7.136725   518A      7.143121  
     519A      7.186739   520A      7.191499   521A      7.393881  
     522A      7.394713   523A      7.579143   524A      7.583313  
     525A      7.583465   526A      7.585415   527A      7.602880  
     528A      7.610426   529A      7.623133   530A      7.626501  
     531A      7.704139   532A      7.704666   533A      7.706386  
     534A      7.721170   535A      7.838701   536A      7.840428  
     537A      7.854006   538A      7.855323   539A      7.861425  
     540A      7.863606   541A      7.978222   542A      7.980515  
     543A      8.269794   544A      8.271763   545A      8.274929  
     546A      8.280196   547A      8.381116   548A      8.381835  
     549A      8.384349   550A      8.389473   551A      8.430423  
     552A      8.430582   553A      8.583410   554A      8.585852  
     555A      8.590579   556A      8.594027   557A      8.685284  
     558A      8.685954   559A      8.843358   560A      8.843546  
     561A      8.845390   562A      8.847254   563A      9.002712  
     564A      9.007369   565A      9.162770   566A      9.164064  
     567A      9.165653   568A      9.166308   569A      9.171127  
     570A      9.174427   571A      9.223680   572A      9.224816  
     573A      9.407602   574A      9.412906   575A      9.413233  
     576A      9.419676   577A      9.532865   578A      9.534487  
     579A      9.536060   580A      9.540483   581A      9.596481  
     582A      9.596907   583A      9.687952   584A      9.688203  
     585A      9.689044   586A      9.690030   587A      9.926571  
     588A      9.928500   589A      9.980083   590A      9.989741  
     591A     10.150044   592A     10.153983   593A     10.154287  
     594A     10.154532   595A     10.366324   596A     10.367305  
     597A     10.368164   598A     10.368797   599A     10.405181  
     600A     10.405347   601A     10.828875   602A     10.834613  
     603A     10.835063   604A     10.836093   605A     10.862987  
     606A     10.867299   607A     10.911507   608A     10.912129  
     609A     10.912557   610A     10.913579   611A     11.505949  
     612A     11.514276   613A     13.174554   614A     13.176911  
     615A     13.179257   616A     13.183177   617A     13.184501  
     618A     13.188398   619A     14.775449   620A     14.776396  
     621A     28.296603   622A     28.309033  

    Final Occupation by Irrep:
              A 
    DOCC [    44 ]

  @DF-RHF Final Energy: -5224.19652554776258

   => Energetics <=

    Nuclear Repulsion Energy =            316.0141794569985336
    One-Electron Energy =               -7902.4668037397141234
    Two-Electron Energy =                2362.2560987349534116
    Total Energy =                      -5224.1965255477625760

Computation Completed


Properties will be evaluated at   0.000000,   0.000000,   0.000000 [a0]

Properties computed using the SCF density matrix

  Nuclear Dipole Moment: [e a0]
     X:    -0.0011      Y:    -0.0002      Z:    -0.0003

  Electronic Dipole Moment: [e a0]
     X:     0.0009      Y:     0.0002      Z:     0.0003

  Dipole Moment: [e a0]
     X:    -0.0001      Y:    -0.0000      Z:    -0.0000     Total:     0.0001

  Dipole Moment: [D]
     X:    -0.0003      Y:    -0.0000      Z:    -0.0001     Total:     0.0003


*** tstop() called on node86.bme.utexas.edu at Thu Apr 23 11:59:30 2020
Module time:
	user time   =     125.93 seconds =       2.10 minutes
	system time =       2.58 seconds =       0.04 minutes
	total time  =         20 seconds =       0.33 minutes
Total time:
	user time   =     796.23 seconds =      13.27 minutes
	system time =      19.43 seconds =       0.32 minutes
	total time  =        141 seconds =       2.35 minutes

*** tstart() called on node86.bme.utexas.edu
*** at Thu Apr 23 11:59:30 2020


  //>>>>>>>>>>>>>>>>>>>>>>>>>>>>>>>>>>>//
  //               DFMP2               //
  //<<<<<<<<<<<<<<<<<<<<<<<<<<<<<<<<<<<//

   => Loading Basis Set <=

    Name: (AUG-CC-PVQZ AUX)
    Role: RIFIT
    Keyword: DF_BASIS_MP2
    atoms 1, 6      entry BR         line  1518 file /home/liuchw/anaconda3/envs/psi4env/share/psi4/basis/aug-cc-pvqz-ri.gbs 
    atoms 2, 7      entry C          line   184 file /home/liuchw/anaconda3/envs/psi4env/share/psi4/basis/aug-cc-pvqz-ri.gbs 
    atoms 3-5, 8-10 entry H          line    30 file /home/liuchw/anaconda3/envs/psi4env/share/psi4/basis/aug-cc-pvqz-ri.gbs 

	 --------------------------------------------------------
	                          DF-MP2                         
	      2nd-Order Density-Fitted Moller-Plesset Theory     
	              RMP2 Wavefunction,   8 Threads             
	                                                         
	        Rob Parrish, Justin Turney, Andy Simmonett,      
	           Ed Hohenstein, and C. David Sherrill          
	 --------------------------------------------------------

   => Auxiliary Basis Set <=

  Basis Set: (AUG-CC-PVQZ AUX)
    Blend: AUG-CC-PVQZ-RI
    Number of shells: 296
    Number of basis function: 1340
    Number of Cartesian functions: 1878
    Spherical Harmonics?: true
    Max angular momentum: 6

	 --------------------------------------------------------
	                 NBF =   622, NAUX =  1340
	 --------------------------------------------------------
	   CLASS    FOCC     OCC    AOCC    AVIR     VIR    FVIR
	   PAIRS       0      44      44     578     578       0
	 --------------------------------------------------------

	-----------------------------------------------------------
	 ==================> DF-MP2 Energies <==================== 
	-----------------------------------------------------------
	 Reference Energy          =   -5224.1965255477625760 [Eh]
	 Singles Energy            =      -0.0000000000000000 [Eh]
	 Same-Spin Energy          =      -0.3225202741249862 [Eh]
	 Opposite-Spin Energy      =      -0.9077125121278493 [Eh]
	 Correlation Energy        =      -1.2302327862528355 [Eh]
	 Total Energy              =   -5225.4267583340151759 [Eh]
	-----------------------------------------------------------
	 ================> DF-SCS-MP2 Energies <================== 
	-----------------------------------------------------------
	 SCS Same-Spin Scale       =       0.3333333333333333 [-]
	 SCS Opposite-Spin Scale   =       1.2000000000000000 [-]
	 SCS Same-Spin Energy      =      -0.1075067580416621 [Eh]
	 SCS Opposite-Spin Energy  =      -1.0892550145534192 [Eh]
	 SCS Correlation Energy    =      -1.1967617725950812 [Eh]
	 SCS Total Energy          =   -5225.3932873203575582 [Eh]
	-----------------------------------------------------------


*** tstop() called on node86.bme.utexas.edu at Thu Apr 23 11:59:47 2020
Module time:
	user time   =      99.93 seconds =       1.67 minutes
	system time =       1.81 seconds =       0.03 minutes
	total time  =         17 seconds =       0.28 minutes
Total time:
	user time   =     896.17 seconds =      14.94 minutes
	system time =      21.24 seconds =       0.35 minutes
	total time  =        158 seconds =       2.63 minutes

  //>>>>>>>>>>>>>>>>>>>>>>>>>>>>>>>>>>>//
  //  CBS Results: mp2/aug-cc-pv[tq]z  //
  //<<<<<<<<<<<<<<<<<<<<<<<<<<<<<<<<<<<//


   ==> HF <==

   HI-zeta (4) Energy:               -5224.196525547763


   ==> Helgaker 2-point correlated extrapolation for method: MP2 <==

   LO-zeta (3) Energy:               -5225.168715381817
   HI-zeta (4) Energy:               -5225.426758334015
   Alpha (exponent) Value:             3.000000000000
   Extrapolated Energy:              -5225.615059947781

   @Extrapolated MP2/(T,Q):          -5225.615059947781



   ==> Helgaker 2-point correlated extrapolation for method: HF <==

   LO-zeta (3) Energy:               -5224.186209416250
   HI-zeta (4) Energy:               -5224.196525547763
   Alpha (exponent) Value:             3.000000000000
   Extrapolated Energy:              -5224.204053535624

   @Extrapolated HF/(T,Q):           -5224.204053535624


   ==> Components <==

  ---------------------------------------------------------------------------------------------------------
                          Method / Basis                      Rqd      Energy [Eh]   Variable
  ---------------------------------------------------------------------------------------------------------
                              hf / aug-cc-pvtz                  *   -5224.18620942   HF TOTAL ENERGY
                             mp2 / aug-cc-pvtz                  *   -5225.16871538   MP2 TOTAL ENERGY
                              hf / aug-cc-pvqz                  *   -5224.19652555   HF TOTAL ENERGY
                             mp2 / aug-cc-pvqz                  *   -5225.42675833   MP2 TOTAL ENERGY
  ---------------------------------------------------------------------------------------------------------

   ==> Stages <==

  ---------------------------------------------------------------------------------------------------------
      Stage               Method / Basis                       Wt      Energy [Eh]   Scheme
  ---------------------------------------------------------------------------------------------------------
        scf                   hf / aug-cc-pvqz                  1   -5224.19652555   xtpl_highest_1
       corl                  mp2 / aug-cc-pv[tq]z               1   -5225.61505995   corl_xtpl_helgaker_2
       corl                   hf / aug-cc-pv[tq]z              -1   -5224.20405354   corl_xtpl_helgaker_2
  ---------------------------------------------------------------------------------------------------------

   ==> CBS <==

  ---------------------------------------------------------------------------------------------------------
      Stage               Method / Basis                               Energy [Eh]   Scheme
  ---------------------------------------------------------------------------------------------------------
        scf                   hf / aug-cc-pvqz                      -5224.19652555   xtpl_highest_1
       corl                  mp2 / aug-cc-pv[tq]z                      -1.41100641   corl_xtpl_helgaker_2
      total                  CBS                                    -5225.60753196   
  ---------------------------------------------------------------------------------------------------------
   => Loading Basis Set <=

    Name: DEF2-SVP
    Role: ORBITAL
    Keyword: BASIS
    atoms 1, 6      entry BR         line  1084 file /home/liuchw/anaconda3/envs/psi4env/share/psi4/basis/def2-svp.gbs 
    atoms 2, 7      entry C          line    90 file /home/liuchw/anaconda3/envs/psi4env/share/psi4/basis/def2-svp.gbs 
    atoms 3-5, 8-10 entry H          line    15 file /home/liuchw/anaconda3/envs/psi4env/share/psi4/basis/def2-svp.gbs 


       N-Body: Complex Energy (fragments = (1, 2), basis = (1, 2): -5225.60753195991947)

   ==> N-Body: Counterpoise Corrected (CP) energies <==

   n-Body     Total Energy [Eh]       I.E. [kcal/mol]      Delta [kcal/mol]
        1    -5225.607041857180        0.000000000000        0.000000000000
        2    -5225.607438056749       -0.248618983034       -0.248618983034

   => Loading Basis Set <=

    Name: DEF2-SVP
    Role: ORBITAL
    Keyword: BASIS
    atoms 1, 6      entry BR         line  1084 file /home/liuchw/anaconda3/envs/psi4env/share/psi4/basis/def2-svp.gbs 
    atoms 2, 7      entry C          line    90 file /home/liuchw/anaconda3/envs/psi4env/share/psi4/basis/def2-svp.gbs 
    atoms 3-5, 8-10 entry H          line    15 file /home/liuchw/anaconda3/envs/psi4env/share/psi4/basis/def2-svp.gbs 


    Psi4 stopped on: Thursday, 23 April 2020 11:59AM
    Psi4 wall time for execution: 0:02:39.14

*** Psi4 exiting successfully. Buy a developer a beer!
