
    -----------------------------------------------------------------------
          Psi4: An Open-Source Ab Initio Electronic Structure Package
                               Psi4 1.4a2.dev224 

                         Git: Rev {master} e453b16 


    R. M. Parrish, L. A. Burns, D. G. A. Smith, A. C. Simmonett,
    A. E. DePrince III, E. G. Hohenstein, U. Bozkaya, A. Yu. Sokolov,
    R. Di Remigio, R. M. Richard, J. F. Gonthier, A. M. James,
    H. R. McAlexander, A. Kumar, M. Saitow, X. Wang, B. P. Pritchard,
    P. Verma, H. F. Schaefer III, K. Patkowski, R. A. King, E. F. Valeev,
    F. A. Evangelista, J. M. Turney, T. D. Crawford, and C. D. Sherrill,
    J. Chem. Theory Comput. 13(7) pp 3185--3197 (2017).
    (doi: 10.1021/acs.jctc.7b00174)


                         Additional Contributions by
    P. Kraus, H. Kruse, M. H. Lechner, M. C. Schieber, R. A. Shaw,
    A. Alenaizan, R. Galvelis, Z. L. Glick, S. Lehtola, and J. P. Misiewicz

    -----------------------------------------------------------------------


    Psi4 started on: Thursday, 23 April 2020 06:35PM

    Process ID: 128485
    Host:       node58.bme.utexas.edu
    PSIDATADIR: /home/liuchw/anaconda3/envs/psi4env/share/psi4
    Memory:     500.0 MiB
    Threads:    8
    
  ==> Input File <==

--------------------------------------------------------------------------
#Generated by lconvert.py for cbs job

memory 20 GB

molecule  {
0 1
 Br       2.177490   -0.607410    0.000150
  C       1.823120    1.288190    0.000110
  H       0.749230    1.426570    0.000140
  H       2.269760    1.710430   -0.891300
  H       2.269820    1.710470    0.891480
--
0 1
 Br      -4.284740    0.902650    0.000170
  C      -3.930620   -0.992990    0.000130
  H      -4.377450   -1.415180   -0.891220
  H      -4.377250   -1.415190    0.891570
  H      -2.856750   -1.131540    0.000010
units angstrom
no_reorient
symmetry c1
}

set {
scf_type DF
mp2_type DF
e_convergence 7
reference rhf
}

energy('mp2/aug-cc-pv[tq]z', bsse_type='cp')
--------------------------------------------------------------------------

  Memory set to  18.626 GiB by Python driver.

Scratch directory: /scratch/liuchw/


   ===> N-Body Interaction Abacus <===
        BSSE Treatment:                     cp
        Number of 1-body computations:     4
        Number of 2-body computations:     1

   ==> N-Body: Now computing 1-body complexes <==


       N-Body: Computing complex (1/4) with fragments (2,) in the basis of fragments (2,).


Scratch directory: /scratch/liuchw/

  //>>>>>>>>>>>>>>>>>>>>>>>>>>>>>>>>>>>//
  //   CBS Setup: mp2/aug-cc-pv[tq]z   //
  //<<<<<<<<<<<<<<<<<<<<<<<<<<<<<<<<<<<//

    Naive listing of computations required.
             hf / aug-cc-pvqz              for  HF TOTAL ENERGY
            mp2 / aug-cc-pvtz              for  MP2 TOTAL ENERGY
            mp2 / aug-cc-pvqz              for  MP2 TOTAL ENERGY
             hf / aug-cc-pvtz              for  HF TOTAL ENERGY
             hf / aug-cc-pvqz              for  HF TOTAL ENERGY

    Enlightened listing of computations required.
            mp2 / aug-cc-pvtz              for  MP2 TOTAL ENERGY
            mp2 / aug-cc-pvqz              for  MP2 TOTAL ENERGY

    Full listing of computations to be obtained (required and bonus).
             hf / aug-cc-pvtz              for  HF TOTAL ENERGY
            mp2 / aug-cc-pvtz              for  MP2 TOTAL ENERGY
             hf / aug-cc-pvqz              for  HF TOTAL ENERGY
            mp2 / aug-cc-pvqz              for  MP2 TOTAL ENERGY

  //>>>>>>>>>>>>>>>>>>>>>>>>>>>>>>>>>>>>//
  // CBS Computation: MP2 / AUG-CC-PVTZ //
  //<<<<<<<<<<<<<<<<<<<<<<<<<<<<<<<<<<<<//


Scratch directory: /scratch/liuchw/

*** tstart() called on node58.bme.utexas.edu
*** at Thu Apr 23 18:35:02 2020

   => Loading Basis Set <=

    Name: AUG-CC-PVTZ
    Role: ORBITAL
    Keyword: BASIS
    atoms 1   entry BR         line  4208 file /home/liuchw/anaconda3/envs/psi4env/share/psi4/basis/aug-cc-pvtz.gbs 
    atoms 2   entry C          line   239 file /home/liuchw/anaconda3/envs/psi4env/share/psi4/basis/aug-cc-pvtz.gbs 
    atoms 3-5 entry H          line    40 file /home/liuchw/anaconda3/envs/psi4env/share/psi4/basis/aug-cc-pvtz.gbs 


         ---------------------------------------------------------
                                   SCF
               by Justin Turney, Rob Parrish, Andy Simmonett
                          and Daniel G. A. Smith
                              RHF Reference
                        8 Threads,  19073 MiB Core
         ---------------------------------------------------------

  ==> Geometry <==

    Molecular point group: c1
    Full point group: C1

    Geometry (in Angstrom), charge = 0, multiplicity = 1:

       Center              X                  Y                   Z               Mass       
    ------------   -----------------  -----------------  -----------------  -----------------
         BR          -3.231094258627     0.755033413028     0.000016611492    78.918337600000
         C           -2.876974258627    -1.140606586972    -0.000023388508    12.000000000000
         H           -3.323804258627    -1.562796586972    -0.891373388508     1.007825032230
         H           -3.323604258627    -1.562806586972     0.891416611492     1.007825032230
         H           -1.803104258627    -1.279156586972    -0.000143388508     1.007825032230

  Running in c1 symmetry.

  Rotational constants: A =      0.35891  B =      0.01734  C =      0.01659 [cm^-1]
  Rotational constants: A =  10759.90253  B =    519.84096  C =    497.44694 [MHz]
  Nuclear repulsion =   89.670463599701392

  Charge       = 0
  Multiplicity = 1
  Electrons    = 44
  Nalpha       = 22
  Nbeta        = 22

  ==> Algorithm <==

  SCF Algorithm Type is DF.
  DIIS enabled.
  MOM disabled.
  Fractional occupation disabled.
  Guess Type is SAD.
  Energy threshold   = 1.00e-07
  Density threshold  = 1.00e-08
  Integral threshold = 0.00e+00

  ==> Primary Basis <==

  Basis Set: AUG-CC-PVTZ
    Blend: AUG-CC-PVTZ
    Number of shells: 60
    Number of basis function: 174
    Number of Cartesian functions: 199
    Spherical Harmonics?: true
    Max angular momentum: 3

   => Loading Basis Set <=

    Name: (AUG-CC-PVTZ AUX)
    Role: JKFIT
    Keyword: DF_BASIS_SCF
    atoms 1   entry BR         line  1492 file /home/liuchw/anaconda3/envs/psi4env/share/psi4/basis/aug-cc-pvtz-jkfit.gbs 
    atoms 2   entry C          line   162 file /home/liuchw/anaconda3/envs/psi4env/share/psi4/basis/aug-cc-pvtz-jkfit.gbs 
    atoms 3-5 entry H          line    70 file /home/liuchw/anaconda3/envs/psi4env/share/psi4/basis/aug-cc-pvtz-jkfit.gbs 

  ==> Pre-Iterations <==

   -------------------------------------------------------
    Irrep   Nso     Nmo     Nalpha   Nbeta   Ndocc  Nsocc
   -------------------------------------------------------
     A        174     174       0       0       0       0
   -------------------------------------------------------
    Total     174     174      22      22      22       0
   -------------------------------------------------------

  ==> Integral Setup <==

  DFHelper Memory: AOs need 0.120 GiB; user supplied 13.970 GiB. Using in-core AOs.

  ==> MemDFJK: Density-Fitted J/K Matrices <==

    J tasked:                   Yes
    K tasked:                   Yes
    wK tasked:                   No
    OpenMP threads:               8
    Memory [MiB]:             14305
    Algorithm:                 Core
    Schwarz Cutoff:           1E-12
    Mask sparsity (%):       0.0000
    Fitting Condition:        1E-10

   => Auxiliary Basis Set <=

  Basis Set: (AUG-CC-PVTZ AUX)
    Blend: AUG-CC-PVTZ-JKFIT
    Number of shells: 130
    Number of basis function: 490
    Number of Cartesian functions: 625
    Spherical Harmonics?: true
    Max angular momentum: 4

  Minimum eigenvalue in the overlap matrix is 8.1489523916E-05.
  Using Symmetric Orthogonalization.

  SCF Guess: Superposition of Atomic Densities via on-the-fly atomic UHF.

  ==> Iterations <==

                           Total Energy        Delta E     RMS |[F,P]|

   @DF-RHF iter SAD: -2609.99263858268887   -2.60999e+03   0.00000e+00 
   @DF-RHF iter   1: -2611.91672676818462   -1.92409e+00   5.46969e-03 DIIS
   @DF-RHF iter   2: -2612.06226799997467   -1.45541e-01   2.47078e-03 DIIS
   @DF-RHF iter   3: -2612.09222675236242   -2.99588e-02   1.43675e-04 DIIS
   @DF-RHF iter   4: -2612.09286603707733   -6.39285e-04   4.24398e-05 DIIS
   @DF-RHF iter   5: -2612.09292039360298   -5.43565e-05   1.32224e-05 DIIS
   @DF-RHF iter   6: -2612.09292454511478   -4.15151e-06   3.28677e-06 DIIS
   @DF-RHF iter   7: -2612.09292483551872   -2.90404e-07   7.50289e-07 DIIS
   @DF-RHF iter   8: -2612.09292486450386   -2.89851e-08   2.31335e-07 DIIS
   @DF-RHF iter   9: -2612.09292486763979   -3.13594e-09   3.56328e-08 DIIS
   @DF-RHF iter  10: -2612.09292486770391   -6.41194e-11   3.76135e-09 DIIS
  Energy and wave function converged.


  ==> Post-Iterations <==

    Orbital Energies [Eh]
    ---------------------

    Doubly Occupied:                                                      

       1A   -490.013254     2A    -65.153253     3A    -58.508535  
       4A    -58.507165     5A    -58.507165     6A    -11.287327  
       7A     -9.826234     8A     -7.437799     9A     -7.431106  
      10A     -7.431106    11A     -3.181381    12A     -3.177902  
      13A     -3.177901    14A     -3.169340    15A     -3.169340  
      16A     -1.064088    17A     -0.897084    18A     -0.613541  
      19A     -0.612994    20A     -0.507689    21A     -0.401718  
      22A     -0.401662  

    Virtual:                                                              

      23A      0.027859    24A      0.046237    25A      0.046285  
      26A      0.058460    27A      0.100771    28A      0.115703  
      29A      0.115712    30A      0.127975    31A      0.128109  
      32A      0.131157    33A      0.176078    34A      0.199503  
      35A      0.199519    36A      0.213646    37A      0.263068  
      38A      0.263252    39A      0.290254    40A      0.310963  
      41A      0.310997    42A      0.333896    43A      0.334385  
      44A      0.334515    45A      0.342336    46A      0.393531  
      47A      0.397419    48A      0.397467    49A      0.415575  
      50A      0.433848    51A      0.433933    52A      0.437008  
      53A      0.448390    54A      0.448415    55A      0.494715  
      56A      0.494963    57A      0.578558    58A      0.578647  
      59A      0.579006    60A      0.668533    61A      0.668745  
      62A      0.700509    63A      0.768739    64A      0.784950  
      65A      0.784982    66A      0.817568    67A      0.817762  
      68A      0.867200    69A      0.868114    70A      0.868124  
      71A      0.914281    72A      0.932461    73A      0.935244  
      74A      0.954609    75A      0.955284    76A      0.956185  
      77A      0.977408    78A      0.992461    79A      0.992716  
      80A      1.060020    81A      1.073202    82A      1.073240  
      83A      1.085877    84A      1.086302    85A      1.132054  
      86A      1.132514    87A      1.144246    88A      1.224713  
      89A      1.224908    90A      1.255651    91A      1.255941  
      92A      1.296657    93A      1.351930    94A      1.438629  
      95A      1.438914    96A      1.476223    97A      1.549153  
      98A      1.581330    99A      1.581641   100A      1.613505  
     101A      1.627825   102A      1.627884   103A      1.652396  
     104A      1.710271   105A      1.718733   106A      1.719133  
     107A      1.902356   108A      1.902917   109A      1.937181  
     110A      2.007672   111A      2.008241   112A      2.050496  
     113A      2.158025   114A      2.158594   115A      2.253930  
     116A      2.254137   117A      2.265965   118A      2.344088  
     119A      2.344098   120A      2.345407   121A      2.346178  
     122A      2.428998   123A      2.429112   124A      2.472487  
     125A      2.533732   126A      2.534192   127A      2.609375  
     128A      2.609428   129A      2.642547   130A      2.901944  
     131A      3.006082   132A      3.311544   133A      3.311929  
     134A      3.478546   135A      3.478551   136A      3.504762  
     137A      3.558160   138A      3.577616   139A      3.577941  
     140A      3.727354   141A      3.727668   142A      3.912880  
     143A      3.913393   144A      3.933704   145A      4.022885  
     146A      4.057396   147A      4.058306   148A      4.069949  
     149A      4.123656   150A      4.123722   151A      4.208064  
     152A      4.441802   153A      4.442535   154A      4.471969  
     155A      4.744838   156A      4.745378   157A      4.836844  
     158A      4.857615   159A      4.930583   160A      4.930793  
     161A      5.045633   162A      5.148785   163A      5.150561  
     164A      5.296590   165A      5.486411   166A      5.488217  
     167A      5.588962   168A      5.681426   169A      6.018811  
     170A      6.021503   171A      6.110317   172A      6.580058  
     173A      6.582345   174A     16.981391  

    Final Occupation by Irrep:
              A 
    DOCC [    22 ]

  @DF-RHF Final Energy: -2612.09292486770391

   => Energetics <=

    Nuclear Repulsion Energy =             89.6704635997013924
    One-Electron Energy =               -3814.5716105126516595
    Two-Electron Energy =                1112.8082220452463389
    Total Energy =                      -2612.0929248677039141

Computation Completed


Properties will be evaluated at   0.000000,   0.000000,   0.000000 [a0]

Properties computed using the SCF density matrix

  Nuclear Dipole Moment: [e a0]
     X:  -262.2952      Y:    28.6818      Z:     0.0006

  Electronic Dipole Moment: [e a0]
     X:   262.4486      Y:   -29.5054      Z:    -0.0007

  Dipole Moment: [e a0]
     X:     0.1533      Y:    -0.8236      Z:    -0.0000     Total:     0.8377

  Dipole Moment: [D]
     X:     0.3897      Y:    -2.0933      Z:    -0.0000     Total:     2.1293


*** tstop() called on node58.bme.utexas.edu at Thu Apr 23 18:35:05 2020
Module time:
	user time   =      15.84 seconds =       0.26 minutes
	system time =       0.78 seconds =       0.01 minutes
	total time  =          3 seconds =       0.05 minutes
Total time:
	user time   =      15.84 seconds =       0.26 minutes
	system time =       0.78 seconds =       0.01 minutes
	total time  =          3 seconds =       0.05 minutes

*** tstart() called on node58.bme.utexas.edu
*** at Thu Apr 23 18:35:05 2020


  //>>>>>>>>>>>>>>>>>>>>>>>>>>>>>>>>>>>//
  //               DFMP2               //
  //<<<<<<<<<<<<<<<<<<<<<<<<<<<<<<<<<<<//

   => Loading Basis Set <=

    Name: (AUG-CC-PVTZ AUX)
    Role: RIFIT
    Keyword: DF_BASIS_MP2
    atoms 1   entry BR         line  1248 file /home/liuchw/anaconda3/envs/psi4env/share/psi4/basis/aug-cc-pvtz-ri.gbs 
    atoms 2   entry C          line   148 file /home/liuchw/anaconda3/envs/psi4env/share/psi4/basis/aug-cc-pvtz-ri.gbs 
    atoms 3-5 entry H          line    30 file /home/liuchw/anaconda3/envs/psi4env/share/psi4/basis/aug-cc-pvtz-ri.gbs 

	 --------------------------------------------------------
	                          DF-MP2                         
	      2nd-Order Density-Fitted Moller-Plesset Theory     
	              RMP2 Wavefunction,   8 Threads             
	                                                         
	        Rob Parrish, Justin Turney, Andy Simmonett,      
	           Ed Hohenstein, and C. David Sherrill          
	 --------------------------------------------------------

   => Auxiliary Basis Set <=

  Basis Set: (AUG-CC-PVTZ AUX)
    Blend: AUG-CC-PVTZ-RI
    Number of shells: 113
    Number of basis function: 435
    Number of Cartesian functions: 562
    Spherical Harmonics?: true
    Max angular momentum: 5

	 --------------------------------------------------------
	                 NBF =   174, NAUX =   435
	 --------------------------------------------------------
	   CLASS    FOCC     OCC    AOCC    AVIR     VIR    FVIR
	   PAIRS       0      22      22     152     152       0
	 --------------------------------------------------------

	-----------------------------------------------------------
	 ==================> DF-MP2 Energies <==================== 
	-----------------------------------------------------------
	 Reference Energy          =   -2612.0929248677039141 [Eh]
	 Singles Energy            =      -0.0000000000000000 [Eh]
	 Same-Spin Energy          =      -0.1267786881208317 [Eh]
	 Opposite-Spin Energy      =      -0.3643840074172150 [Eh]
	 Correlation Energy        =      -0.4911626955380467 [Eh]
	 Total Energy              =   -2612.5840875632420648 [Eh]
	-----------------------------------------------------------
	 ================> DF-SCS-MP2 Energies <================== 
	-----------------------------------------------------------
	 SCS Same-Spin Scale       =       0.3333333333333333 [-]
	 SCS Opposite-Spin Scale   =       1.2000000000000000 [-]
	 SCS Same-Spin Energy      =      -0.0422595627069439 [Eh]
	 SCS Opposite-Spin Energy  =      -0.4372608089006580 [Eh]
	 SCS Correlation Energy    =      -0.4795203716076019 [Eh]
	 SCS Total Energy          =   -2612.5724452393114916 [Eh]
	-----------------------------------------------------------


*** tstop() called on node58.bme.utexas.edu at Thu Apr 23 18:35:06 2020
Module time:
	user time   =       6.04 seconds =       0.10 minutes
	system time =       0.28 seconds =       0.00 minutes
	total time  =          1 seconds =       0.02 minutes
Total time:
	user time   =      21.88 seconds =       0.36 minutes
	system time =       1.06 seconds =       0.02 minutes
	total time  =          4 seconds =       0.07 minutes

  //>>>>>>>>>>>>>>>>>>>>>>>>>>>>>>>>>>>>//
  // CBS Computation: MP2 / AUG-CC-PVQZ //
  //<<<<<<<<<<<<<<<<<<<<<<<<<<<<<<<<<<<<//


Scratch directory: /scratch/liuchw/

*** tstart() called on node58.bme.utexas.edu
*** at Thu Apr 23 18:35:06 2020

   => Loading Basis Set <=

    Name: AUG-CC-PVQZ
    Role: ORBITAL
    Keyword: BASIS
    atoms 1   entry BR         line  5448 file /home/liuchw/anaconda3/envs/psi4env/share/psi4/basis/aug-cc-pvqz.gbs 
    atoms 2   entry C          line   303 file /home/liuchw/anaconda3/envs/psi4env/share/psi4/basis/aug-cc-pvqz.gbs 
    atoms 3-5 entry H          line    40 file /home/liuchw/anaconda3/envs/psi4env/share/psi4/basis/aug-cc-pvqz.gbs 


         ---------------------------------------------------------
                                   SCF
               by Justin Turney, Rob Parrish, Andy Simmonett
                          and Daniel G. A. Smith
                              RHF Reference
                        8 Threads,  19073 MiB Core
         ---------------------------------------------------------

  ==> Geometry <==

    Molecular point group: c1
    Full point group: C1

    Geometry (in Angstrom), charge = 0, multiplicity = 1:

       Center              X                  Y                   Z               Mass       
    ------------   -----------------  -----------------  -----------------  -----------------
         BR          -3.231094258627     0.755033413028     0.000016611492    78.918337600000
         C           -2.876974258627    -1.140606586972    -0.000023388508    12.000000000000
         H           -3.323804258627    -1.562796586972    -0.891373388508     1.007825032230
         H           -3.323604258627    -1.562806586972     0.891416611492     1.007825032230
         H           -1.803104258627    -1.279156586972    -0.000143388508     1.007825032230

  Running in c1 symmetry.

  Rotational constants: A =      0.35891  B =      0.01734  C =      0.01659 [cm^-1]
  Rotational constants: A =  10759.90253  B =    519.84096  C =    497.44694 [MHz]
  Nuclear repulsion =   89.670463599701392

  Charge       = 0
  Multiplicity = 1
  Electrons    = 44
  Nalpha       = 22
  Nbeta        = 22

  ==> Algorithm <==

  SCF Algorithm Type is DF.
  DIIS enabled.
  MOM disabled.
  Fractional occupation disabled.
  Guess Type is SAD.
  Energy threshold   = 1.00e-07
  Density threshold  = 1.00e-08
  Integral threshold = 0.00e+00

  ==> Primary Basis <==

  Basis Set: AUG-CC-PVQZ
    Blend: AUG-CC-PVQZ
    Number of shells: 87
    Number of basis function: 311
    Number of Cartesian functions: 389
    Spherical Harmonics?: true
    Max angular momentum: 4

   => Loading Basis Set <=

    Name: (AUG-CC-PVQZ AUX)
    Role: JKFIT
    Keyword: DF_BASIS_SCF
    atoms 1   entry BR         line  1612 file /home/liuchw/anaconda3/envs/psi4env/share/psi4/basis/aug-cc-pvqz-jkfit.gbs 
    atoms 2   entry C          line   178 file /home/liuchw/anaconda3/envs/psi4env/share/psi4/basis/aug-cc-pvqz-jkfit.gbs 
    atoms 3-5 entry H          line    70 file /home/liuchw/anaconda3/envs/psi4env/share/psi4/basis/aug-cc-pvqz-jkfit.gbs 

  ==> Pre-Iterations <==

   -------------------------------------------------------
    Irrep   Nso     Nmo     Nalpha   Nbeta   Ndocc  Nsocc
   -------------------------------------------------------
     A        311     311       0       0       0       0
   -------------------------------------------------------
    Total     311     311      22      22      22       0
   -------------------------------------------------------

  ==> Integral Setup <==

  DFHelper Memory: AOs need 0.494 GiB; user supplied 13.970 GiB. Using in-core AOs.

  ==> MemDFJK: Density-Fitted J/K Matrices <==

    J tasked:                   Yes
    K tasked:                   Yes
    wK tasked:                   No
    OpenMP threads:               8
    Memory [MiB]:             14305
    Algorithm:                 Core
    Schwarz Cutoff:           1E-12
    Mask sparsity (%):       0.0289
    Fitting Condition:        1E-10

   => Auxiliary Basis Set <=

  Basis Set: (AUG-CC-PVQZ AUX)
    Blend: AUG-CC-PVQZ-JKFIT
    Number of shells: 148
    Number of basis function: 640
    Number of Cartesian functions: 872
    Spherical Harmonics?: true
    Max angular momentum: 5

  Minimum eigenvalue in the overlap matrix is 1.6681645078E-05.
  Using Symmetric Orthogonalization.

  SCF Guess: Superposition of Atomic Densities via on-the-fly atomic UHF.

  ==> Iterations <==

                           Total Energy        Delta E     RMS |[F,P]|

   @DF-RHF iter SAD: -2609.97749336471952   -2.60998e+03   0.00000e+00 
   @DF-RHF iter   1: -2611.88316203250179   -1.90567e+00   3.90032e-03 DIIS
   @DF-RHF iter   2: -2612.04769443157102   -1.64532e-01   2.06704e-03 DIIS
   @DF-RHF iter   3: -2612.09730838158430   -4.96140e-02   8.69562e-05 DIIS
   @DF-RHF iter   4: -2612.09800935291423   -7.00971e-04   2.73761e-05 DIIS
   @DF-RHF iter   5: -2612.09807958433657   -7.02314e-05   9.31620e-06 DIIS
   @DF-RHF iter   6: -2612.09808585799647   -6.27366e-06   2.16539e-06 DIIS
   @DF-RHF iter   7: -2612.09808624160996   -3.83613e-07   5.00515e-07 DIIS
   @DF-RHF iter   8: -2612.09808627791517   -3.63052e-08   1.57495e-07 DIIS
   @DF-RHF iter   9: -2612.09808628241808   -4.50291e-09   3.12143e-08 DIIS
   @DF-RHF iter  10: -2612.09808628256451   -1.46429e-10   4.46756e-09 DIIS
  Energy and wave function converged.


  ==> Post-Iterations <==

    Orbital Energies [Eh]
    ---------------------

    Doubly Occupied:                                                      

       1A   -490.012288     2A    -65.152732     3A    -58.508138  
       4A    -58.506740     5A    -58.506740     6A    -11.286039  
       7A     -9.826015     8A     -7.437499     9A     -7.431026  
      10A     -7.431025    11A     -3.181066    12A     -3.177650  
      13A     -3.177649    14A     -3.169267    15A     -3.169267  
      16A     -1.063757    17A     -0.896942    18A     -0.613552  
      19A     -0.613006    20A     -0.507595    21A     -0.401767  
      22A     -0.401710  

    Virtual:                                                              

      23A      0.024716    24A      0.041705    25A      0.041748  
      26A      0.049887    27A      0.085538    28A      0.095197  
      29A      0.095208    30A      0.108549    31A      0.108683  
      32A      0.114501    33A      0.154021    34A      0.169882  
      35A      0.169889    36A      0.191338    37A      0.230509  
      38A      0.230607    39A      0.235739    40A      0.256913  
      41A      0.256939    42A      0.267217    43A      0.272216  
      44A      0.273786    45A      0.273941    46A      0.310677  
      47A      0.319689    48A      0.319719    49A      0.332434  
      50A      0.349049    51A      0.351132    52A      0.351150  
      53A      0.363330    54A      0.363349    55A      0.391903  
      56A      0.392158    57A      0.412308    58A      0.412590  
      59A      0.422633    60A      0.509713    61A      0.509781  
      62A      0.526547    63A      0.573667    64A      0.573703  
      65A      0.590073    66A      0.591370    67A      0.591383  
      68A      0.656950    69A      0.672522    70A      0.680304  
      71A      0.693545    72A      0.693713    73A      0.708309  
      74A      0.708545    75A      0.710815    76A      0.728272  
      77A      0.742605    78A      0.742683    79A      0.749425  
      80A      0.790633    81A      0.790658    82A      0.793497  
      83A      0.834864    84A      0.835383    85A      0.850304  
      86A      0.887911    87A      0.888014    88A      0.893908  
      89A      0.894184    90A      0.930731    91A      0.930858  
      92A      0.935652    93A      0.941730    94A      1.021148  
      95A      1.063459    96A      1.063498    97A      1.078625  
      98A      1.091903    99A      1.092250   100A      1.132997  
     101A      1.145380   102A      1.145617   103A      1.152383  
     104A      1.194541   105A      1.232118   106A      1.232424  
     107A      1.355719   108A      1.355833   109A      1.365111  
     110A      1.394566   111A      1.394949   112A      1.464142  
     113A      1.494443   114A      1.494642   115A      1.497566  
     116A      1.497582   117A      1.501073   118A      1.552771  
     119A      1.552799   120A      1.555653   121A      1.575210  
     122A      1.575363   123A      1.616859   124A      1.642605  
     125A      1.669198   126A      1.669989   127A      1.708742  
     128A      1.720330   129A      1.720512   130A      1.744348  
     131A      1.800816   132A      1.801358   133A      1.810709  
     134A      1.826977   135A      1.887895   136A      1.888296  
     137A      1.907547   138A      1.909051   139A      1.909767  
     140A      1.936850   141A      1.937679   142A      1.972163  
     143A      1.972662   144A      1.985017   145A      2.003548  
     146A      2.003866   147A      2.049823   148A      2.050369  
     149A      2.055385   150A      2.084139   151A      2.087331  
     152A      2.129225   153A      2.140484   154A      2.167929  
     155A      2.168096   156A      2.246150   157A      2.266435  
     158A      2.267002   159A      2.288930   160A      2.289436  
     161A      2.304609   162A      2.312954   163A      2.312955  
     164A      2.411929   165A      2.513488   166A      2.542679  
     167A      2.543764   168A      2.583750   169A      2.670690  
     170A      2.671103   171A      2.696216   172A      2.769735  
     173A      2.787191   174A      2.787471   175A      2.835496  
     176A      2.835596   177A      2.883028   178A      2.930345  
     179A      2.930420   180A      3.006182   181A      3.026961  
     182A      3.027816   183A      3.063519   184A      3.064121  
     185A      3.107501   186A      3.239635   187A      3.239722  
     188A      3.248982   189A      3.431384   190A      3.443359  
     191A      3.455704   192A      3.456359   193A      3.498072  
     194A      3.539441   195A      3.540043   196A      3.545295  
     197A      3.576366   198A      3.665086   199A      3.665456  
     200A      3.694455   201A      3.694570   202A      3.701295  
     203A      3.710790   204A      3.710812   205A      3.735506  
     206A      3.840811   207A      3.840962   208A      3.855136  
     209A      3.855257   210A      3.865248   211A      3.877342  
     212A      3.878321   213A      3.992583   214A      3.995828  
     215A      4.027670   216A      4.027757   217A      4.069817  
     218A      4.069982   219A      4.082439   220A      4.160839  
     221A      4.161982   222A      4.246080   223A      4.265274  
     224A      4.265317   225A      4.390315   226A      4.390507  
     227A      4.537756   228A      4.538539   229A      4.589195  
     230A      4.681238   231A      4.686192   232A      4.687270  
     233A      4.871195   234A      4.931570   235A      4.978046  
     236A      4.979281   237A      5.341626   238A      6.101211  
     239A      6.101854   240A      6.151912   241A      6.182728  
     242A      6.250469   243A      6.251417   244A      6.460042  
     245A      6.469133   246A      6.469474   247A      6.699810  
     248A      6.699979   249A      6.724435   250A      6.789253  
     251A      6.922103   252A      6.922378   253A      6.979062  
     254A      6.980426   255A      7.040214   256A      7.079019  
     257A      7.080726   258A      7.133394   259A      7.133652  
     260A      7.187547   261A      7.385806   262A      7.581494  
     263A      7.581726   264A      7.604142   265A      7.624054  
     266A      7.705033   267A      7.705938   268A      7.838378  
     269A      7.854528   270A      7.860526   271A      7.975931  
     272A      8.271733   273A      8.273497   274A      8.381217  
     275A      8.383888   276A      8.428958   277A      8.583189  
     278A      8.586688   279A      8.683150   280A      8.843651  
     281A      8.844359   282A      9.003955   283A      9.163202  
     284A      9.163613   285A      9.171225   286A      9.224148  
     287A      9.409433   288A      9.412585   289A      9.532591  
     290A      9.533547   291A      9.593444   292A      9.687388  
     293A      9.688735   294A      9.926131   295A      9.981876  
     296A     10.148820   297A     10.151220   298A     10.366673  
     299A     10.367482   300A     10.404663   301A     10.831040  
     302A     10.833517   303A     10.856963   304A     10.912219  
     305A     10.912286   306A     11.508164   307A     13.170061  
     308A     13.179794   309A     13.180709   310A     14.769088  
     311A     28.296288  

    Final Occupation by Irrep:
              A 
    DOCC [    22 ]

  @DF-RHF Final Energy: -2612.09808628256451

   => Energetics <=

    Nuclear Repulsion Energy =             89.6704635997013924
    One-Electron Energy =               -3814.5941688718912701
    Two-Electron Energy =                1112.8256189896258093
    Total Energy =                      -2612.0980862825645090

Computation Completed


Properties will be evaluated at   0.000000,   0.000000,   0.000000 [a0]

Properties computed using the SCF density matrix

  Nuclear Dipole Moment: [e a0]
     X:  -262.2952      Y:    28.6818      Z:     0.0006

  Electronic Dipole Moment: [e a0]
     X:   262.4481      Y:   -29.5032      Z:    -0.0007

  Dipole Moment: [e a0]
     X:     0.1529      Y:    -0.8213      Z:    -0.0000     Total:     0.8354

  Dipole Moment: [D]
     X:     0.3887      Y:    -2.0876      Z:    -0.0000     Total:     2.1235


*** tstop() called on node58.bme.utexas.edu at Thu Apr 23 18:35:11 2020
Module time:
	user time   =      30.08 seconds =       0.50 minutes
	system time =       1.30 seconds =       0.02 minutes
	total time  =          5 seconds =       0.08 minutes
Total time:
	user time   =      52.01 seconds =       0.87 minutes
	system time =       2.37 seconds =       0.04 minutes
	total time  =          9 seconds =       0.15 minutes

*** tstart() called on node58.bme.utexas.edu
*** at Thu Apr 23 18:35:11 2020


  //>>>>>>>>>>>>>>>>>>>>>>>>>>>>>>>>>>>//
  //               DFMP2               //
  //<<<<<<<<<<<<<<<<<<<<<<<<<<<<<<<<<<<//

   => Loading Basis Set <=

    Name: (AUG-CC-PVQZ AUX)
    Role: RIFIT
    Keyword: DF_BASIS_MP2
    atoms 1   entry BR         line  1518 file /home/liuchw/anaconda3/envs/psi4env/share/psi4/basis/aug-cc-pvqz-ri.gbs 
    atoms 2   entry C          line   184 file /home/liuchw/anaconda3/envs/psi4env/share/psi4/basis/aug-cc-pvqz-ri.gbs 
    atoms 3-5 entry H          line    30 file /home/liuchw/anaconda3/envs/psi4env/share/psi4/basis/aug-cc-pvqz-ri.gbs 

	 --------------------------------------------------------
	                          DF-MP2                         
	      2nd-Order Density-Fitted Moller-Plesset Theory     
	              RMP2 Wavefunction,   8 Threads             
	                                                         
	        Rob Parrish, Justin Turney, Andy Simmonett,      
	           Ed Hohenstein, and C. David Sherrill          
	 --------------------------------------------------------

   => Auxiliary Basis Set <=

  Basis Set: (AUG-CC-PVQZ AUX)
    Blend: AUG-CC-PVQZ-RI
    Number of shells: 148
    Number of basis function: 670
    Number of Cartesian functions: 939
    Spherical Harmonics?: true
    Max angular momentum: 6

	 --------------------------------------------------------
	                 NBF =   311, NAUX =   670
	 --------------------------------------------------------
	   CLASS    FOCC     OCC    AOCC    AVIR     VIR    FVIR
	   PAIRS       0      22      22     289     289       0
	 --------------------------------------------------------

	-----------------------------------------------------------
	 ==================> DF-MP2 Energies <==================== 
	-----------------------------------------------------------
	 Reference Energy          =   -2612.0980862825645090 [Eh]
	 Singles Energy            =      -0.0000000000000000 [Eh]
	 Same-Spin Energy          =      -0.1612222301704724 [Eh]
	 Opposite-Spin Energy      =      -0.4538164457034717 [Eh]
	 Correlation Energy        =      -0.6150386758739441 [Eh]
	 Total Energy              =   -2612.7131249584385841 [Eh]
	-----------------------------------------------------------
	 ================> DF-SCS-MP2 Energies <================== 
	-----------------------------------------------------------
	 SCS Same-Spin Scale       =       0.3333333333333333 [-]
	 SCS Opposite-Spin Scale   =       1.2000000000000000 [-]
	 SCS Same-Spin Energy      =      -0.0537407433901575 [Eh]
	 SCS Opposite-Spin Energy  =      -0.5445797348441660 [Eh]
	 SCS Correlation Energy    =      -0.5983204782343234 [Eh]
	 SCS Total Energy          =   -2612.6964067607987090 [Eh]
	-----------------------------------------------------------


*** tstop() called on node58.bme.utexas.edu at Thu Apr 23 18:35:14 2020
Module time:
	user time   =      12.84 seconds =       0.21 minutes
	system time =       0.51 seconds =       0.01 minutes
	total time  =          3 seconds =       0.05 minutes
Total time:
	user time   =      64.86 seconds =       1.08 minutes
	system time =       2.88 seconds =       0.05 minutes
	total time  =         12 seconds =       0.20 minutes

  //>>>>>>>>>>>>>>>>>>>>>>>>>>>>>>>>>>>//
  //  CBS Results: mp2/aug-cc-pv[tq]z  //
  //<<<<<<<<<<<<<<<<<<<<<<<<<<<<<<<<<<<//


   ==> HF <==

   HI-zeta (4) Energy:               -2612.098086282565


   ==> Helgaker 2-point correlated extrapolation for method: MP2 <==

   LO-zeta (3) Energy:               -2612.584087563242
   HI-zeta (4) Energy:               -2612.713124958439
   Alpha (exponent) Value:             3.000000000000
   Extrapolated Energy:              -2612.807287381961

   @Extrapolated MP2/(T,Q):          -2612.807287381961



   ==> Helgaker 2-point correlated extrapolation for method: HF <==

   LO-zeta (3) Energy:               -2612.092924867704
   HI-zeta (4) Energy:               -2612.098086282565
   Alpha (exponent) Value:             3.000000000000
   Extrapolated Energy:              -2612.101852720436

   @Extrapolated HF/(T,Q):           -2612.101852720436


   ==> Components <==

  ---------------------------------------------------------------------------------------------------------
                          Method / Basis                      Rqd      Energy [Eh]   Variable
  ---------------------------------------------------------------------------------------------------------
                              hf / aug-cc-pvtz                  *   -2612.09292487   HF TOTAL ENERGY
                             mp2 / aug-cc-pvtz                  *   -2612.58408756   MP2 TOTAL ENERGY
                              hf / aug-cc-pvqz                  *   -2612.09808628   HF TOTAL ENERGY
                             mp2 / aug-cc-pvqz                  *   -2612.71312496   MP2 TOTAL ENERGY
  ---------------------------------------------------------------------------------------------------------

   ==> Stages <==

  ---------------------------------------------------------------------------------------------------------
      Stage               Method / Basis                       Wt      Energy [Eh]   Scheme
  ---------------------------------------------------------------------------------------------------------
        scf                   hf / aug-cc-pvqz                  1   -2612.09808628   xtpl_highest_1
       corl                  mp2 / aug-cc-pv[tq]z               1   -2612.80728738   corl_xtpl_helgaker_2
       corl                   hf / aug-cc-pv[tq]z              -1   -2612.10185272   corl_xtpl_helgaker_2
  ---------------------------------------------------------------------------------------------------------

   ==> CBS <==

  ---------------------------------------------------------------------------------------------------------
      Stage               Method / Basis                               Energy [Eh]   Scheme
  ---------------------------------------------------------------------------------------------------------
        scf                   hf / aug-cc-pvqz                      -2612.09808628   xtpl_highest_1
       corl                  mp2 / aug-cc-pv[tq]z                      -0.70543466   corl_xtpl_helgaker_2
      total                  CBS                                    -2612.80352094   
  ---------------------------------------------------------------------------------------------------------
   => Loading Basis Set <=

    Name: DEF2-SVP
    Role: ORBITAL
    Keyword: BASIS
    atoms 1   entry BR         line  1084 file /home/liuchw/anaconda3/envs/psi4env/share/psi4/basis/def2-svp.gbs 
    atoms 2   entry C          line    90 file /home/liuchw/anaconda3/envs/psi4env/share/psi4/basis/def2-svp.gbs 
    atoms 3-5 entry H          line    15 file /home/liuchw/anaconda3/envs/psi4env/share/psi4/basis/def2-svp.gbs 


       N-Body: Complex Energy (fragments = (2,), basis = (2,): -2612.80352094408954)

       N-Body: Computing complex (2/4) with fragments (2,) in the basis of fragments (1, 2).


Scratch directory: /scratch/liuchw/

  //>>>>>>>>>>>>>>>>>>>>>>>>>>>>>>>>>>>//
  //   CBS Setup: mp2/aug-cc-pv[tq]z   //
  //<<<<<<<<<<<<<<<<<<<<<<<<<<<<<<<<<<<//

    Naive listing of computations required.
             hf / aug-cc-pvqz              for  HF TOTAL ENERGY
            mp2 / aug-cc-pvtz              for  MP2 TOTAL ENERGY
            mp2 / aug-cc-pvqz              for  MP2 TOTAL ENERGY
             hf / aug-cc-pvtz              for  HF TOTAL ENERGY
             hf / aug-cc-pvqz              for  HF TOTAL ENERGY

    Enlightened listing of computations required.
            mp2 / aug-cc-pvtz              for  MP2 TOTAL ENERGY
            mp2 / aug-cc-pvqz              for  MP2 TOTAL ENERGY

    Full listing of computations to be obtained (required and bonus).
             hf / aug-cc-pvtz              for  HF TOTAL ENERGY
            mp2 / aug-cc-pvtz              for  MP2 TOTAL ENERGY
             hf / aug-cc-pvqz              for  HF TOTAL ENERGY
            mp2 / aug-cc-pvqz              for  MP2 TOTAL ENERGY

  //>>>>>>>>>>>>>>>>>>>>>>>>>>>>>>>>>>>>//
  // CBS Computation: MP2 / AUG-CC-PVTZ //
  //<<<<<<<<<<<<<<<<<<<<<<<<<<<<<<<<<<<<//


Scratch directory: /scratch/liuchw/

*** tstart() called on node58.bme.utexas.edu
*** at Thu Apr 23 18:35:15 2020

   => Loading Basis Set <=

    Name: AUG-CC-PVTZ
    Role: ORBITAL
    Keyword: BASIS
    atoms 1, 6      entry BR         line  4208 file /home/liuchw/anaconda3/envs/psi4env/share/psi4/basis/aug-cc-pvtz.gbs 
    atoms 2, 7      entry C          line   239 file /home/liuchw/anaconda3/envs/psi4env/share/psi4/basis/aug-cc-pvtz.gbs 
    atoms 3-5, 8-10 entry H          line    40 file /home/liuchw/anaconda3/envs/psi4env/share/psi4/basis/aug-cc-pvtz.gbs 


         ---------------------------------------------------------
                                   SCF
               by Justin Turney, Rob Parrish, Andy Simmonett
                          and Daniel G. A. Smith
                              RHF Reference
                        8 Threads,  19073 MiB Core
         ---------------------------------------------------------

  ==> Geometry <==

    Molecular point group: c1
    Full point group: C1

    Geometry (in Angstrom), charge = 0, multiplicity = 1:

       Center              X                  Y                   Z               Mass       
    ------------   -----------------  -----------------  -----------------  -----------------
      Gh(BR)          3.231135741373    -0.755026586972    -0.000003388508    78.918337600000
      Gh(C)           2.876765741373     1.140573413028    -0.000043388508    12.000000000000
      Gh(H)           1.802875741373     1.278953413028    -0.000013388508     1.007825032230
      Gh(H)           3.323405741373     1.562813413028    -0.891453388508     1.007825032230
      Gh(H)           3.323465741373     1.562853413028     0.891326611492     1.007825032230
         BR          -3.231094258627     0.755033413028     0.000016611492    78.918337600000
         C           -2.876974258627    -1.140606586972    -0.000023388508    12.000000000000
         H           -3.323804258627    -1.562796586972    -0.891373388508     1.007825032230
         H           -3.323604258627    -1.562806586972     0.891416611492     1.007825032230
         H           -1.803104258627    -1.279156586972    -0.000143388508     1.007825032230

  Running in c1 symmetry.

  Rotational constants: A =      0.17946  B =      0.00867  C =      0.00830 [cm^-1]
  Rotational constants: A =   5380.16824  B =    259.91994  C =    248.72343 [MHz]
  Nuclear repulsion =   89.670463599701392

  Charge       = 0
  Multiplicity = 1
  Electrons    = 44
  Nalpha       = 22
  Nbeta        = 22

  ==> Algorithm <==

  SCF Algorithm Type is DF.
  DIIS enabled.
  MOM disabled.
  Fractional occupation disabled.
  Guess Type is SAD.
  Energy threshold   = 1.00e-07
  Density threshold  = 1.00e-08
  Integral threshold = 0.00e+00

  ==> Primary Basis <==

  Basis Set: AUG-CC-PVTZ
    Blend: AUG-CC-PVTZ
    Number of shells: 120
    Number of basis function: 348
    Number of Cartesian functions: 398
    Spherical Harmonics?: true
    Max angular momentum: 3

   => Loading Basis Set <=

    Name: (AUG-CC-PVTZ AUX)
    Role: JKFIT
    Keyword: DF_BASIS_SCF
    atoms 1, 6      entry BR         line  1492 file /home/liuchw/anaconda3/envs/psi4env/share/psi4/basis/aug-cc-pvtz-jkfit.gbs 
    atoms 2, 7      entry C          line   162 file /home/liuchw/anaconda3/envs/psi4env/share/psi4/basis/aug-cc-pvtz-jkfit.gbs 
    atoms 3-5, 8-10 entry H          line    70 file /home/liuchw/anaconda3/envs/psi4env/share/psi4/basis/aug-cc-pvtz-jkfit.gbs 

  ==> Pre-Iterations <==

   -------------------------------------------------------
    Irrep   Nso     Nmo     Nalpha   Nbeta   Ndocc  Nsocc
   -------------------------------------------------------
     A        348     348       0       0       0       0
   -------------------------------------------------------
    Total     348     348      22      22      22       0
   -------------------------------------------------------

  ==> Integral Setup <==

  DFHelper Memory: AOs need 0.789 GiB; user supplied 13.970 GiB. Using in-core AOs.

  ==> MemDFJK: Density-Fitted J/K Matrices <==

    J tasked:                   Yes
    K tasked:                   Yes
    wK tasked:                   No
    OpenMP threads:               8
    Memory [MiB]:             14305
    Algorithm:                 Core
    Schwarz Cutoff:           1E-12
    Mask sparsity (%):      15.1539
    Fitting Condition:        1E-10

   => Auxiliary Basis Set <=

  Basis Set: (AUG-CC-PVTZ AUX)
    Blend: AUG-CC-PVTZ-JKFIT
    Number of shells: 260
    Number of basis function: 980
    Number of Cartesian functions: 1250
    Spherical Harmonics?: true
    Max angular momentum: 4

  Minimum eigenvalue in the overlap matrix is 6.9895570023E-05.
  Using Symmetric Orthogonalization.

  SCF Guess: Superposition of Atomic Densities via on-the-fly atomic UHF.

  ==> Iterations <==

                           Total Energy        Delta E     RMS |[F,P]|

   @DF-RHF iter SAD: -2609.99263872535857   -2.60999e+03   0.00000e+00 
   @DF-RHF iter   1: -2611.91665813990676   -1.92402e+00   2.73702e-03 DIIS
   @DF-RHF iter   2: -2612.06223848715126   -1.45580e-01   1.23686e-03 DIIS
   @DF-RHF iter   3: -2612.09223227595794   -2.99938e-02   7.18519e-05 DIIS
   @DF-RHF iter   4: -2612.09287172900713   -6.39453e-04   2.12258e-05 DIIS
   @DF-RHF iter   5: -2612.09292612122499   -5.43922e-05   6.61532e-06 DIIS
   @DF-RHF iter   6: -2612.09293027819604   -4.15697e-06   1.64423e-06 DIIS
   @DF-RHF iter   7: -2612.09293056891693   -2.90721e-07   3.75424e-07 DIIS
   @DF-RHF iter   8: -2612.09293059793799   -2.90211e-08   1.15768e-07 DIIS
   @DF-RHF iter   9: -2612.09293060108030   -3.14230e-09   1.78435e-08 DIIS
   @DF-RHF iter  10: -2612.09293060114487   -6.45741e-11   1.88560e-09 DIIS
  Energy and wave function converged.


  ==> Post-Iterations <==

    Orbital Energies [Eh]
    ---------------------

    Doubly Occupied:                                                      

       1A   -490.013274     2A    -65.153267     3A    -58.508550  
       4A    -58.507180     5A    -58.507180     6A    -11.287323  
       7A     -9.826233     8A     -7.437799     9A     -7.431106  
      10A     -7.431106    11A     -3.181380    12A     -3.177903  
      13A     -3.177902    14A     -3.169341    15A     -3.169338  
      16A     -1.064083    17A     -0.897080    18A     -0.613537  
      19A     -0.612990    20A     -0.507685    21A     -0.401717  
      22A     -0.401656  

    Virtual:                                                              

      23A      0.021007    24A      0.031740    25A      0.042954  
      26A      0.045533    27A      0.050210    28A      0.055288  
      29A      0.063545    30A      0.083311    31A      0.093897  
      32A      0.095056    33A      0.105304    34A      0.107976  
      35A      0.113586    36A      0.118247    37A      0.122013  
      38A      0.127896    39A      0.140337    40A      0.142842  
      41A      0.143824    42A      0.146286    43A      0.163480  
      44A      0.183536    45A      0.192337    46A      0.197340  
      47A      0.216435    48A      0.234761    49A      0.245857  
      50A      0.261824    51A      0.263006    52A      0.275759  
      53A      0.284106    54A      0.289428    55A      0.297639  
      56A      0.298996    57A      0.304670    58A      0.307011  
      59A      0.323091    60A      0.328914    61A      0.332046  
      62A      0.338231    63A      0.340563    64A      0.341202  
      65A      0.345387    66A      0.348687    67A      0.359598  
      68A      0.364038    69A      0.369141    70A      0.387156  
      71A      0.389894    72A      0.400833    73A      0.402378  
      74A      0.406317    75A      0.413380    76A      0.416443  
      77A      0.430779    78A      0.433433    79A      0.438706  
      80A      0.449485    81A      0.454948    82A      0.454952  
      83A      0.479407    84A      0.492897    85A      0.497183  
      86A      0.501704    87A      0.508304    88A      0.529445  
      89A      0.530988    90A      0.541295    91A      0.553790  
      92A      0.581656    93A      0.585607    94A      0.590136  
      95A      0.597517    96A      0.611351    97A      0.639444  
      98A      0.665841    99A      0.675749   100A      0.683189  
     101A      0.699916   102A      0.704184   103A      0.720942  
     104A      0.778420   105A      0.789005   106A      0.816742  
     107A      0.820833   108A      0.836321   109A      0.868103  
     110A      0.872841   111A      0.876498   112A      0.920935  
     113A      0.930562   114A      0.932804   115A      0.934911  
     116A      0.936832   117A      0.947799   118A      0.957183  
     119A      0.962539   120A      0.973609   121A      0.979671  
     122A      0.984855   123A      0.987034   124A      0.994762  
     125A      1.001489   126A      1.017913   127A      1.019622  
     128A      1.035816   129A      1.039858   130A      1.058793  
     131A      1.059267   132A      1.064397   133A      1.067063  
     134A      1.074953   135A      1.080445   136A      1.085791  
     137A      1.092602   138A      1.105171   139A      1.110532  
     140A      1.118923   141A      1.127452   142A      1.134381  
     143A      1.144823   144A      1.146175   145A      1.153521  
     146A      1.163349   147A      1.171180   148A      1.174988  
     149A      1.187370   150A      1.208171   151A      1.211445  
     152A      1.211724   153A      1.214669   154A      1.226208  
     155A      1.228676   156A      1.254495   157A      1.256569  
     158A      1.278717   159A      1.286628   160A      1.288490  
     161A      1.312447   162A      1.331579   163A      1.339639  
     164A      1.356866   165A      1.369611   166A      1.371353  
     167A      1.380412   168A      1.408645   169A      1.430710  
     170A      1.435432   171A      1.441945   172A      1.474063  
     173A      1.484319   174A      1.549376   175A      1.558021  
     176A      1.583656   177A      1.590219   178A      1.615879  
     179A      1.633877   180A      1.641544   181A      1.665899  
     182A      1.717746   183A      1.719208   184A      1.724646  
     185A      1.725161   186A      1.736135   187A      1.761487  
     188A      1.825954   189A      1.862287   190A      1.863085  
     191A      1.889029   192A      1.902411   193A      1.903440  
     194A      1.910371   195A      1.928800   196A      1.943632  
     197A      1.977514   198A      2.008358   199A      2.034873  
     200A      2.055977   201A      2.058174   202A      2.077875  
     203A      2.107881   204A      2.160271   205A      2.166557  
     206A      2.238306   207A      2.241820   208A      2.256589  
     209A      2.274653   210A      2.275877   211A      2.297403  
     212A      2.346023   213A      2.347306   214A      2.347488  
     215A      2.377274   216A      2.417943   217A      2.419140  
     218A      2.433138   219A      2.435478   220A      2.440806  
     221A      2.477631   222A      2.536452   223A      2.539271  
     224A      2.609990   225A      2.619273   226A      2.653000  
     227A      2.694339   228A      2.732619   229A      2.818357  
     230A      2.910918   231A      2.972346   232A      2.982966  
     233A      3.020835   234A      3.149343   235A      3.150469  
     236A      3.248316   237A      3.248486   238A      3.254711  
     239A      3.295354   240A      3.311845   241A      3.318742  
     242A      3.334629   243A      3.359453   244A      3.432261  
     245A      3.442294   246A      3.478720   247A      3.481865  
     248A      3.487582   249A      3.488474   250A      3.508369  
     251A      3.559340   252A      3.579268   253A      3.584108  
     254A      3.672165   255A      3.702179   256A      3.728539  
     257A      3.739745   258A      3.913686   259A      3.925476  
     260A      3.934165   261A      3.945255   262A      4.024697  
     263A      4.053843   264A      4.058480   265A      4.070261  
     266A      4.077506   267A      4.082842   268A      4.090872  
     269A      4.122344   270A      4.123134   271A      4.124158  
     272A      4.139745   273A      4.216771   274A      4.396220  
     275A      4.401833   276A      4.412456   277A      4.441942  
     278A      4.445025   279A      4.449629   280A      4.470521  
     281A      4.482015   282A      4.491896   283A      4.612090  
     284A      4.616425   285A      4.740339   286A      4.747197  
     287A      4.751220   288A      4.791856   289A      4.842073  
     290A      4.858791   291A      4.863640   292A      4.869780  
     293A      4.896681   294A      4.901108   295A      4.931594  
     296A      4.934045   297A      5.057400   298A      5.149117  
     299A      5.152640   300A      5.230867   301A      5.230975  
     302A      5.292288   303A      5.298114   304A      5.301360  
     305A      5.369503   306A      5.482614   307A      5.485252  
     308A      5.487328   309A      5.489555   310A      5.592894  
     311A      5.619839   312A      5.629137   313A      5.683970  
     314A      5.699911   315A      6.019224   316A      6.031272  
     317A      6.050664   318A      6.121023   319A      6.141548  
     320A      6.148216   321A      6.294197   322A      6.580568  
     323A      6.586923   324A      6.591927   325A      6.615573  
     326A      7.179287   327A      7.473735   328A      7.741746  
     329A      7.745503   330A      8.142735   331A      8.145595  
     332A     10.295853   333A     10.623570   334A     13.614136  
     335A     13.628182   336A     14.353501   337A     17.062266  
     338A     26.177400   339A     26.198666   340A     26.335634  
     341A     26.336363   342A     26.587680   343A     46.212331  
     344A     51.556239   345A    138.654033   346A    138.675388  
     347A    139.820462   348A    710.858015  

    Final Occupation by Irrep:
              A 
    DOCC [    22 ]

  @DF-RHF Final Energy: -2612.09293060114487

   => Energetics <=

    Nuclear Repulsion Energy =             89.6704635997013924
    One-Electron Energy =               -3814.5715303777005829
    Two-Electron Energy =                1112.8081361768545321
    Total Energy =                      -2612.0929306011448716

Computation Completed


Properties will be evaluated at   0.000000,   0.000000,   0.000000 [a0]

Properties computed using the SCF density matrix

  Nuclear Dipole Moment: [e a0]
     X:  -262.2952      Y:    28.6818      Z:     0.0006

  Electronic Dipole Moment: [e a0]
     X:   262.4483      Y:   -29.5053      Z:    -0.0007

  Dipole Moment: [e a0]
     X:     0.1531      Y:    -0.8235      Z:    -0.0000     Total:     0.8376

  Dipole Moment: [D]
     X:     0.3892      Y:    -2.0932      Z:    -0.0000     Total:     2.1290


*** tstop() called on node58.bme.utexas.edu at Thu Apr 23 18:35:22 2020
Module time:
	user time   =      40.81 seconds =       0.68 minutes
	system time =       1.35 seconds =       0.02 minutes
	total time  =          7 seconds =       0.12 minutes
Total time:
	user time   =     107.70 seconds =       1.80 minutes
	system time =       4.32 seconds =       0.07 minutes
	total time  =         20 seconds =       0.33 minutes

*** tstart() called on node58.bme.utexas.edu
*** at Thu Apr 23 18:35:22 2020


  //>>>>>>>>>>>>>>>>>>>>>>>>>>>>>>>>>>>//
  //               DFMP2               //
  //<<<<<<<<<<<<<<<<<<<<<<<<<<<<<<<<<<<//

   => Loading Basis Set <=

    Name: (AUG-CC-PVTZ AUX)
    Role: RIFIT
    Keyword: DF_BASIS_MP2
    atoms 1, 6      entry BR         line  1248 file /home/liuchw/anaconda3/envs/psi4env/share/psi4/basis/aug-cc-pvtz-ri.gbs 
    atoms 2, 7      entry C          line   148 file /home/liuchw/anaconda3/envs/psi4env/share/psi4/basis/aug-cc-pvtz-ri.gbs 
    atoms 3-5, 8-10 entry H          line    30 file /home/liuchw/anaconda3/envs/psi4env/share/psi4/basis/aug-cc-pvtz-ri.gbs 

	 --------------------------------------------------------
	                          DF-MP2                         
	      2nd-Order Density-Fitted Moller-Plesset Theory     
	              RMP2 Wavefunction,   8 Threads             
	                                                         
	        Rob Parrish, Justin Turney, Andy Simmonett,      
	           Ed Hohenstein, and C. David Sherrill          
	 --------------------------------------------------------

   => Auxiliary Basis Set <=

  Basis Set: (AUG-CC-PVTZ AUX)
    Blend: AUG-CC-PVTZ-RI
    Number of shells: 226
    Number of basis function: 870
    Number of Cartesian functions: 1124
    Spherical Harmonics?: true
    Max angular momentum: 5

	 --------------------------------------------------------
	                 NBF =   348, NAUX =   870
	 --------------------------------------------------------
	   CLASS    FOCC     OCC    AOCC    AVIR     VIR    FVIR
	   PAIRS       0      22      22     326     326       0
	 --------------------------------------------------------

	-----------------------------------------------------------
	 ==================> DF-MP2 Energies <==================== 
	-----------------------------------------------------------
	 Reference Energy          =   -2612.0929306011448716 [Eh]
	 Singles Energy            =      -0.0000000000000000 [Eh]
	 Same-Spin Energy          =      -0.1268555487675090 [Eh]
	 Opposite-Spin Energy      =      -0.3645834740343137 [Eh]
	 Correlation Energy        =      -0.4914390228018227 [Eh]
	 Total Energy              =   -2612.5843696239467135 [Eh]
	-----------------------------------------------------------
	 ================> DF-SCS-MP2 Energies <================== 
	-----------------------------------------------------------
	 SCS Same-Spin Scale       =       0.3333333333333333 [-]
	 SCS Opposite-Spin Scale   =       1.2000000000000000 [-]
	 SCS Same-Spin Energy      =      -0.0422851829225030 [Eh]
	 SCS Opposite-Spin Energy  =      -0.4375001688411765 [Eh]
	 SCS Correlation Energy    =      -0.4797853517636795 [Eh]
	 SCS Total Energy          =   -2612.5727159529087658 [Eh]
	-----------------------------------------------------------


*** tstop() called on node58.bme.utexas.edu at Thu Apr 23 18:35:26 2020
Module time:
	user time   =      20.96 seconds =       0.35 minutes
	system time =       0.60 seconds =       0.01 minutes
	total time  =          4 seconds =       0.07 minutes
Total time:
	user time   =     128.67 seconds =       2.14 minutes
	system time =       4.92 seconds =       0.08 minutes
	total time  =         24 seconds =       0.40 minutes

  //>>>>>>>>>>>>>>>>>>>>>>>>>>>>>>>>>>>>//
  // CBS Computation: MP2 / AUG-CC-PVQZ //
  //<<<<<<<<<<<<<<<<<<<<<<<<<<<<<<<<<<<<//


Scratch directory: /scratch/liuchw/

*** tstart() called on node58.bme.utexas.edu
*** at Thu Apr 23 18:35:26 2020

   => Loading Basis Set <=

    Name: AUG-CC-PVQZ
    Role: ORBITAL
    Keyword: BASIS
    atoms 1, 6      entry BR         line  5448 file /home/liuchw/anaconda3/envs/psi4env/share/psi4/basis/aug-cc-pvqz.gbs 
    atoms 2, 7      entry C          line   303 file /home/liuchw/anaconda3/envs/psi4env/share/psi4/basis/aug-cc-pvqz.gbs 
    atoms 3-5, 8-10 entry H          line    40 file /home/liuchw/anaconda3/envs/psi4env/share/psi4/basis/aug-cc-pvqz.gbs 


         ---------------------------------------------------------
                                   SCF
               by Justin Turney, Rob Parrish, Andy Simmonett
                          and Daniel G. A. Smith
                              RHF Reference
                        8 Threads,  19073 MiB Core
         ---------------------------------------------------------

  ==> Geometry <==

    Molecular point group: c1
    Full point group: C1

    Geometry (in Angstrom), charge = 0, multiplicity = 1:

       Center              X                  Y                   Z               Mass       
    ------------   -----------------  -----------------  -----------------  -----------------
      Gh(BR)          3.231135741373    -0.755026586972    -0.000003388508    78.918337600000
      Gh(C)           2.876765741373     1.140573413028    -0.000043388508    12.000000000000
      Gh(H)           1.802875741373     1.278953413028    -0.000013388508     1.007825032230
      Gh(H)           3.323405741373     1.562813413028    -0.891453388508     1.007825032230
      Gh(H)           3.323465741373     1.562853413028     0.891326611492     1.007825032230
         BR          -3.231094258627     0.755033413028     0.000016611492    78.918337600000
         C           -2.876974258627    -1.140606586972    -0.000023388508    12.000000000000
         H           -3.323804258627    -1.562796586972    -0.891373388508     1.007825032230
         H           -3.323604258627    -1.562806586972     0.891416611492     1.007825032230
         H           -1.803104258627    -1.279156586972    -0.000143388508     1.007825032230

  Running in c1 symmetry.

  Rotational constants: A =      0.17946  B =      0.00867  C =      0.00830 [cm^-1]
  Rotational constants: A =   5380.16824  B =    259.91994  C =    248.72343 [MHz]
  Nuclear repulsion =   89.670463599701392

  Charge       = 0
  Multiplicity = 1
  Electrons    = 44
  Nalpha       = 22
  Nbeta        = 22

  ==> Algorithm <==

  SCF Algorithm Type is DF.
  DIIS enabled.
  MOM disabled.
  Fractional occupation disabled.
  Guess Type is SAD.
  Energy threshold   = 1.00e-07
  Density threshold  = 1.00e-08
  Integral threshold = 0.00e+00

  ==> Primary Basis <==

  Basis Set: AUG-CC-PVQZ
    Blend: AUG-CC-PVQZ
    Number of shells: 174
    Number of basis function: 622
    Number of Cartesian functions: 778
    Spherical Harmonics?: true
    Max angular momentum: 4

   => Loading Basis Set <=

    Name: (AUG-CC-PVQZ AUX)
    Role: JKFIT
    Keyword: DF_BASIS_SCF
    atoms 1, 6      entry BR         line  1612 file /home/liuchw/anaconda3/envs/psi4env/share/psi4/basis/aug-cc-pvqz-jkfit.gbs 
    atoms 2, 7      entry C          line   178 file /home/liuchw/anaconda3/envs/psi4env/share/psi4/basis/aug-cc-pvqz-jkfit.gbs 
    atoms 3-5, 8-10 entry H          line    70 file /home/liuchw/anaconda3/envs/psi4env/share/psi4/basis/aug-cc-pvqz-jkfit.gbs 

  ==> Pre-Iterations <==

   -------------------------------------------------------
    Irrep   Nso     Nmo     Nalpha   Nbeta   Ndocc  Nsocc
   -------------------------------------------------------
     A        622     622       0       0       0       0
   -------------------------------------------------------
    Total     622     622      22      22      22       0
   -------------------------------------------------------

  ==> Integral Setup <==

  DFHelper Memory: AOs need 3.074 GiB; user supplied 13.970 GiB. Using in-core AOs.

  ==> MemDFJK: Density-Fitted J/K Matrices <==

    J tasked:                   Yes
    K tasked:                   Yes
    wK tasked:                   No
    OpenMP threads:               8
    Memory [MiB]:             14305
    Algorithm:                 Core
    Schwarz Cutoff:           1E-12
    Mask sparsity (%):      20.2309
    Fitting Condition:        1E-10

   => Auxiliary Basis Set <=

  Basis Set: (AUG-CC-PVQZ AUX)
    Blend: AUG-CC-PVQZ-JKFIT
    Number of shells: 296
    Number of basis function: 1280
    Number of Cartesian functions: 1744
    Spherical Harmonics?: true
    Max angular momentum: 5

  Minimum eigenvalue in the overlap matrix is 1.3987879781E-05.
  Using Symmetric Orthogonalization.

  SCF Guess: Superposition of Atomic Densities via on-the-fly atomic UHF.

  ==> Iterations <==

                           Total Energy        Delta E     RMS |[F,P]|

   @DF-RHF iter SAD: -2609.97749339668144   -2.60998e+03   0.00000e+00 
   @DF-RHF iter   1: -2611.88312375295072   -1.90563e+00   1.95083e-03 DIIS
   @DF-RHF iter   2: -2612.04767062006840   -1.64547e-01   1.03404e-03 DIIS
   @DF-RHF iter   3: -2612.09731050940854   -4.96399e-02   4.34831e-05 DIIS
   @DF-RHF iter   4: -2612.09801155990635   -7.01050e-04   1.36887e-05 DIIS
   @DF-RHF iter   5: -2612.09808180258324   -7.02427e-05   4.65869e-06 DIIS
   @DF-RHF iter   6: -2612.09808807777745   -6.27519e-06   1.08311e-06 DIIS
   @DF-RHF iter   7: -2612.09808846160513   -3.83828e-07   2.50306e-07 DIIS
   @DF-RHF iter   8: -2612.09808849792171   -3.63166e-08   7.87658e-08 DIIS
   @DF-RHF iter   9: -2612.09808850242052   -4.49882e-09   1.56175e-08 DIIS
   @DF-RHF iter  10: -2612.09808850256968   -1.49157e-10   2.23571e-09 DIIS
  Energy and wave function converged.


  ==> Post-Iterations <==

    Orbital Energies [Eh]
    ---------------------

    Doubly Occupied:                                                      

       1A   -490.012285     2A    -65.152729     3A    -58.508135  
       4A    -58.506737     5A    -58.506737     6A    -11.286037  
       7A     -9.826013     8A     -7.437498     9A     -7.431024  
      10A     -7.431023    11A     -3.181064    12A     -3.177649  
      13A     -3.177648    14A     -3.169266    15A     -3.169265  
      16A     -1.063755    17A     -0.896941    18A     -0.613551  
      19A     -0.613005    20A     -0.507594    21A     -0.401767  
      22A     -0.401709  

    Virtual:                                                              

      23A      0.018659    24A      0.028572    25A      0.038377  
      26A      0.039929    27A      0.045610    28A      0.050174  
      29A      0.055799    30A      0.074158    31A      0.080276  
      32A      0.080694    33A      0.091599    34A      0.093635  
      35A      0.095035    36A      0.102213    37A      0.104083  
      38A      0.109639    39A      0.122206    40A      0.124266  
      41A      0.125417    42A      0.127856    43A      0.143787  
      44A      0.158928    45A      0.166989    46A      0.170201  
      47A      0.193191    48A      0.197856    49A      0.209168  
      50A      0.224633    51A      0.229825    52A      0.231498  
      53A      0.235638    54A      0.238018    55A      0.243180  
      56A      0.246749    57A      0.250221    58A      0.254667  
      59A      0.265980    60A      0.269551    61A      0.270381  
      62A      0.274652    63A      0.276994    64A      0.279785  
      65A      0.287307    66A      0.290347    67A      0.294475  
      68A      0.296135    69A      0.300428    70A      0.309015  
      71A      0.322487    72A      0.325251    73A      0.326832  
      74A      0.335153    75A      0.336732    76A      0.340817  
      77A      0.342489    78A      0.350687    79A      0.351140  
      80A      0.356197    81A      0.361296    82A      0.364507  
      83A      0.369742    84A      0.380152    85A      0.401373  
      86A      0.404601    87A      0.411884    88A      0.418933  
      89A      0.423076    90A      0.429198    91A      0.433125  
      92A      0.445240    93A      0.452357    94A      0.462459  
      95A      0.462917    96A      0.491317    97A      0.510347  
      98A      0.515512    99A      0.530512   100A      0.545785  
     101A      0.552697   102A      0.568531   103A      0.581365  
     104A      0.584830   105A      0.593907   106A      0.595190  
     107A      0.612143   108A      0.612876   109A      0.652514  
     110A      0.659471   111A      0.674069   112A      0.682713  
     113A      0.683858   114A      0.690649   115A      0.694235  
     116A      0.698523   117A      0.701071   118A      0.706934  
     119A      0.709576   120A      0.716516   121A      0.717363  
     122A      0.726988   123A      0.734557   124A      0.736885  
     125A      0.743525   126A      0.743780   127A      0.747616  
     128A      0.757285   129A      0.757611   130A      0.764423  
     131A      0.773268   132A      0.778644   133A      0.787133  
     134A      0.794909   135A      0.797053   136A      0.801764  
     137A      0.805156   138A      0.818417   139A      0.829783  
     140A      0.831564   141A      0.844418   142A      0.845457  
     143A      0.847467   144A      0.865646   145A      0.869587  
     146A      0.871069   147A      0.877619   148A      0.878248  
     149A      0.880718   150A      0.891102   151A      0.905611  
     152A      0.911799   153A      0.914476   154A      0.915986  
     155A      0.930752   156A      0.936636   157A      0.943277  
     158A      0.945171   159A      0.953123   160A      0.957218  
     161A      0.966349   162A      0.974819   163A      0.983428  
     164A      0.987862   165A      0.998082   166A      1.008701  
     167A      1.025277   168A      1.034503   169A      1.048109  
     170A      1.070252   171A      1.076978   172A      1.083908  
     173A      1.089377   174A      1.098227   175A      1.112599  
     176A      1.126379   177A      1.131395   178A      1.135186  
     179A      1.150933   180A      1.164854   181A      1.171768  
     182A      1.182102   183A      1.194563   184A      1.195356  
     185A      1.208043   186A      1.234887   187A      1.248439  
     188A      1.299694   189A      1.300160   190A      1.302630  
     191A      1.353172   192A      1.358544   193A      1.375475  
     194A      1.380896   195A      1.385619   196A      1.395026  
     197A      1.397725   198A      1.411348   199A      1.415984  
     200A      1.475183   201A      1.488426   202A      1.498987  
     203A      1.502814   204A      1.514007   205A      1.518145  
     206A      1.534346   207A      1.546282   208A      1.554495  
     209A      1.554541   210A      1.557323   211A      1.573346  
     212A      1.575415   213A      1.593147   214A      1.599134  
     215A      1.606624   216A      1.615188   217A      1.625278  
     218A      1.639416   219A      1.650920   220A      1.662316  
     221A      1.676930   222A      1.686707   223A      1.699928  
     224A      1.714717   225A      1.719981   226A      1.725154  
     227A      1.730711   228A      1.731295   229A      1.750152  
     230A      1.764069   231A      1.785697   232A      1.786518  
     233A      1.797751   234A      1.801167   235A      1.813654  
     236A      1.815376   237A      1.823336   238A      1.828051  
     239A      1.842511   240A      1.843947   241A      1.888610  
     242A      1.890153   243A      1.896467   244A      1.902092  
     245A      1.908477   246A      1.909157   247A      1.917478  
     248A      1.918446   249A      1.927764   250A      1.931256  
     251A      1.932812   252A      1.948253   253A      1.951029  
     254A      1.975384   255A      1.977029   256A      1.984051  
     257A      1.991060   258A      2.001127   259A      2.005895  
     260A      2.007565   261A      2.014675   262A      2.019379  
     263A      2.025992   264A      2.028995   265A      2.041694  
     266A      2.054960   267A      2.055623   268A      2.059776  
     269A      2.065167   270A      2.069480   271A      2.078631  
     272A      2.089582   273A      2.091644   274A      2.098148  
     275A      2.102053   276A      2.113590   277A      2.136716  
     278A      2.139652   279A      2.142237   280A      2.145288  
     281A      2.151009   282A      2.156515   283A      2.169633  
     284A      2.172299   285A      2.192849   286A      2.222411  
     287A      2.239766   288A      2.244636   289A      2.250961  
     290A      2.265587   291A      2.269550   292A      2.274251  
     293A      2.275001   294A      2.275802   295A      2.292818  
     296A      2.302063   297A      2.316749   298A      2.317552  
     299A      2.326582   300A      2.331191   301A      2.374445  
     302A      2.383807   303A      2.404013   304A      2.426660  
     305A      2.452042   306A      2.457115   307A      2.463701  
     308A      2.515006   309A      2.519050   310A      2.524395  
     311A      2.531582   312A      2.548905   313A      2.552434  
     314A      2.587120   315A      2.665257   316A      2.671949  
     317A      2.683879   318A      2.702966   319A      2.728711  
     320A      2.754387   321A      2.759704   322A      2.782568  
     323A      2.789850   324A      2.822260   325A      2.837119  
     326A      2.846539   327A      2.889702   328A      2.894110  
     329A      2.900487   330A      2.912455   331A      2.930810  
     332A      2.935727   333A      3.011398   334A      3.012062  
     335A      3.021242   336A      3.031286   337A      3.032461  
     338A      3.033066   339A      3.038021   340A      3.068239  
     341A      3.078664   342A      3.119092   343A      3.134953  
     344A      3.138813   345A      3.231181   346A      3.239233  
     347A      3.243705   348A      3.243988   349A      3.247301  
     350A      3.263450   351A      3.282359   352A      3.291698  
     353A      3.294042   354A      3.367083   355A      3.370128  
     356A      3.429631   357A      3.443501   358A      3.445985  
     359A      3.461188   360A      3.465370   361A      3.469841  
     362A      3.508664   363A      3.538581   364A      3.539321  
     365A      3.541721   366A      3.548313   367A      3.549151  
     368A      3.558914   369A      3.586728   370A      3.668499  
     371A      3.674440   372A      3.695723   373A      3.699774  
     374A      3.707118   375A      3.709090   376A      3.711821  
     377A      3.725281   378A      3.743958   379A      3.756572  
     380A      3.829212   381A      3.841210   382A      3.841915  
     383A      3.858064   384A      3.859702   385A      3.869660  
     386A      3.878760   387A      3.882281   388A      3.900881  
     389A      3.915338   390A      3.986263   391A      3.992832  
     392A      3.994738   393A      4.001011   394A      4.026759  
     395A      4.029112   396A      4.038909   397A      4.075465  
     398A      4.076659   399A      4.081836   400A      4.092325  
     401A      4.105669   402A      4.163198   403A      4.168664  
     404A      4.206915   405A      4.254074   406A      4.264184  
     407A      4.267174   408A      4.273823   409A      4.295253  
     410A      4.309371   411A      4.311888   412A      4.342687  
     413A      4.380563   414A      4.385272   415A      4.393143  
     416A      4.407249   417A      4.476168   418A      4.542577  
     419A      4.542620   420A      4.551932   421A      4.593064  
     422A      4.640114   423A      4.659498   424A      4.661428  
     425A      4.689363   426A      4.692203   427A      4.692258  
     428A      4.742989   429A      4.751696   430A      4.796810  
     431A      4.825932   432A      4.842168   433A      4.860704  
     434A      4.882151   435A      4.885806   436A      4.890539  
     437A      4.901488   438A      4.923257   439A      4.940658  
     440A      4.980118   441A      4.986482   442A      5.006430  
     443A      5.008433   444A      5.023913   445A      5.085611  
     446A      5.086127   447A      5.187334   448A      5.208080  
     449A      5.271815   450A      5.346098   451A      5.351403  
     452A      5.446782   453A      5.449723   454A      5.620942  
     455A      5.624601   456A      5.637057   457A      5.736868  
     458A      5.742898   459A      5.949025   460A      6.105715  
     461A      6.107716   462A      6.157651   463A      6.188316  
     464A      6.254817   465A      6.256171   466A      6.462588  
     467A      6.470278   468A      6.473633   469A      6.490089  
     470A      6.700127   471A      6.700962   472A      6.707523  
     473A      6.712361   474A      6.724929   475A      6.774105  
     476A      6.791858   477A      6.920229   478A      6.922656  
     479A      6.929737   480A      6.938548   481A      6.938818  
     482A      6.979632   483A      6.984276   484A      6.996459  
     485A      7.027426   486A      7.029905   487A      7.045956  
     488A      7.085209   489A      7.091871   490A      7.133637  
     491A      7.143821   492A      7.190703   493A      7.208593  
     494A      7.211886   495A      7.279798   496A      7.361044  
     497A      7.375932   498A      7.383821   499A      7.403890  
     500A      7.584618   501A      7.591917   502A      7.608744  
     503A      7.626523   504A      7.654244   505A      7.655435  
     506A      7.661536   507A      7.706338   508A      7.719963  
     509A      7.841945   510A      7.852247   511A      7.855595  
     512A      7.857669   513A      7.866148   514A      7.889254  
     515A      7.971417   516A      7.981345   517A      7.984659  
     518A      8.024019   519A      8.082480   520A      8.274014  
     521A      8.278916   522A      8.382955   523A      8.383115  
     524A      8.389998   525A      8.432230   526A      8.485664  
     527A      8.493337   528A      8.506413   529A      8.587860  
     530A      8.598488   531A      8.687411   532A      8.785569  
     533A      8.787550   534A      8.821167   535A      8.829972  
     536A      8.846844   537A      8.847329   538A      9.007203  
     539A      9.028108   540A      9.164632   541A      9.168278  
     542A      9.175517   543A      9.225052   544A      9.273746  
     545A      9.278733   546A      9.417126   547A      9.419488  
     548A      9.456562   549A      9.472384   550A      9.536920  
     551A      9.540263   552A      9.570681   553A      9.598272  
     554A      9.689114   555A      9.689899   556A      9.690167  
     557A      9.691493   558A      9.692704   559A      9.749115  
     560A      9.751284   561A      9.780534   562A      9.853976  
     563A      9.929464   564A      9.988404   565A     10.046496  
     566A     10.050303   567A     10.155118   568A     10.155655  
     569A     10.316586   570A     10.324141   571A     10.326667  
     572A     10.367453   573A     10.372082   574A     10.406670  
     575A     10.450990   576A     10.563678   577A     10.564302  
     578A     10.700294   579A     10.751764   580A     10.759988  
     581A     10.775015   582A     10.834589   583A     10.838670  
     584A     10.871670   585A     10.913385   586A     10.914455  
     587A     11.199838   588A     11.205343   589A     11.307798  
     590A     11.308281   591A     11.513980   592A     12.043035  
     593A     12.045074   594A     12.046040   595A     12.411004  
     596A     13.149322   597A     13.150518   598A     13.180503  
     599A     13.183689   600A     13.190530   601A     13.551135  
     602A     14.570017   603A     14.582616   604A     14.628939  
     605A     14.805636   606A     14.939188   607A     16.383477  
     608A     17.350998   609A     17.361575   610A     20.643291  
     611A     28.309954   612A     30.080115   613A     30.101461  
     614A     30.540676   615A     30.543762   616A     30.973216  
     617A     51.822353   618A     71.209446   619A    139.355918  
     620A    139.368170   621A    139.627181   622A    728.701361  

    Final Occupation by Irrep:
              A 
    DOCC [    22 ]

  @DF-RHF Final Energy: -2612.09808850256968

   => Energetics <=

    Nuclear Repulsion Energy =             89.6704635997013924
    One-Electron Energy =               -3814.5942485581363144
    Two-Electron Energy =                1112.8256964558652271
    Total Energy =                      -2612.0980885025701355

Computation Completed


Properties will be evaluated at   0.000000,   0.000000,   0.000000 [a0]

Properties computed using the SCF density matrix

  Nuclear Dipole Moment: [e a0]
     X:  -262.2952      Y:    28.6818      Z:     0.0006

  Electronic Dipole Moment: [e a0]
     X:   262.4481      Y:   -29.5031      Z:    -0.0007

  Dipole Moment: [e a0]
     X:     0.1529      Y:    -0.8213      Z:    -0.0000     Total:     0.8354

  Dipole Moment: [D]
[...]
     153A      0.743131   154A      0.751811   155A      0.759513  
     156A      0.765327   157A      0.767356   158A      0.784524  
     159A      0.787932   160A      0.792719   161A      0.802694  
     162A      0.814209   163A      0.821850   164A      0.835233  
     165A      0.836281   166A      0.838644   167A      0.838891  
     168A      0.861946   169A      0.871384   170A      0.876425  
     171A      0.882624   172A      0.895212   173A      0.903128  
     174A      0.904150   175A      0.914181   176A      0.915832  
     177A      0.922334   178A      0.929947   179A      0.932756  
     180A      0.934665   181A      0.938633   182A      0.941614  
     183A      0.948886   184A      0.964877   185A      0.982588  
     186A      1.003349   187A      1.025344   188A      1.033941  
     189A      1.052942   190A      1.069552   191A      1.075554  
     192A      1.076023   193A      1.090401   194A      1.096625  
     195A      1.097298   196A      1.118916   197A      1.127356  
     198A      1.131374   199A      1.137080   200A      1.140013  
     201A      1.147174   202A      1.149722   203A      1.161723  
     204A      1.174157   205A      1.177552   206A      1.177613  
     207A      1.187192   208A      1.225308   209A      1.231874  
     210A      1.237057   211A      1.248077   212A      1.252224  
     213A      1.352804   214A      1.362063   215A      1.367667  
     216A      1.372924   217A      1.388610   218A      1.394000  
     219A      1.399489   220A      1.402440   221A      1.409795  
     222A      1.434975   223A      1.470833   224A      1.476066  
     225A      1.492613   226A      1.492978   227A      1.496754  
     228A      1.507404   229A      1.507713   230A      1.511582  
     231A      1.512878   232A      1.515281   233A      1.523862  
     234A      1.547505   235A      1.550281   236A      1.551735  
     237A      1.555095   238A      1.564126   239A      1.576387  
     240A      1.576809   241A      1.578781   242A      1.584054  
     243A      1.594843   244A      1.613239   245A      1.633890  
     246A      1.636267   247A      1.649918   248A      1.661154  
     249A      1.683054   250A      1.684055   251A      1.686518  
     252A      1.697060   253A      1.711423   254A      1.718112  
     255A      1.723937   256A      1.726213   257A      1.727542  
     258A      1.739973   259A      1.761843   260A      1.765028  
     261A      1.799795   262A      1.805248   263A      1.805750  
     264A      1.811668   265A      1.817294   266A      1.829913  
     267A      1.849700   268A      1.853296   269A      1.888055  
     270A      1.888872   271A      1.893031   272A      1.896134  
     273A      1.906377   274A      1.907066   275A      1.912140  
     276A      1.916525   277A      1.923332   278A      1.939172  
     279A      1.940516   280A      1.941023   281A      1.959488  
     282A      1.970382   283A      1.971117   284A      1.980148  
     285A      1.980222   286A      1.981933   287A      1.989039  
     288A      1.996038   289A      2.007075   290A      2.010849  
     291A      2.010899   292A      2.026795   293A      2.048229  
     294A      2.050534   295A      2.057621   296A      2.060481  
     297A      2.075861   298A      2.084230   299A      2.088296  
     300A      2.093974   301A      2.095353   302A      2.103638  
     303A      2.125822   304A      2.146024   305A      2.147319  
     306A      2.152728   307A      2.171767   308A      2.172290  
     309A      2.195263   310A      2.196897   311A      2.241403  
     312A      2.267891   313A      2.269931   314A      2.271106  
     315A      2.275697   316A      2.290885   317A      2.291677  
     318A      2.294602   319A      2.295754   320A      2.298461  
     321A      2.305743   322A      2.311983   323A      2.322498  
     324A      2.326471   325A      2.326970   326A      2.347308  
     327A      2.413971   328A      2.432941   329A      2.519034  
     330A      2.521536   331A      2.541622   332A      2.549989  
     333A      2.551371   334A      2.553674   335A      2.584279  
     336A      2.590641   337A      2.671600   338A      2.672303  
     339A      2.678105   340A      2.687372   341A      2.701852  
     342A      2.704583   343A      2.769676   344A      2.785426  
     345A      2.791517   346A      2.799142   347A      2.808956  
     348A      2.836405   349A      2.837888   350A      2.838177  
     351A      2.847766   352A      2.847875   353A      2.892387  
     354A      2.896701   355A      2.929557   356A      2.930438  
     357A      2.931344   358A      2.941849   359A      3.008921  
     360A      3.015615   361A      3.028987   362A      3.029714  
     363A      3.032784   364A      3.033005   365A      3.060992  
     366A      3.072621   367A      3.073750   368A      3.082422  
     369A      3.113777   370A      3.124385   371A      3.239416  
     372A      3.241194   373A      3.241689   374A      3.243163  
     375A      3.260701   376A      3.265470   377A      3.430483  
     378A      3.443329   379A      3.452845   380A      3.456962  
     381A      3.459320   382A      3.463645   383A      3.470961  
     384A      3.483632   385A      3.508071   386A      3.509948  
     387A      3.535761   388A      3.541322   389A      3.542924  
     390A      3.545050   391A      3.545320   392A      3.552867  
     393A      3.579183   394A      3.583251   395A      3.663538  
     396A      3.666893   397A      3.668555   398A      3.678183  
     399A      3.692724   400A      3.701924   401A      3.704564  
     402A      3.704721   403A      3.705645   404A      3.709936  
     405A      3.711622   406A      3.715171   407A      3.725361  
     408A      3.732018   409A      3.737899   410A      3.752024  
     411A      3.838782   412A      3.841510   413A      3.844044  
     414A      3.858539   415A      3.859380   416A      3.859809  
     417A      3.860074   418A      3.868394   419A      3.871840  
     420A      3.880036   421A      3.885842   422A      3.903181  
     423A      3.908399   424A      3.909628   425A      3.991103  
     426A      3.996926   427A      3.998706   428A      4.006109  
     429A      4.027436   430A      4.029530   431A      4.033304  
     432A      4.043315   433A      4.065422   434A      4.084313  
     435A      4.087252   436A      4.087607   437A      4.094541  
     438A      4.123153   439A      4.161077   440A      4.165335  
     441A      4.169043   442A      4.170779   443A      4.253302  
     444A      4.257302   445A      4.265936   446A      4.268227  
     447A      4.271348   448A      4.283914   449A      4.390779  
     450A      4.394385   451A      4.402871   452A      4.411161  
     453A      4.539949   454A      4.541798   455A      4.544030  
     456A      4.545822   457A      4.587165   458A      4.599058  
     459A      4.686908   460A      4.689292   461A      4.689959  
     462A      4.691263   463A      4.693628   464A      4.696571  
     465A      4.877996   466A      4.884549   467A      4.934270  
     468A      4.945802   469A      4.975541   470A      4.976560  
     471A      4.984039   472A      4.998399   473A      5.350626  
     474A      5.351380   475A      6.104847   476A      6.104890  
     477A      6.106213   478A      6.110449   479A      6.155227  
     480A      6.159527   481A      6.183496   482A      6.192642  
     483A      6.250860   484A      6.253232   485A      6.256369  
     486A      6.261647   487A      6.460818   488A      6.464649  
     489A      6.468295   490A      6.472312   491A      6.474082  
     492A      6.475118   493A      6.699802   494A      6.699826  
     495A      6.700504   496A      6.705556   497A      6.724631  
     498A      6.725540   499A      6.787199   500A      6.796286  
     501A      6.921634   502A      6.924134   503A      6.924441  
     504A      6.935717   505A      6.979011   506A      6.980201  
     507A      6.981808   508A      6.987132   509A      7.037659  
     510A      7.051083   511A      7.079865   512A      7.087740  
     513A      7.090545   514A      7.097065   515A      7.132900  
     516A      7.134143   517A      7.141691   518A      7.145455  
     519A      7.189179   520A      7.194763   521A      7.401885  
     522A      7.405812   523A      7.582828   524A      7.585990  
     525A      7.589565   526A      7.592949   527A      7.606845  
     528A      7.612629   529A      7.623307   530A      7.631351  
     531A      7.704942   532A      7.705859   533A      7.707729  
     534A      7.734098   535A      7.840003   536A      7.844476  
     537A      7.855622   538A      7.855798   539A      7.860473  
     540A      7.873642   541A      7.979864   542A      7.983013  
     543A      8.272863   544A      8.275489   545A      8.278538  
     546A      8.279790   547A      8.380356   548A      8.386117  
     549A      8.387429   550A      8.392503   551A      8.431310  
     552A      8.433863   553A      8.584258   554A      8.591985  
     555A      8.593992   556A      8.602550   557A      8.685691  
     558A      8.689570   559A      8.843503   560A      8.845742  
     561A      8.847411   562A      8.851215   563A      9.004201  
     564A      9.010588   565A      9.163504   566A      9.164140  
     567A      9.166188   568A      9.170426   569A      9.173901  
     570A      9.180759   571A      9.223465   572A      9.227141  
     573A      9.410598   574A      9.418329   575A      9.420883  
     576A      9.424580   577A      9.534696   578A      9.539496  
     579A      9.539883   580A      9.541429   581A      9.598478  
     582A      9.598604   583A      9.688656   584A      9.689036  
     585A      9.691575   586A      9.694873   587A      9.924752  
     588A      9.934428   589A      9.983948   590A      9.993291  
     591A     10.151361   592A     10.154264   593A     10.157425  
     594A     10.159551   595A     10.367448   596A     10.367916  
     597A     10.368941   598A     10.375046   599A     10.405484  
     600A     10.408336   601A     10.831057   602A     10.837223  
     603A     10.838071   604A     10.840314   605A     10.871599  
     606A     10.872088   607A     10.912923   608A     10.914006  
     609A     10.914353   610A     10.914904   611A     11.508524  
     612A     11.519651   613A     13.177293   614A     13.180189  
     615A     13.183482   616A     13.186634   617A     13.190120  
     618A     13.191971   619A     14.801873   620A     14.806964  
     621A     28.308801   622A     28.311039  

    Final Occupation by Irrep:
              A 
    DOCC [    44 ]

  @DF-RHF Final Energy: -5224.19681655883051

   => Energetics <=

    Nuclear Repulsion Energy =            338.6781456102892207
    One-Electron Energy =               -7947.7806499473490476
    Two-Electron Energy =                2384.9056877782290940
    Total Energy =                      -5224.1968165588314150

Computation Completed


Properties will be evaluated at   0.000000,   0.000000,   0.000000 [a0]

Properties computed using the SCF density matrix

  Nuclear Dipole Moment: [e a0]
     X:    -0.0011      Y:    -0.0002      Z:    -0.0003

  Electronic Dipole Moment: [e a0]
     X:     0.0009      Y:     0.0002      Z:     0.0003

  Dipole Moment: [e a0]
     X:    -0.0001      Y:    -0.0000      Z:    -0.0000     Total:     0.0001

  Dipole Moment: [D]
     X:    -0.0003      Y:    -0.0000      Z:    -0.0001     Total:     0.0003


*** tstop() called on node58.bme.utexas.edu at Thu Apr 23 18:37:30 2020
Module time:
	user time   =     133.43 seconds =       2.22 minutes
	system time =       3.14 seconds =       0.05 minutes
	total time  =         21 seconds =       0.35 minutes
Total time:
	user time   =     831.45 seconds =      13.86 minutes
	system time =      24.59 seconds =       0.41 minutes
	total time  =        148 seconds =       2.47 minutes

*** tstart() called on node58.bme.utexas.edu
*** at Thu Apr 23 18:37:30 2020


  //>>>>>>>>>>>>>>>>>>>>>>>>>>>>>>>>>>>//
  //               DFMP2               //
  //<<<<<<<<<<<<<<<<<<<<<<<<<<<<<<<<<<<//

   => Loading Basis Set <=

    Name: (AUG-CC-PVQZ AUX)
    Role: RIFIT
    Keyword: DF_BASIS_MP2
    atoms 1, 6      entry BR         line  1518 file /home/liuchw/anaconda3/envs/psi4env/share/psi4/basis/aug-cc-pvqz-ri.gbs 
    atoms 2, 7      entry C          line   184 file /home/liuchw/anaconda3/envs/psi4env/share/psi4/basis/aug-cc-pvqz-ri.gbs 
    atoms 3-5, 8-10 entry H          line    30 file /home/liuchw/anaconda3/envs/psi4env/share/psi4/basis/aug-cc-pvqz-ri.gbs 

	 --------------------------------------------------------
	                          DF-MP2                         
	      2nd-Order Density-Fitted Moller-Plesset Theory     
	              RMP2 Wavefunction,   8 Threads             
	                                                         
	        Rob Parrish, Justin Turney, Andy Simmonett,      
	           Ed Hohenstein, and C. David Sherrill          
	 --------------------------------------------------------

   => Auxiliary Basis Set <=

  Basis Set: (AUG-CC-PVQZ AUX)
    Blend: AUG-CC-PVQZ-RI
    Number of shells: 296
    Number of basis function: 1340
    Number of Cartesian functions: 1878
    Spherical Harmonics?: true
    Max angular momentum: 6

	 --------------------------------------------------------
	                 NBF =   622, NAUX =  1340
	 --------------------------------------------------------
	   CLASS    FOCC     OCC    AOCC    AVIR     VIR    FVIR
	   PAIRS       0      44      44     578     578       0
	 --------------------------------------------------------

	-----------------------------------------------------------
	 ==================> DF-MP2 Energies <==================== 
	-----------------------------------------------------------
	 Reference Energy          =   -5224.1968165588305055 [Eh]
	 Singles Energy            =      -0.0000000000000000 [Eh]
	 Same-Spin Energy          =      -0.3226840954830454 [Eh]
	 Opposite-Spin Energy      =      -0.9079377142033473 [Eh]
	 Correlation Energy        =      -1.2306218096863928 [Eh]
	 Total Energy              =   -5225.4274383685169596 [Eh]
	-----------------------------------------------------------
	 ================> DF-SCS-MP2 Energies <================== 
	-----------------------------------------------------------
	 SCS Same-Spin Scale       =       0.3333333333333333 [-]
	 SCS Opposite-Spin Scale   =       1.2000000000000000 [-]
	 SCS Same-Spin Energy      =      -0.1075613651610151 [Eh]
	 SCS Opposite-Spin Energy  =      -1.0895252570440168 [Eh]
	 SCS Correlation Energy    =      -1.1970866222050320 [Eh]
	 SCS Total Energy          =   -5225.3939031810359666 [Eh]
	-----------------------------------------------------------


*** tstop() called on node58.bme.utexas.edu at Thu Apr 23 18:37:48 2020
Module time:
	user time   =     102.01 seconds =       1.70 minutes
	system time =       2.03 seconds =       0.03 minutes
	total time  =         18 seconds =       0.30 minutes
Total time:
	user time   =     933.46 seconds =      15.56 minutes
	system time =      26.62 seconds =       0.44 minutes
	total time  =        166 seconds =       2.77 minutes

  //>>>>>>>>>>>>>>>>>>>>>>>>>>>>>>>>>>>//
  //  CBS Results: mp2/aug-cc-pv[tq]z  //
  //<<<<<<<<<<<<<<<<<<<<<<<<<<<<<<<<<<<//


   ==> HF <==

   HI-zeta (4) Energy:               -5224.196816558831


   ==> Helgaker 2-point correlated extrapolation for method: MP2 <==

   LO-zeta (3) Energy:               -5225.169542660251
   HI-zeta (4) Energy:               -5225.427438368517
   Alpha (exponent) Value:             3.000000000000
   Extrapolated Energy:              -5225.615632534008

   @Extrapolated MP2/(T,Q):          -5225.615632534008



   ==> Helgaker 2-point correlated extrapolation for method: HF <==

   LO-zeta (3) Energy:               -5224.186506371292
   HI-zeta (4) Energy:               -5224.196816558831
   Alpha (exponent) Value:             3.000000000000
   Extrapolated Energy:              -5224.204340209198

   @Extrapolated HF/(T,Q):           -5224.204340209198


   ==> Components <==

  ---------------------------------------------------------------------------------------------------------
                          Method / Basis                      Rqd      Energy [Eh]   Variable
  ---------------------------------------------------------------------------------------------------------
                              hf / aug-cc-pvtz                  *   -5224.18650637   HF TOTAL ENERGY
                             mp2 / aug-cc-pvtz                  *   -5225.16954266   MP2 TOTAL ENERGY
                              hf / aug-cc-pvqz                  *   -5224.19681656   HF TOTAL ENERGY
                             mp2 / aug-cc-pvqz                  *   -5225.42743837   MP2 TOTAL ENERGY
  ---------------------------------------------------------------------------------------------------------

   ==> Stages <==

  ---------------------------------------------------------------------------------------------------------
      Stage               Method / Basis                       Wt      Energy [Eh]   Scheme
  ---------------------------------------------------------------------------------------------------------
        scf                   hf / aug-cc-pvqz                  1   -5224.19681656   xtpl_highest_1
       corl                  mp2 / aug-cc-pv[tq]z               1   -5225.61563253   corl_xtpl_helgaker_2
       corl                   hf / aug-cc-pv[tq]z              -1   -5224.20434021   corl_xtpl_helgaker_2
  ---------------------------------------------------------------------------------------------------------

   ==> CBS <==

  ---------------------------------------------------------------------------------------------------------
      Stage               Method / Basis                               Energy [Eh]   Scheme
  ---------------------------------------------------------------------------------------------------------
        scf                   hf / aug-cc-pvqz                      -5224.19681656   xtpl_highest_1
       corl                  mp2 / aug-cc-pv[tq]z                      -1.41129232   corl_xtpl_helgaker_2
      total                  CBS                                    -5225.60810888   
  ---------------------------------------------------------------------------------------------------------
   => Loading Basis Set <=

    Name: DEF2-SVP
    Role: ORBITAL
    Keyword: BASIS
    atoms 1, 6      entry BR         line  1084 file /home/liuchw/anaconda3/envs/psi4env/share/psi4/basis/def2-svp.gbs 
    atoms 2, 7      entry C          line    90 file /home/liuchw/anaconda3/envs/psi4env/share/psi4/basis/def2-svp.gbs 
    atoms 3-5, 8-10 entry H          line    15 file /home/liuchw/anaconda3/envs/psi4env/share/psi4/basis/def2-svp.gbs 


       N-Body: Complex Energy (fragments = (1, 2), basis = (1, 2): -5225.60810888364085)

   ==> N-Body: Counterpoise Corrected (CP) energies <==

   n-Body     Total Energy [Eh]       I.E. [kcal/mol]      Delta [kcal/mol]
        1    -5225.607041839267        0.000000000000        0.000000000000
        2    -5225.607867983492       -0.518413327547       -0.518413327547

   => Loading Basis Set <=

    Name: DEF2-SVP
    Role: ORBITAL
    Keyword: BASIS
    atoms 1, 6      entry BR         line  1084 file /home/liuchw/anaconda3/envs/psi4env/share/psi4/basis/def2-svp.gbs 
    atoms 2, 7      entry C          line    90 file /home/liuchw/anaconda3/envs/psi4env/share/psi4/basis/def2-svp.gbs 
    atoms 3-5, 8-10 entry H          line    15 file /home/liuchw/anaconda3/envs/psi4env/share/psi4/basis/def2-svp.gbs 


    Psi4 stopped on: Thursday, 23 April 2020 06:37PM
    Psi4 wall time for execution: 0:02:46.62

*** Psi4 exiting successfully. Buy a developer a beer!
