
    -----------------------------------------------------------------------
          Psi4: An Open-Source Ab Initio Electronic Structure Package
                               Psi4 1.4a2.dev224 

                         Git: Rev {master} e453b16 


    R. M. Parrish, L. A. Burns, D. G. A. Smith, A. C. Simmonett,
    A. E. DePrince III, E. G. Hohenstein, U. Bozkaya, A. Yu. Sokolov,
    R. Di Remigio, R. M. Richard, J. F. Gonthier, A. M. James,
    H. R. McAlexander, A. Kumar, M. Saitow, X. Wang, B. P. Pritchard,
    P. Verma, H. F. Schaefer III, K. Patkowski, R. A. King, E. F. Valeev,
    F. A. Evangelista, J. M. Turney, T. D. Crawford, and C. D. Sherrill,
    J. Chem. Theory Comput. 13(7) pp 3185--3197 (2017).
    (doi: 10.1021/acs.jctc.7b00174)


                         Additional Contributions by
    P. Kraus, H. Kruse, M. H. Lechner, M. C. Schieber, R. A. Shaw,
    A. Alenaizan, R. Galvelis, Z. L. Glick, S. Lehtola, and J. P. Misiewicz

    -----------------------------------------------------------------------


    Psi4 started on: Saturday, 11 April 2020 04:19PM

    Process ID: 85512
    Host:       node144.bme.utexas.edu
    PSIDATADIR: /home/liuchw/anaconda3/envs/psi4env/share/psi4
    Memory:     500.0 MiB
    Threads:    6
    
  ==> Input File <==

--------------------------------------------------------------------------
#Generated by lconvert.py for cbs job

memory 40 GB

molecule  {
0 1
 Br        2.1774920    -0.6074080     0.0001450
  C        1.8231200     1.2881860     0.0001140
  H        0.7492340     1.4265720     0.0001430
  H        2.2697630     1.7104300    -0.8913010
  H        2.2698170     1.7104690     0.8914830
--
0 1
 Br       -2.1771390     0.6074800     0.0001610
  C       -1.8230210    -1.2881600     0.0001200
  H       -2.2698510    -1.7103600    -0.8912220
  H       -2.2696540    -1.7103620     0.8915600
  H       -0.7491570    -1.4267140     0.0000030
units angstrom
no_reorient
symmetry c1
}

set {
scf_type DF
mp2_type DF
e_convergence 7
reference rhf
}

energy('mp2/aug-cc-pv[tq]z', bsse_type='cp')
--------------------------------------------------------------------------

  Memory set to  37.253 GiB by Python driver.

Scratch directory: /scratch//


   ===> N-Body Interaction Abacus <===
        BSSE Treatment:                     cp
        Number of 1-body computations:     4
        Number of 2-body computations:     1

   ==> N-Body: Now computing 1-body complexes <==


       N-Body: Computing complex (1/4) with fragments (2,) in the basis of fragments (2,).


Scratch directory: /scratch//

  //>>>>>>>>>>>>>>>>>>>>>>>>>>>>>>>>>>>//
  //   CBS Setup: mp2/aug-cc-pv[tq]z   //
  //<<<<<<<<<<<<<<<<<<<<<<<<<<<<<<<<<<<//

    Naive listing of computations required.
             hf / aug-cc-pvqz              for  HF TOTAL ENERGY
            mp2 / aug-cc-pvtz              for  MP2 TOTAL ENERGY
            mp2 / aug-cc-pvqz              for  MP2 TOTAL ENERGY
             hf / aug-cc-pvtz              for  HF TOTAL ENERGY
             hf / aug-cc-pvqz              for  HF TOTAL ENERGY

    Enlightened listing of computations required.
            mp2 / aug-cc-pvtz              for  MP2 TOTAL ENERGY
            mp2 / aug-cc-pvqz              for  MP2 TOTAL ENERGY

    Full listing of computations to be obtained (required and bonus).
             hf / aug-cc-pvtz              for  HF TOTAL ENERGY
            mp2 / aug-cc-pvtz              for  MP2 TOTAL ENERGY
             hf / aug-cc-pvqz              for  HF TOTAL ENERGY
            mp2 / aug-cc-pvqz              for  MP2 TOTAL ENERGY

  //>>>>>>>>>>>>>>>>>>>>>>>>>>>>>>>>>>>>//
  // CBS Computation: MP2 / AUG-CC-PVTZ //
  //<<<<<<<<<<<<<<<<<<<<<<<<<<<<<<<<<<<<//


Scratch directory: /scratch//

*** tstart() called on node144.bme.utexas.edu
*** at Sat Apr 11 16:19:21 2020

   => Loading Basis Set <=

    Name: AUG-CC-PVTZ
    Role: ORBITAL
    Keyword: BASIS
    atoms 1   entry BR         line  4208 file /home/liuchw/anaconda3/envs/psi4env/share/psi4/basis/aug-cc-pvtz.gbs 
    atoms 2   entry C          line   239 file /home/liuchw/anaconda3/envs/psi4env/share/psi4/basis/aug-cc-pvtz.gbs 
    atoms 3-5 entry H          line    40 file /home/liuchw/anaconda3/envs/psi4env/share/psi4/basis/aug-cc-pvtz.gbs 


         ---------------------------------------------------------
                                   SCF
               by Justin Turney, Rob Parrish, Andy Simmonett
                          and Daniel G. A. Smith
                              RHF Reference
                        6 Threads,  38146 MiB Core
         ---------------------------------------------------------

  ==> Geometry <==

    Molecular point group: c1
    Full point group: C1

    Geometry (in Angstrom), charge = 0, multiplicity = 1:

       Center              X                  Y                   Z               Mass       
    ------------   -----------------  -----------------  -----------------  -----------------
         BR          -2.177294411961     0.607447908890     0.000013950342    78.918337600000
         C           -1.823176411961    -1.288192091110    -0.000027049658    12.000000000000
         H           -2.270006411961    -1.710392091110    -0.891369049658     1.007825032230
         H           -2.269809411961    -1.710394091110     0.891412950342     1.007825032230
         H           -0.749312411961    -1.426746091110    -0.000144049658     1.007825032230

  Running in c1 symmetry.

  Rotational constants: A =      0.36125  B =      0.03845  C =      0.03498 [cm^-1]
  Rotational constants: A =  10830.09366  B =   1152.56788  C =   1048.63025 [MHz]
  Nuclear repulsion =   89.670472500972636

  Charge       = 0
  Multiplicity = 1
  Electrons    = 44
  Nalpha       = 22
  Nbeta        = 22

  ==> Algorithm <==

  SCF Algorithm Type is DF.
  DIIS enabled.
  MOM disabled.
  Fractional occupation disabled.
  Guess Type is SAD.
  Energy threshold   = 1.00e-07
  Density threshold  = 1.00e-08
  Integral threshold = 0.00e+00

  ==> Primary Basis <==

  Basis Set: AUG-CC-PVTZ
    Blend: AUG-CC-PVTZ
    Number of shells: 60
    Number of basis function: 174
    Number of Cartesian functions: 199
    Spherical Harmonics?: true
    Max angular momentum: 3

   => Loading Basis Set <=

    Name: (AUG-CC-PVTZ AUX)
    Role: JKFIT
    Keyword: DF_BASIS_SCF
    atoms 1   entry BR         line  1492 file /home/liuchw/anaconda3/envs/psi4env/share/psi4/basis/aug-cc-pvtz-jkfit.gbs 
    atoms 2   entry C          line   162 file /home/liuchw/anaconda3/envs/psi4env/share/psi4/basis/aug-cc-pvtz-jkfit.gbs 
    atoms 3-5 entry H          line    70 file /home/liuchw/anaconda3/envs/psi4env/share/psi4/basis/aug-cc-pvtz-jkfit.gbs 

  ==> Pre-Iterations <==

   -------------------------------------------------------
    Irrep   Nso     Nmo     Nalpha   Nbeta   Ndocc  Nsocc
   -------------------------------------------------------
     A        174     174       0       0       0       0
   -------------------------------------------------------
    Total     174     174      22      22      22       0
   -------------------------------------------------------

  ==> Integral Setup <==

  DFHelper Memory: AOs need 0.120 GiB; user supplied 27.940 GiB. Using in-core AOs.

  ==> MemDFJK: Density-Fitted J/K Matrices <==

    J tasked:                   Yes
    K tasked:                   Yes
    wK tasked:                   No
    OpenMP threads:               6
    Memory [MiB]:             28610
    Algorithm:                 Core
    Schwarz Cutoff:           1E-12
    Mask sparsity (%):       0.0000
    Fitting Condition:        1E-10

   => Auxiliary Basis Set <=

  Basis Set: (AUG-CC-PVTZ AUX)
    Blend: AUG-CC-PVTZ-JKFIT
    Number of shells: 130
    Number of basis function: 490
    Number of Cartesian functions: 625
    Spherical Harmonics?: true
    Max angular momentum: 4

  Minimum eigenvalue in the overlap matrix is 8.1489110757E-05.
  Using Symmetric Orthogonalization.

  SCF Guess: Superposition of Atomic Densities via on-the-fly atomic UHF.

  ==> Iterations <==

                           Total Energy        Delta E     RMS |[F,P]|

   @DF-RHF iter SAD: -2609.99264122349450   -2.60999e+03   0.00000e+00 
   @DF-RHF iter   1: -2611.91672689509960   -1.92409e+00   5.46969e-03 DIIS
   @DF-RHF iter   2: -2612.06226812252726   -1.45541e-01   2.47078e-03 DIIS
   @DF-RHF iter   3: -2612.09222681452502   -2.99587e-02   1.43675e-04 DIIS
   @DF-RHF iter   4: -2612.09286609961100   -6.39285e-04   4.24397e-05 DIIS
   @DF-RHF iter   5: -2612.09292045585789   -5.43562e-05   1.32223e-05 DIIS
   @DF-RHF iter   6: -2612.09292460730421   -4.15145e-06   3.28676e-06 DIIS
   @DF-RHF iter   7: -2612.09292489770269   -2.90398e-07   7.50281e-07 DIIS
   @DF-RHF iter   8: -2612.09292492668783   -2.89851e-08   2.31333e-07 DIIS
   @DF-RHF iter   9: -2612.09292492982195   -3.13412e-09   3.56326e-08 DIIS
   @DF-RHF iter  10: -2612.09292492988425   -6.23004e-11   3.76130e-09 DIIS
  Energy and wave function converged.


  ==> Post-Iterations <==

    Orbital Energies [Eh]
    ---------------------

    Doubly Occupied:                                                      

       1A   -490.013254     2A    -65.153253     3A    -58.508535  
       4A    -58.507165     5A    -58.507165     6A    -11.287326  
       7A     -9.826234     8A     -7.437799     9A     -7.431107  
      10A     -7.431106    11A     -3.181381    12A     -3.177902  
      13A     -3.177902    14A     -3.169340    15A     -3.169340  
      16A     -1.064088    17A     -0.897085    18A     -0.613542  
      19A     -0.612993    20A     -0.507690    21A     -0.401719  
      22A     -0.401662  

    Virtual:                                                              

      23A      0.027859    24A      0.046237    25A      0.046285  
      26A      0.058460    27A      0.100771    28A      0.115703  
      29A      0.115712    30A      0.127975    31A      0.128109  
      32A      0.131157    33A      0.176078    34A      0.199503  
      35A      0.199519    36A      0.213646    37A      0.263068  
      38A      0.263251    39A      0.290254    40A      0.310963  
      41A      0.310997    42A      0.333897    43A      0.334385  
      44A      0.334515    45A      0.342336    46A      0.393531  
      47A      0.397419    48A      0.397467    49A      0.415575  
      50A      0.433848    51A      0.433934    52A      0.437008  
      53A      0.448390    54A      0.448416    55A      0.494716  
      56A      0.494964    57A      0.578557    58A      0.578646  
      59A      0.579006    60A      0.668533    61A      0.668746  
      62A      0.700510    63A      0.768739    64A      0.784950  
      65A      0.784982    66A      0.817568    67A      0.817763  
      68A      0.867201    69A      0.868115    70A      0.868124  
      71A      0.914281    72A      0.932461    73A      0.935244  
      74A      0.954609    75A      0.955286    76A      0.956186  
      77A      0.977408    78A      0.992459    79A      0.992716  
      80A      1.060021    81A      1.073202    82A      1.073240  
      83A      1.085878    84A      1.086303    85A      1.132053  
      86A      1.132514    87A      1.144246    88A      1.224715  
      89A      1.224909    90A      1.255650    91A      1.255942  
      92A      1.296656    93A      1.351929    94A      1.438628  
      95A      1.438913    96A      1.476221    97A      1.549153  
      98A      1.581329    99A      1.581641   100A      1.613507  
     101A      1.627829   102A      1.627888   103A      1.652395  
     104A      1.710275   105A      1.718733   106A      1.719133  
     107A      1.902355   108A      1.902919   109A      1.937180  
     110A      2.007672   111A      2.008244   112A      2.050500  
     113A      2.158026   114A      2.158596   115A      2.253931  
     116A      2.254138   117A      2.265965   118A      2.344088  
     119A      2.344098   120A      2.345407   121A      2.346178  
     122A      2.428998   123A      2.429112   124A      2.472487  
     125A      2.533732   126A      2.534193   127A      2.609374  
     128A      2.609428   129A      2.642553   130A      2.901942  
     131A      3.006076   132A      3.311544   133A      3.311929  
     134A      3.478545   135A      3.478553   136A      3.504765  
     137A      3.558161   138A      3.577615   139A      3.577941  
     140A      3.727354   141A      3.727671   142A      3.912878  
     143A      3.913396   144A      3.933707   145A      4.022891  
     146A      4.057400   147A      4.058309   148A      4.069950  
     149A      4.123655   150A      4.123722   151A      4.208067  
     152A      4.441804   153A      4.442539   154A      4.471976  
     155A      4.744839   156A      4.745382   157A      4.836845  
     158A      4.857617   159A      4.930587   160A      4.930794  
     161A      5.045632   162A      5.148784   163A      5.150569  
     164A      5.296601   165A      5.486421   166A      5.488237  
     167A      5.588964   168A      5.681416   169A      6.018825  
     170A      6.021525   171A      6.110317   172A      6.580058  
     173A      6.582350   174A     16.981434  

    Final Occupation by Irrep:
              A 
    DOCC [    22 ]

  @DF-RHF Final Energy: -2612.09292492988425

   => Energetics <=

    Nuclear Repulsion Energy =             89.6704725009726360
    One-Electron Energy =               -3814.5716185110100014
    Two-Electron Energy =                1112.8082210801535439
    Total Energy =                      -2612.0929249298837931

Computation Completed


Properties will be evaluated at   0.000000,   0.000000,   0.000000 [a0]

Properties computed using the SCF density matrix

  Nuclear Dipole Moment: [e a0]
     X:  -174.6740      Y:    16.4104      Z:     0.0004

  Electronic Dipole Moment: [e a0]
     X:   174.8273      Y:   -17.2339      Z:    -0.0004

  Dipole Moment: [e a0]
     X:     0.1533      Y:    -0.8236      Z:    -0.0000     Total:     0.8377

  Dipole Moment: [D]
     X:     0.3897      Y:    -2.0933      Z:    -0.0000     Total:     2.1293


*** tstop() called on node144.bme.utexas.edu at Sat Apr 11 16:19:28 2020
Module time:
	user time   =      23.24 seconds =       0.39 minutes
	system time =       1.59 seconds =       0.03 minutes
	total time  =          7 seconds =       0.12 minutes
Total time:
	user time   =      23.24 seconds =       0.39 minutes
	system time =       1.59 seconds =       0.03 minutes
	total time  =          7 seconds =       0.12 minutes

*** tstart() called on node144.bme.utexas.edu
*** at Sat Apr 11 16:19:28 2020


  //>>>>>>>>>>>>>>>>>>>>>>>>>>>>>>>>>>>//
  //               DFMP2               //
  //<<<<<<<<<<<<<<<<<<<<<<<<<<<<<<<<<<<//

   => Loading Basis Set <=

    Name: (AUG-CC-PVTZ AUX)
    Role: RIFIT
    Keyword: DF_BASIS_MP2
    atoms 1   entry BR         line  1248 file /home/liuchw/anaconda3/envs/psi4env/share/psi4/basis/aug-cc-pvtz-ri.gbs 
    atoms 2   entry C          line   148 file /home/liuchw/anaconda3/envs/psi4env/share/psi4/basis/aug-cc-pvtz-ri.gbs 
    atoms 3-5 entry H          line    30 file /home/liuchw/anaconda3/envs/psi4env/share/psi4/basis/aug-cc-pvtz-ri.gbs 

	 --------------------------------------------------------
	                          DF-MP2                         
	      2nd-Order Density-Fitted Moller-Plesset Theory     
	              RMP2 Wavefunction,   6 Threads             
	                                                         
	        Rob Parrish, Justin Turney, Andy Simmonett,      
	           Ed Hohenstein, and C. David Sherrill          
	 --------------------------------------------------------

   => Auxiliary Basis Set <=

  Basis Set: (AUG-CC-PVTZ AUX)
    Blend: AUG-CC-PVTZ-RI
    Number of shells: 113
    Number of basis function: 435
    Number of Cartesian functions: 562
    Spherical Harmonics?: true
    Max angular momentum: 5

	 --------------------------------------------------------
	                 NBF =   174, NAUX =   435
	 --------------------------------------------------------
	   CLASS    FOCC     OCC    AOCC    AVIR     VIR    FVIR
	   PAIRS       0      22      22     152     152       0
	 --------------------------------------------------------

	-----------------------------------------------------------
	 ==================> DF-MP2 Energies <==================== 
	-----------------------------------------------------------
	 Reference Energy          =   -2612.0929249298842478 [Eh]
	 Singles Energy            =      -0.0000000000000000 [Eh]
	 Same-Spin Energy          =      -0.1267786797296579 [Eh]
	 Opposite-Spin Energy      =      -0.3643839680297334 [Eh]
	 Correlation Energy        =      -0.4911626477593913 [Eh]
	 Total Energy              =   -2612.5840875776434586 [Eh]
	-----------------------------------------------------------
	 ================> DF-SCS-MP2 Energies <================== 
	-----------------------------------------------------------
	 SCS Same-Spin Scale       =       0.3333333333333333 [-]
	 SCS Opposite-Spin Scale   =       1.2000000000000000 [-]
	 SCS Same-Spin Energy      =      -0.0422595599098860 [Eh]
	 SCS Opposite-Spin Energy  =      -0.4372607616356801 [Eh]
	 SCS Correlation Energy    =      -0.4795203215455660 [Eh]
	 SCS Total Energy          =   -2612.5724452514295990 [Eh]
	-----------------------------------------------------------


*** tstop() called on node144.bme.utexas.edu at Sat Apr 11 16:19:30 2020
Module time:
	user time   =       7.17 seconds =       0.12 minutes
	system time =       0.42 seconds =       0.01 minutes
	total time  =          2 seconds =       0.03 minutes
Total time:
	user time   =      30.42 seconds =       0.51 minutes
	system time =       2.02 seconds =       0.03 minutes
	total time  =          9 seconds =       0.15 minutes

  //>>>>>>>>>>>>>>>>>>>>>>>>>>>>>>>>>>>>//
  // CBS Computation: MP2 / AUG-CC-PVQZ //
  //<<<<<<<<<<<<<<<<<<<<<<<<<<<<<<<<<<<<//


Scratch directory: /scratch//

*** tstart() called on node144.bme.utexas.edu
*** at Sat Apr 11 16:19:30 2020

   => Loading Basis Set <=

    Name: AUG-CC-PVQZ
    Role: ORBITAL
    Keyword: BASIS
    atoms 1   entry BR         line  5448 file /home/liuchw/anaconda3/envs/psi4env/share/psi4/basis/aug-cc-pvqz.gbs 
    atoms 2   entry C          line   303 file /home/liuchw/anaconda3/envs/psi4env/share/psi4/basis/aug-cc-pvqz.gbs 
    atoms 3-5 entry H          line    40 file /home/liuchw/anaconda3/envs/psi4env/share/psi4/basis/aug-cc-pvqz.gbs 


         ---------------------------------------------------------
                                   SCF
               by Justin Turney, Rob Parrish, Andy Simmonett
                          and Daniel G. A. Smith
                              RHF Reference
                        6 Threads,  38146 MiB Core
         ---------------------------------------------------------

  ==> Geometry <==

    Molecular point group: c1
    Full point group: C1

    Geometry (in Angstrom), charge = 0, multiplicity = 1:

       Center              X                  Y                   Z               Mass       
    ------------   -----------------  -----------------  -----------------  -----------------
         BR          -2.177294411961     0.607447908890     0.000013950342    78.918337600000
         C           -1.823176411961    -1.288192091110    -0.000027049658    12.000000000000
         H           -2.270006411961    -1.710392091110    -0.891369049658     1.007825032230
         H           -2.269809411961    -1.710394091110     0.891412950342     1.007825032230
         H           -0.749312411961    -1.426746091110    -0.000144049658     1.007825032230

  Running in c1 symmetry.

  Rotational constants: A =      0.36125  B =      0.03845  C =      0.03498 [cm^-1]
  Rotational constants: A =  10830.09366  B =   1152.56788  C =   1048.63025 [MHz]
  Nuclear repulsion =   89.670472500972636

  Charge       = 0
  Multiplicity = 1
  Electrons    = 44
  Nalpha       = 22
  Nbeta        = 22

  ==> Algorithm <==

  SCF Algorithm Type is DF.
  DIIS enabled.
  MOM disabled.
  Fractional occupation disabled.
  Guess Type is SAD.
  Energy threshold   = 1.00e-07
  Density threshold  = 1.00e-08
  Integral threshold = 0.00e+00

  ==> Primary Basis <==

  Basis Set: AUG-CC-PVQZ
    Blend: AUG-CC-PVQZ
    Number of shells: 87
    Number of basis function: 311
    Number of Cartesian functions: 389
    Spherical Harmonics?: true
    Max angular momentum: 4

   => Loading Basis Set <=

    Name: (AUG-CC-PVQZ AUX)
    Role: JKFIT
    Keyword: DF_BASIS_SCF
    atoms 1   entry BR         line  1612 file /home/liuchw/anaconda3/envs/psi4env/share/psi4/basis/aug-cc-pvqz-jkfit.gbs 
    atoms 2   entry C          line   178 file /home/liuchw/anaconda3/envs/psi4env/share/psi4/basis/aug-cc-pvqz-jkfit.gbs 
    atoms 3-5 entry H          line    70 file /home/liuchw/anaconda3/envs/psi4env/share/psi4/basis/aug-cc-pvqz-jkfit.gbs 

  ==> Pre-Iterations <==

   -------------------------------------------------------
    Irrep   Nso     Nmo     Nalpha   Nbeta   Ndocc  Nsocc
   -------------------------------------------------------
     A        311     311       0       0       0       0
   -------------------------------------------------------
    Total     311     311      22      22      22       0
   -------------------------------------------------------

  ==> Integral Setup <==

  DFHelper Memory: AOs need 0.492 GiB; user supplied 27.940 GiB. Using in-core AOs.

  ==> MemDFJK: Density-Fitted J/K Matrices <==

    J tasked:                   Yes
    K tasked:                   Yes
    wK tasked:                   No
    OpenMP threads:               6
    Memory [MiB]:             28610
    Algorithm:                 Core
    Schwarz Cutoff:           1E-12
    Mask sparsity (%):       0.0289
    Fitting Condition:        1E-10

   => Auxiliary Basis Set <=

  Basis Set: (AUG-CC-PVQZ AUX)
    Blend: AUG-CC-PVQZ-JKFIT
    Number of shells: 148
    Number of basis function: 640
    Number of Cartesian functions: 872
    Spherical Harmonics?: true
    Max angular momentum: 5

  Minimum eigenvalue in the overlap matrix is 1.6681703129E-05.
  Using Symmetric Orthogonalization.

  SCF Guess: Superposition of Atomic Densities via on-the-fly atomic UHF.

  ==> Iterations <==

                           Total Energy        Delta E     RMS |[F,P]|

   @DF-RHF iter SAD: -2609.97749556970393   -2.60998e+03   0.00000e+00 
   @DF-RHF iter   1: -2611.88316219480294   -1.90567e+00   3.90032e-03 DIIS
   @DF-RHF iter   2: -2612.04769458195551   -1.64532e-01   2.06704e-03 DIIS
   @DF-RHF iter   3: -2612.09730844986552   -4.96139e-02   8.69562e-05 DIIS
   @DF-RHF iter   4: -2612.09800942118409   -7.00971e-04   2.73760e-05 DIIS
   @DF-RHF iter   5: -2612.09807965244227   -7.02313e-05   9.31617e-06 DIIS
   @DF-RHF iter   6: -2612.09808592606623   -6.27362e-06   2.16539e-06 DIIS
   @DF-RHF iter   7: -2612.09808630965381   -3.83588e-07   5.00513e-07 DIIS
   @DF-RHF iter   8: -2612.09808634596993   -3.63161e-08   1.57494e-07 DIIS
   @DF-RHF iter   9: -2612.09808635047784   -4.50791e-09   3.12141e-08 DIIS
   @DF-RHF iter  10: -2612.09808635062018   -1.42336e-10   4.46752e-09 DIIS
  Energy and wave function converged.


  ==> Post-Iterations <==

    Orbital Energies [Eh]
    ---------------------

    Doubly Occupied:                                                      

       1A   -490.012288     2A    -65.152733     3A    -58.508139  
       4A    -58.506740     5A    -58.506740     6A    -11.286038  
       7A     -9.826015     8A     -7.437499     9A     -7.431026  
      10A     -7.431025    11A     -3.181066    12A     -3.177650  
      13A     -3.177650    14A     -3.169267    15A     -3.169267  
      16A     -1.063757    17A     -0.896943    18A     -0.613553  
      19A     -0.613005    20A     -0.507596    21A     -0.401767  
      22A     -0.401710  

    Virtual:                                                              

      23A      0.024716    24A      0.041704    25A      0.041748  
      26A      0.049887    27A      0.085538    28A      0.095197  
      29A      0.095208    30A      0.108549    31A      0.108683  
      32A      0.114501    33A      0.154021    34A      0.169882  
      35A      0.169889    36A      0.191337    37A      0.230508  
      38A      0.230607    39A      0.235739    40A      0.256913  
      41A      0.256939    42A      0.267217    43A      0.272216  
      44A      0.273786    45A      0.273942    46A      0.310677  
      47A      0.319689    48A      0.319718    49A      0.332435  
      50A      0.349049    51A      0.351131    52A      0.351150  
      53A      0.363330    54A      0.363349    55A      0.391905  
      56A      0.392160    57A      0.412307    58A      0.412590  
      59A      0.422633    60A      0.509713    61A      0.509781  
      62A      0.526548    63A      0.573666    64A      0.573703  
      65A      0.590073    66A      0.591370    67A      0.591383  
      68A      0.656950    69A      0.672523    70A      0.680304  
      71A      0.693545    72A      0.693713    73A      0.708309  
      74A      0.708545    75A      0.710815    76A      0.728272  
      77A      0.742605    78A      0.742683    79A      0.749425  
      80A      0.790633    81A      0.790658    82A      0.793497  
      83A      0.834863    84A      0.835384    85A      0.850304  
      86A      0.887911    87A      0.888014    88A      0.893909  
      89A      0.894185    90A      0.930732    91A      0.930859  
      92A      0.935653    93A      0.941729    94A      1.021148  
      95A      1.063459    96A      1.063498    97A      1.078627  
      98A      1.091904    99A      1.092252   100A      1.132997  
     101A      1.145380   102A      1.145616   103A      1.152382  
     104A      1.194542   105A      1.232118   106A      1.232425  
     107A      1.355719   108A      1.355834   109A      1.365111  
     110A      1.394565   111A      1.394949   112A      1.464143  
     113A      1.494443   114A      1.494643   115A      1.497566  
     116A      1.497584   117A      1.501073   118A      1.552771  
     119A      1.552799   120A      1.555654   121A      1.575209  
     122A      1.575363   123A      1.616859   124A      1.642604  
     125A      1.669198   126A      1.669989   127A      1.708741  
     128A      1.720330   129A      1.720512   130A      1.744349  
     131A      1.800816   132A      1.801359   133A      1.810710  
     134A      1.826978   135A      1.887896   136A      1.888298  
     137A      1.907548   138A      1.909055   139A      1.909767  
     140A      1.936851   141A      1.937683   142A      1.972164  
     143A      1.972664   144A      1.985018   145A      2.003547  
     146A      2.003866   147A      2.049825   148A      2.050371  
     149A      2.055385   150A      2.084139   151A      2.087332  
     152A      2.129228   153A      2.140485   154A      2.167930  
     155A      2.168096   156A      2.246150   157A      2.266432  
     158A      2.266998   159A      2.288930   160A      2.289437  
     161A      2.304608   162A      2.312954   163A      2.312955  
     164A      2.411931   165A      2.513487   166A      2.542682  
     167A      2.543768   168A      2.583750   169A      2.670692  
     170A      2.671107   171A      2.696217   172A      2.769735  
     173A      2.787192   174A      2.787474   175A      2.835495  
     176A      2.835596   177A      2.883030   178A      2.930349  
     179A      2.930423   180A      3.006183   181A      3.026960  
     182A      3.027815   183A      3.063519   184A      3.064124  
     185A      3.107502   186A      3.239638   187A      3.239723  
     188A      3.248982   189A      3.431383   190A      3.443359  
     191A      3.455705   192A      3.456361   193A      3.498075  
     194A      3.539442   195A      3.540044   196A      3.545297  
     197A      3.576366   198A      3.665087   199A      3.665457  
     200A      3.694458   201A      3.694570   202A      3.701295  
     203A      3.710791   204A      3.710813   205A      3.735512  
     206A      3.840811   207A      3.840962   208A      3.855135  
     209A      3.855257   210A      3.865250   211A      3.877343  
     212A      3.878325   213A      3.992579   214A      3.995833  
     215A      4.027672   216A      4.027760   217A      4.069817  
     218A      4.069984   219A      4.082442   220A      4.160839  
     221A      4.161984   222A      4.246082   223A      4.265274  
     224A      4.265318   225A      4.390320   226A      4.390513  
     227A      4.537756   228A      4.538542   229A      4.589200  
     230A      4.681237   231A      4.686192   232A      4.687272  
     233A      4.871199   234A      4.931565   235A      4.978052  
     236A      4.979291   237A      5.341628   238A      6.101209  
     239A      6.101850   240A      6.151910   241A      6.182727  
     242A      6.250464   243A      6.251415   244A      6.460045  
     245A      6.469134   246A      6.469474   247A      6.699813  
     248A      6.699982   249A      6.724439   250A      6.789272  
     251A      6.922102   252A      6.922377   253A      6.979059  
     254A      6.980437   255A      7.040219   256A      7.079022  
     257A      7.080735   258A      7.133389   259A      7.133649  
     260A      7.187551   261A      7.385804   262A      7.581502  
     263A      7.581729   264A      7.604153   265A      7.624044  
     266A      7.705036   267A      7.705943   268A      7.838388  
     269A      7.854538   270A      7.860547   271A      7.975937  
     272A      8.271740   273A      8.273508   274A      8.381208  
     275A      8.383887   276A      8.428958   277A      8.583197  
     278A      8.586700   279A      8.683161   280A      8.843656  
     281A      8.844363   282A      9.003954   283A      9.163207  
     284A      9.163621   285A      9.171227   286A      9.224156  
     287A      9.409436   288A      9.412593   289A      9.532585  
     290A      9.533543   291A      9.593442   292A      9.687399  
     293A      9.688749   294A      9.926132   295A      9.981883  
     296A     10.148819   297A     10.151223   298A     10.366692  
     299A     10.367498   300A     10.404681   301A     10.831031  
     302A     10.833522   303A     10.856981   304A     10.912250  
     305A     10.912309   306A     11.508172   307A     13.170060  
     308A     13.179832   309A     13.180716   310A     14.769091  
     311A     28.296327  

    Final Occupation by Irrep:
              A 
    DOCC [    22 ]

  @DF-RHF Final Energy: -2612.09808635062018

   => Energetics <=

    Nuclear Repulsion Energy =             89.6704725009726360
    One-Electron Energy =               -3814.5941768767825124
    Two-Electron Energy =                1112.8256180251898968
    Total Energy =                      -2612.0980863506201786

Computation Completed


Properties will be evaluated at   0.000000,   0.000000,   0.000000 [a0]

Properties computed using the SCF density matrix

  Nuclear Dipole Moment: [e a0]
     X:  -174.6740      Y:    16.4104      Z:     0.0004

  Electronic Dipole Moment: [e a0]
     X:   174.8269      Y:   -17.2317      Z:    -0.0004

  Dipole Moment: [e a0]
     X:     0.1529      Y:    -0.8213      Z:    -0.0000     Total:     0.8354

  Dipole Moment: [D]
     X:     0.3887      Y:    -2.0876      Z:    -0.0000     Total:     2.1235


*** tstop() called on node144.bme.utexas.edu at Sat Apr 11 16:19:41 2020
Module time:
	user time   =      45.33 seconds =       0.76 minutes
	system time =       1.93 seconds =       0.03 minutes
	total time  =         11 seconds =       0.18 minutes
Total time:
	user time   =      75.82 seconds =       1.26 minutes
	system time =       3.96 seconds =       0.07 minutes
	total time  =         20 seconds =       0.33 minutes

*** tstart() called on node144.bme.utexas.edu
*** at Sat Apr 11 16:19:41 2020


  //>>>>>>>>>>>>>>>>>>>>>>>>>>>>>>>>>>>//
  //               DFMP2               //
  //<<<<<<<<<<<<<<<<<<<<<<<<<<<<<<<<<<<//

   => Loading Basis Set <=

    Name: (AUG-CC-PVQZ AUX)
    Role: RIFIT
    Keyword: DF_BASIS_MP2
    atoms 1   entry BR         line  1518 file /home/liuchw/anaconda3/envs/psi4env/share/psi4/basis/aug-cc-pvqz-ri.gbs 
    atoms 2   entry C          line   184 file /home/liuchw/anaconda3/envs/psi4env/share/psi4/basis/aug-cc-pvqz-ri.gbs 
    atoms 3-5 entry H          line    30 file /home/liuchw/anaconda3/envs/psi4env/share/psi4/basis/aug-cc-pvqz-ri.gbs 

	 --------------------------------------------------------
	                          DF-MP2                         
	      2nd-Order Density-Fitted Moller-Plesset Theory     
	              RMP2 Wavefunction,   6 Threads             
	                                                         
	        Rob Parrish, Justin Turney, Andy Simmonett,      
	           Ed Hohenstein, and C. David Sherrill          
	 --------------------------------------------------------

   => Auxiliary Basis Set <=

  Basis Set: (AUG-CC-PVQZ AUX)
    Blend: AUG-CC-PVQZ-RI
    Number of shells: 148
    Number of basis function: 670
    Number of Cartesian functions: 939
    Spherical Harmonics?: true
    Max angular momentum: 6

	 --------------------------------------------------------
	                 NBF =   311, NAUX =   670
	 --------------------------------------------------------
	   CLASS    FOCC     OCC    AOCC    AVIR     VIR    FVIR
	   PAIRS       0      22      22     289     289       0
	 --------------------------------------------------------

	-----------------------------------------------------------
	 ==================> DF-MP2 Energies <==================== 
	-----------------------------------------------------------
	 Reference Energy          =   -2612.0980863506201786 [Eh]
	 Singles Energy            =      -0.0000000000000000 [Eh]
	 Same-Spin Energy          =      -0.1612222262279520 [Eh]
	 Opposite-Spin Energy      =      -0.4538164112385791 [Eh]
	 Correlation Energy        =      -0.6150386374665311 [Eh]
	 Total Energy              =   -2612.7131249880867472 [Eh]
	-----------------------------------------------------------
	 ================> DF-SCS-MP2 Energies <================== 
	-----------------------------------------------------------
	 SCS Same-Spin Scale       =       0.3333333333333333 [-]
	 SCS Opposite-Spin Scale   =       1.2000000000000000 [-]
	 SCS Same-Spin Energy      =      -0.0537407420759840 [Eh]
	 SCS Opposite-Spin Energy  =      -0.5445796934862949 [Eh]
	 SCS Correlation Energy    =      -0.5983204355622789 [Eh]
	 SCS Total Energy          =   -2612.6964067861822514 [Eh]
	-----------------------------------------------------------


*** tstop() called on node144.bme.utexas.edu at Sat Apr 11 16:19:46 2020
Module time:
	user time   =      16.93 seconds =       0.28 minutes
	system time =       0.64 seconds =       0.01 minutes
	total time  =          5 seconds =       0.08 minutes
Total time:
	user time   =      92.75 seconds =       1.55 minutes
	system time =       4.60 seconds =       0.08 minutes
	total time  =         25 seconds =       0.42 minutes

  //>>>>>>>>>>>>>>>>>>>>>>>>>>>>>>>>>>>//
  //  CBS Results: mp2/aug-cc-pv[tq]z  //
  //<<<<<<<<<<<<<<<<<<<<<<<<<<<<<<<<<<<//


   ==> HF <==

   HI-zeta (4) Energy:               -2612.098086350620


   ==> Helgaker 2-point correlated extrapolation for method: MP2 <==

   LO-zeta (3) Energy:               -2612.584087577643
   HI-zeta (4) Energy:               -2612.713124988087
   Alpha (exponent) Value:             3.000000000000
   Extrapolated Energy:              -2612.807287422735

   @Extrapolated MP2/(T,Q):          -2612.807287422735



   ==> Helgaker 2-point correlated extrapolation for method: HF <==

   LO-zeta (3) Energy:               -2612.092924929884
   HI-zeta (4) Energy:               -2612.098086350620
   Alpha (exponent) Value:             3.000000000000
   Extrapolated Energy:              -2612.101852792779

   @Extrapolated HF/(T,Q):           -2612.101852792779


   ==> Components <==

  ---------------------------------------------------------------------------------------------------------
                          Method / Basis                      Rqd      Energy [Eh]   Variable
  ---------------------------------------------------------------------------------------------------------
                              hf / aug-cc-pvtz                  *   -2612.09292493   HF TOTAL ENERGY
                             mp2 / aug-cc-pvtz                  *   -2612.58408758   MP2 TOTAL ENERGY
                              hf / aug-cc-pvqz                  *   -2612.09808635   HF TOTAL ENERGY
                             mp2 / aug-cc-pvqz                  *   -2612.71312499   MP2 TOTAL ENERGY
  ---------------------------------------------------------------------------------------------------------

   ==> Stages <==

  ---------------------------------------------------------------------------------------------------------
      Stage               Method / Basis                       Wt      Energy [Eh]   Scheme
  ---------------------------------------------------------------------------------------------------------
        scf                   hf / aug-cc-pvqz                  1   -2612.09808635   xtpl_highest_1
       corl                  mp2 / aug-cc-pv[tq]z               1   -2612.80728742   corl_xtpl_helgaker_2
       corl                   hf / aug-cc-pv[tq]z              -1   -2612.10185279   corl_xtpl_helgaker_2
  ---------------------------------------------------------------------------------------------------------

   ==> CBS <==

  ---------------------------------------------------------------------------------------------------------
      Stage               Method / Basis                               Energy [Eh]   Scheme
  ---------------------------------------------------------------------------------------------------------
        scf                   hf / aug-cc-pvqz                      -2612.09808635   xtpl_highest_1
       corl                  mp2 / aug-cc-pv[tq]z                      -0.70543463   corl_xtpl_helgaker_2
      total                  CBS                                    -2612.80352098   
  ---------------------------------------------------------------------------------------------------------
   => Loading Basis Set <=

    Name: DEF2-SVP
    Role: ORBITAL
    Keyword: BASIS
    atoms 1   entry BR         line  1084 file /home/liuchw/anaconda3/envs/psi4env/share/psi4/basis/def2-svp.gbs 
    atoms 2   entry C          line    90 file /home/liuchw/anaconda3/envs/psi4env/share/psi4/basis/def2-svp.gbs 
    atoms 3-5 entry H          line    15 file /home/liuchw/anaconda3/envs/psi4env/share/psi4/basis/def2-svp.gbs 


       N-Body: Complex Energy (fragments = (2,), basis = (2,): -2612.80352098057529)

       N-Body: Computing complex (2/4) with fragments (2,) in the basis of fragments (1, 2).


Scratch directory: /scratch//

  //>>>>>>>>>>>>>>>>>>>>>>>>>>>>>>>>>>>//
  //   CBS Setup: mp2/aug-cc-pv[tq]z   //
  //<<<<<<<<<<<<<<<<<<<<<<<<<<<<<<<<<<<//

    Naive listing of computations required.
             hf / aug-cc-pvqz              for  HF TOTAL ENERGY
            mp2 / aug-cc-pvtz              for  MP2 TOTAL ENERGY
            mp2 / aug-cc-pvqz              for  MP2 TOTAL ENERGY
             hf / aug-cc-pvtz              for  HF TOTAL ENERGY
             hf / aug-cc-pvqz              for  HF TOTAL ENERGY

    Enlightened listing of computations required.
            mp2 / aug-cc-pvtz              for  MP2 TOTAL ENERGY
            mp2 / aug-cc-pvqz              for  MP2 TOTAL ENERGY

    Full listing of computations to be obtained (required and bonus).
             hf / aug-cc-pvtz              for  HF TOTAL ENERGY
            mp2 / aug-cc-pvtz              for  MP2 TOTAL ENERGY
             hf / aug-cc-pvqz              for  HF TOTAL ENERGY
            mp2 / aug-cc-pvqz              for  MP2 TOTAL ENERGY

  //>>>>>>>>>>>>>>>>>>>>>>>>>>>>>>>>>>>>//
  // CBS Computation: MP2 / AUG-CC-PVTZ //
  //<<<<<<<<<<<<<<<<<<<<<<<<<<<<<<<<<<<<//


Scratch directory: /scratch//

*** tstart() called on node144.bme.utexas.edu
*** at Sat Apr 11 16:19:47 2020

   => Loading Basis Set <=

    Name: AUG-CC-PVTZ
    Role: ORBITAL
    Keyword: BASIS
    atoms 1, 6      entry BR         line  4208 file /home/liuchw/anaconda3/envs/psi4env/share/psi4/basis/aug-cc-pvtz.gbs 
    atoms 2, 7      entry C          line   239 file /home/liuchw/anaconda3/envs/psi4env/share/psi4/basis/aug-cc-pvtz.gbs 
    atoms 3-5, 8-10 entry H          line    40 file /home/liuchw/anaconda3/envs/psi4env/share/psi4/basis/aug-cc-pvtz.gbs 


         ---------------------------------------------------------
                                   SCF
               by Justin Turney, Rob Parrish, Andy Simmonett
                          and Daniel G. A. Smith
                              RHF Reference
                        6 Threads,  38146 MiB Core
         ---------------------------------------------------------

  ==> Geometry <==

    Molecular point group: c1
    Full point group: C1

    Geometry (in Angstrom), charge = 0, multiplicity = 1:

       Center              X                  Y                   Z               Mass       
    ------------   -----------------  -----------------  -----------------  -----------------
      Gh(BR)          2.177336588039    -0.607440091110    -0.000002049658    78.918337600000
      Gh(C)           1.822964588039     1.288153908890    -0.000033049658    12.000000000000
      Gh(H)           0.749078588039     1.426539908890    -0.000004049658     1.007825032230
      Gh(H)           2.269607588039     1.710397908890    -0.891448049658     1.007825032230
      Gh(H)           2.269661588039     1.710436908890     0.891335950342     1.007825032230
         BR          -2.177294411961     0.607447908890     0.000013950342    78.918337600000
         C           -1.823176411961    -1.288192091110    -0.000027049658    12.000000000000
         H           -2.270006411961    -1.710392091110    -0.891369049658     1.007825032230
         H           -2.269809411961    -1.710394091110     0.891412950342     1.007825032230
         H           -0.749312411961    -1.426746091110    -0.000144049658     1.007825032230

  Running in c1 symmetry.

  Rotational constants: A =      0.18063  B =      0.01922  C =      0.01749 [cm^-1]
  Rotational constants: A =   5415.29674  B =    576.28109  C =    524.31511 [MHz]
  Nuclear repulsion =   89.670472500972636

  Charge       = 0
  Multiplicity = 1
  Electrons    = 44
  Nalpha       = 22
  Nbeta        = 22

  ==> Algorithm <==

  SCF Algorithm Type is DF.
  DIIS enabled.
  MOM disabled.
  Fractional occupation disabled.
  Guess Type is SAD.
  Energy threshold   = 1.00e-07
  Density threshold  = 1.00e-08
  Integral threshold = 0.00e+00

  ==> Primary Basis <==

  Basis Set: AUG-CC-PVTZ
    Blend: AUG-CC-PVTZ
    Number of shells: 120
    Number of basis function: 348
    Number of Cartesian functions: 398
    Spherical Harmonics?: true
    Max angular momentum: 3

   => Loading Basis Set <=

    Name: (AUG-CC-PVTZ AUX)
    Role: JKFIT
    Keyword: DF_BASIS_SCF
    atoms 1, 6      entry BR         line  1492 file /home/liuchw/anaconda3/envs/psi4env/share/psi4/basis/aug-cc-pvtz-jkfit.gbs 
    atoms 2, 7      entry C          line   162 file /home/liuchw/anaconda3/envs/psi4env/share/psi4/basis/aug-cc-pvtz-jkfit.gbs 
    atoms 3-5, 8-10 entry H          line    70 file /home/liuchw/anaconda3/envs/psi4env/share/psi4/basis/aug-cc-pvtz-jkfit.gbs 

  ==> Pre-Iterations <==

   -------------------------------------------------------
    Irrep   Nso     Nmo     Nalpha   Nbeta   Ndocc  Nsocc
   -------------------------------------------------------
     A        348     348       0       0       0       0
   -------------------------------------------------------
    Total     348     348      22      22      22       0
   -------------------------------------------------------

  ==> Integral Setup <==

  DFHelper Memory: AOs need 0.888 GiB; user supplied 27.940 GiB. Using in-core AOs.

  ==> MemDFJK: Density-Fitted J/K Matrices <==

    J tasked:                   Yes
    K tasked:                   Yes
    wK tasked:                   No
    OpenMP threads:               6
    Memory [MiB]:             28610
    Algorithm:                 Core
    Schwarz Cutoff:           1E-12
    Mask sparsity (%):       3.7621
    Fitting Condition:        1E-10

   => Auxiliary Basis Set <=

  Basis Set: (AUG-CC-PVTZ AUX)
    Blend: AUG-CC-PVTZ-JKFIT
    Number of shells: 260
    Number of basis function: 980
    Number of Cartesian functions: 1250
    Spherical Harmonics?: true
    Max angular momentum: 4

  Minimum eigenvalue in the overlap matrix is 3.6031565737E-05.
  Using Symmetric Orthogonalization.

  SCF Guess: Superposition of Atomic Densities via on-the-fly atomic UHF.

  ==> Iterations <==

                           Total Energy        Delta E     RMS |[F,P]|

   @DF-RHF iter SAD: -2609.99264158785354   -2.60999e+03   0.00000e+00 
   @DF-RHF iter   1: -2611.91618513524281   -1.92354e+00   2.75194e-03 DIIS
   @DF-RHF iter   2: -2612.06203231173185   -1.45847e-01   1.24685e-03 DIIS
   @DF-RHF iter   3: -2612.09226256270449   -3.02303e-02   7.19654e-05 DIIS
   @DF-RHF iter   4: -2612.09290315343105   -6.40591e-04   2.12633e-05 DIIS
   @DF-RHF iter   5: -2612.09295776839053   -5.46150e-05   6.64541e-06 DIIS
   @DF-RHF iter   6: -2612.09296196261948   -4.19423e-06   1.64933e-06 DIIS
   @DF-RHF iter   7: -2612.09296225470325   -2.92084e-07   3.76598e-07 DIIS
   @DF-RHF iter   8: -2612.09296228383573   -2.91325e-08   1.16253e-07 DIIS
   @DF-RHF iter   9: -2612.09296228700077   -3.16504e-09   1.80373e-08 DIIS
   @DF-RHF iter  10: -2612.09296228706717   -6.63931e-11   1.92048e-09 DIIS
  Energy and wave function converged.


  ==> Post-Iterations <==

    Orbital Energies [Eh]
    ---------------------

    Doubly Occupied:                                                      

       1A   -490.013407     2A    -65.153359     3A    -58.508648  
       4A    -58.507277     5A    -58.507275     6A    -11.287309  
       7A     -9.826244     8A     -7.437809     9A     -7.431114  
      10A     -7.431113    11A     -3.181391    12A     -3.177918  
      13A     -3.177914    14A     -3.169354    15A     -3.169346  
      16A     -1.064063    17A     -0.897063    18A     -0.613524  
      19A     -0.612970    20A     -0.507666    21A     -0.401720  
      22A     -0.401635  

    Virtual:                                                              

      23A      0.022771    24A      0.034299    25A      0.041839  
      26A      0.044404    27A      0.053121    28A      0.060697  
      29A      0.072309    30A      0.090291    31A      0.095838  
      32A      0.096737    33A      0.109347    34A      0.114764  
      35A      0.119433    36A      0.121649    37A      0.131551  
      38A      0.134293    39A      0.138786    40A      0.150856  
      41A      0.151198    42A      0.156346    43A      0.171229  
      44A      0.201796    45A      0.203144    46A      0.218221  
      47A      0.236251    48A      0.253175    49A      0.256595  
      50A      0.263143    51A      0.277645    52A      0.288648  
      53A      0.289437    54A      0.296324    55A      0.299380  
      56A      0.309374    57A      0.317388    58A      0.319793  
      59A      0.335805    60A      0.337472    61A      0.339757  
      62A      0.355509    63A      0.359941    64A      0.360653  
      65A      0.362224    66A      0.370004    67A      0.392854  
      68A      0.392915    69A      0.396741    70A      0.401071  
      71A      0.418918    72A      0.419134    73A      0.428002  
      74A      0.429522    75A      0.439073    76A      0.456191  
      77A      0.460758    78A      0.460775    79A      0.468418  
      80A      0.481621    81A      0.495020    82A      0.501287  
      83A      0.516700    84A      0.529321    85A      0.532907  
      86A      0.540579    87A      0.564048    88A      0.567475  
      89A      0.573616    90A      0.597370    91A      0.603526  
      92A      0.614512    93A      0.627359    94A      0.646834  
      95A      0.652034    96A      0.654727    97A      0.674906  
      98A      0.699791    99A      0.706170   100A      0.722756  
     101A      0.728170   102A      0.748981   103A      0.774213  
     104A      0.803577   105A      0.812036   106A      0.822135  
     107A      0.833598   108A      0.850410   109A      0.870302  
     110A      0.889865   111A      0.898536   112A      0.899536  
     113A      0.912302   114A      0.922785   115A      0.945027  
     116A      0.966515   117A      0.969630   118A      0.977824  
     119A      0.986772   120A      0.991171   121A      1.003031  
     122A      1.010401   123A      1.017246   124A      1.032144  
     125A      1.032241   126A      1.059275   127A      1.061501  
     128A      1.062336   129A      1.069191   130A      1.075708  
     131A      1.076555   132A      1.087223   133A      1.088717  
     134A      1.105559   135A      1.110669   136A      1.117533  
     137A      1.125623   138A      1.128813   139A      1.141336  
     140A      1.154477   141A      1.155859   142A      1.178964  
     143A      1.179860   144A      1.182491   145A      1.188802  
     146A      1.214212   147A      1.216178   148A      1.228273  
     149A      1.236995   150A      1.253273   151A      1.257166  
     152A      1.260764   153A      1.280678   154A      1.297276  
     155A      1.309657   156A      1.318742   157A      1.328287  
     158A      1.342597   159A      1.351168   160A      1.360903  
     161A      1.363921   162A      1.367885   163A      1.382245  
     164A      1.404496   165A      1.426055   166A      1.429070  
     167A      1.453485   168A      1.463257   169A      1.472926  
     170A      1.497674   171A      1.504713   172A      1.539760  
     173A      1.571032   174A      1.595489   175A      1.603732  
     176A      1.615728   177A      1.641547   178A      1.663635  
     179A      1.677763   180A      1.694571   181A      1.714150  
     182A      1.727886   183A      1.733656   184A      1.734326  
     185A      1.763940   186A      1.793223   187A      1.795688  
     188A      1.845096   189A      1.885010   190A      1.886928  
     191A      1.912045   192A      1.933232   193A      1.935093  
     194A      1.943331   195A      1.989451   196A      1.992377  
     197A      2.016575   198A      2.016836   199A      2.064157  
     200A      2.071728   201A      2.117930   202A      2.138674  
     203A      2.165037   204A      2.189598   205A      2.192705  
     206A      2.260102   207A      2.260381   208A      2.276268  
     209A      2.322712   210A      2.347320   211A      2.352614  
     212A      2.353894   213A      2.418615   214A      2.422896  
     215A      2.441299   216A      2.457910   217A      2.481055  
     218A      2.494597   219A      2.520192   220A      2.532170  
     221A      2.557011   222A      2.557343   223A      2.616261  
     224A      2.642819   225A      2.659949   226A      2.704039  
     227A      2.739266   228A      2.784443   229A      2.943340  
     230A      2.946530   231A      2.987553   232A      3.068076  
     233A      3.078176   234A      3.236790   235A      3.251747  
     236A      3.255691   237A      3.293403   238A      3.321781  
     239A      3.324574   240A      3.343011   241A      3.370249  
     242A      3.386825   243A      3.423925   244A      3.437989  
     245A      3.463549   246A      3.495320   247A      3.497262  
     248A      3.508163   249A      3.525341   250A      3.581413  
     251A      3.582633   252A      3.598636   253A      3.667004  
     254A      3.720234   255A      3.740066   256A      3.799186  
     257A      3.826765   258A      3.927798   259A      3.948758  
     260A      3.962077   261A      4.009240   262A      4.034075  
     263A      4.062467   264A      4.074013   265A      4.098684  
     266A      4.099279   267A      4.128157   268A      4.133003  
     269A      4.136781   270A      4.141562   271A      4.168443  
     272A      4.235685   273A      4.272070   274A      4.410251  
     275A      4.413432   276A      4.434769   277A      4.449337  
     278A      4.477083   279A      4.486789   280A      4.497898  
     281A      4.505941   282A      4.549638   283A      4.632521  
     284A      4.643237   285A      4.757509   286A      4.765835  
     287A      4.786515   288A      4.836651   289A      4.864444  
     290A      4.866010   291A      4.876643   292A      4.905565  
     293A      4.917120   294A      4.928443   295A      4.940628  
     296A      4.971505   297A      5.127310   298A      5.154122  
     299A      5.174460   300A      5.241638   301A      5.261508  
     302A      5.298282   303A      5.316722   304A      5.381002  
     305A      5.450161   306A      5.490795   307A      5.501674  
     308A      5.506547   309A      5.507637   310A      5.625887  
     311A      5.632633   312A      5.669171   313A      5.695520  
     314A      5.712116   315A      6.029017   316A      6.052274  
     317A      6.069450   318A      6.149911   319A      6.155664  
     320A      6.190507   321A      6.311158   322A      6.586846  
     323A      6.601725   324A      6.630928   325A      6.693579  
     326A      7.208424   327A      7.495122   328A      7.752976  
     329A      7.776592   330A      8.160563   331A      8.169921  
     332A     10.353651   333A     10.807823   334A     13.631454  
     335A     13.784173   336A     14.383481   337A     17.244297  
     338A     26.206184   339A     26.269069   340A     26.344816  
     341A     26.371976   342A     26.625903   343A     46.340465  
     344A     51.928288   345A    138.682626   346A    138.933039  
     347A    139.871474   348A    711.217593  

    Final Occupation by Irrep:
              A 
    DOCC [    22 ]

  @DF-RHF Final Energy: -2612.09296228706717

   => Energetics <=

    Nuclear Repulsion Energy =             89.6704725009726360
    One-Electron Energy =               -3814.5706326404924766
    Two-Electron Energy =                1112.8071978524526457
    Total Energy =                      -2612.0929622870671665

Computation Completed


Properties will be evaluated at   0.000000,   0.000000,   0.000000 [a0]

Properties computed using the SCF density matrix

  Nuclear Dipole Moment: [e a0]
     X:  -174.6740      Y:    16.4104      Z:     0.0004

  Electronic Dipole Moment: [e a0]
     X:   174.8271      Y:   -17.2338      Z:    -0.0004

  Dipole Moment: [e a0]
     X:     0.1531      Y:    -0.8234      Z:    -0.0000     Total:     0.8375

  Dipole Moment: [D]
     X:     0.3892      Y:    -2.0929      Z:    -0.0000     Total:     2.1288


*** tstop() called on node144.bme.utexas.edu at Sat Apr 11 16:20:06 2020
Module time:
	user time   =      73.34 seconds =       1.22 minutes
	system time =       2.25 seconds =       0.04 minutes
	total time  =         19 seconds =       0.32 minutes
Total time:
	user time   =     168.35 seconds =       2.81 minutes
	system time =       6.94 seconds =       0.12 minutes
	total time  =         45 seconds =       0.75 minutes

*** tstart() called on node144.bme.utexas.edu
*** at Sat Apr 11 16:20:06 2020


  //>>>>>>>>>>>>>>>>>>>>>>>>>>>>>>>>>>>//
  //               DFMP2               //
  //<<<<<<<<<<<<<<<<<<<<<<<<<<<<<<<<<<<//

   => Loading Basis Set <=

    Name: (AUG-CC-PVTZ AUX)
    Role: RIFIT
    Keyword: DF_BASIS_MP2
    atoms 1, 6      entry BR         line  1248 file /home/liuchw/anaconda3/envs/psi4env/share/psi4/basis/aug-cc-pvtz-ri.gbs 
    atoms 2, 7      entry C          line   148 file /home/liuchw/anaconda3/envs/psi4env/share/psi4/basis/aug-cc-pvtz-ri.gbs 
    atoms 3-5, 8-10 entry H          line    30 file /home/liuchw/anaconda3/envs/psi4env/share/psi4/basis/aug-cc-pvtz-ri.gbs 

	 --------------------------------------------------------
	                          DF-MP2                         
	      2nd-Order Density-Fitted Moller-Plesset Theory     
	              RMP2 Wavefunction,   6 Threads             
	                                                         
	        Rob Parrish, Justin Turney, Andy Simmonett,      
	           Ed Hohenstein, and C. David Sherrill          
	 --------------------------------------------------------

   => Auxiliary Basis Set <=

  Basis Set: (AUG-CC-PVTZ AUX)
    Blend: AUG-CC-PVTZ-RI
    Number of shells: 226
    Number of basis function: 870
    Number of Cartesian functions: 1124
    Spherical Harmonics?: true
    Max angular momentum: 5

	 --------------------------------------------------------
	                 NBF =   348, NAUX =   870
	 --------------------------------------------------------
	   CLASS    FOCC     OCC    AOCC    AVIR     VIR    FVIR
	   PAIRS       0      22      22     326     326       0
	 --------------------------------------------------------

	-----------------------------------------------------------
	 ==================> DF-MP2 Energies <==================== 
	-----------------------------------------------------------
	 Reference Energy          =   -2612.0929622870671665 [Eh]
	 Singles Energy            =      -0.0000000000000000 [Eh]
	 Same-Spin Energy          =      -0.1274155585354256 [Eh]
	 Opposite-Spin Energy      =      -0.3659652220458169 [Eh]
	 Correlation Energy        =      -0.4933807805812426 [Eh]
	 Total Energy              =   -2612.5863430676486132 [Eh]
	-----------------------------------------------------------
	 ================> DF-SCS-MP2 Energies <================== 
	-----------------------------------------------------------
	 SCS Same-Spin Scale       =       0.3333333333333333 [-]
	 SCS Opposite-Spin Scale   =       1.2000000000000000 [-]
	 SCS Same-Spin Energy      =      -0.0424718528451419 [Eh]
	 SCS Opposite-Spin Energy  =      -0.4391582664549803 [Eh]
	 SCS Correlation Energy    =      -0.4816301193001222 [Eh]
	 SCS Total Energy          =   -2612.5745924063671737 [Eh]
	-----------------------------------------------------------


*** tstop() called on node144.bme.utexas.edu at Sat Apr 11 16:20:15 2020
Module time:
	user time   =      34.51 seconds =       0.58 minutes
	system time =       1.04 seconds =       0.02 minutes
	total time  =          9 seconds =       0.15 minutes
Total time:
	user time   =     202.87 seconds =       3.38 minutes
	system time =       7.98 seconds =       0.13 minutes
	total time  =         54 seconds =       0.90 minutes

  //>>>>>>>>>>>>>>>>>>>>>>>>>>>>>>>>>>>>//
  // CBS Computation: MP2 / AUG-CC-PVQZ //
  //<<<<<<<<<<<<<<<<<<<<<<<<<<<<<<<<<<<<//


Scratch directory: /scratch//

*** tstart() called on node144.bme.utexas.edu
*** at Sat Apr 11 16:20:15 2020

   => Loading Basis Set <=

    Name: AUG-CC-PVQZ
    Role: ORBITAL
    Keyword: BASIS
    atoms 1, 6      entry BR         line  5448 file /home/liuchw/anaconda3/envs/psi4env/share/psi4/basis/aug-cc-pvqz.gbs 
    atoms 2, 7      entry C          line   303 file /home/liuchw/anaconda3/envs/psi4env/share/psi4/basis/aug-cc-pvqz.gbs 
    atoms 3-5, 8-10 entry H          line    40 file /home/liuchw/anaconda3/envs/psi4env/share/psi4/basis/aug-cc-pvqz.gbs 


         ---------------------------------------------------------
                                   SCF
               by Justin Turney, Rob Parrish, Andy Simmonett
                          and Daniel G. A. Smith
                              RHF Reference
                        6 Threads,  38146 MiB Core
         ---------------------------------------------------------

  ==> Geometry <==

    Molecular point group: c1
    Full point group: C1

    Geometry (in Angstrom), charge = 0, multiplicity = 1:

       Center              X                  Y                   Z               Mass       
    ------------   -----------------  -----------------  -----------------  -----------------
      Gh(BR)          2.177336588039    -0.607440091110    -0.000002049658    78.918337600000
      Gh(C)           1.822964588039     1.288153908890    -0.000033049658    12.000000000000
      Gh(H)           0.749078588039     1.426539908890    -0.000004049658     1.007825032230
      Gh(H)           2.269607588039     1.710397908890    -0.891448049658     1.007825032230
      Gh(H)           2.269661588039     1.710436908890     0.891335950342     1.007825032230
         BR          -2.177294411961     0.607447908890     0.000013950342    78.918337600000
         C           -1.823176411961    -1.288192091110    -0.000027049658    12.000000000000
         H           -2.270006411961    -1.710392091110    -0.891369049658     1.007825032230
         H           -2.269809411961    -1.710394091110     0.891412950342     1.007825032230
         H           -0.749312411961    -1.426746091110    -0.000144049658     1.007825032230

  Running in c1 symmetry.

  Rotational constants: A =      0.18063  B =      0.01922  C =      0.01749 [cm^-1]
  Rotational constants: A =   5415.29674  B =    576.28109  C =    524.31511 [MHz]
  Nuclear repulsion =   89.670472500972636

  Charge       = 0
  Multiplicity = 1
  Electrons    = 44
  Nalpha       = 22
  Nbeta        = 22

  ==> Algorithm <==

  SCF Algorithm Type is DF.
  DIIS enabled.
  MOM disabled.
  Fractional occupation disabled.
  Guess Type is SAD.
  Energy threshold   = 1.00e-07
  Density threshold  = 1.00e-08
  Integral threshold = 0.00e+00

  ==> Primary Basis <==

  Basis Set: AUG-CC-PVQZ
    Blend: AUG-CC-PVQZ
    Number of shells: 174
    Number of basis function: 622
    Number of Cartesian functions: 778
    Spherical Harmonics?: true
    Max angular momentum: 4

   => Loading Basis Set <=

    Name: (AUG-CC-PVQZ AUX)
    Role: JKFIT
    Keyword: DF_BASIS_SCF
    atoms 1, 6      entry BR         line  1612 file /home/liuchw/anaconda3/envs/psi4env/share/psi4/basis/aug-cc-pvqz-jkfit.gbs 
    atoms 2, 7      entry C          line   178 file /home/liuchw/anaconda3/envs/psi4env/share/psi4/basis/aug-cc-pvqz-jkfit.gbs 
    atoms 3-5, 8-10 entry H          line    70 file /home/liuchw/anaconda3/envs/psi4env/share/psi4/basis/aug-cc-pvqz-jkfit.gbs 

  ==> Pre-Iterations <==

   -------------------------------------------------------
    Irrep   Nso     Nmo     Nalpha   Nbeta   Ndocc  Nsocc
   -------------------------------------------------------
     A        622     622       0       0       0       0
   -------------------------------------------------------
    Total     622     622      22      22      22       0
   -------------------------------------------------------

  ==> Integral Setup <==

  DFHelper Memory: AOs need 3.514 GiB; user supplied 27.940 GiB. Using in-core AOs.

  ==> MemDFJK: Density-Fitted J/K Matrices <==

    J tasked:                   Yes
    K tasked:                   Yes
    wK tasked:                   No
    OpenMP threads:               6
    Memory [MiB]:             28610
    Algorithm:                 Core
    Schwarz Cutoff:           1E-12
    Mask sparsity (%):       8.1409
    Fitting Condition:        1E-10

   => Auxiliary Basis Set <=

  Basis Set: (AUG-CC-PVQZ AUX)
    Blend: AUG-CC-PVQZ-JKFIT
    Number of shells: 296
    Number of basis function: 1280
    Number of Cartesian functions: 1744
    Spherical Harmonics?: true
    Max angular momentum: 5

  Minimum eigenvalue in the overlap matrix is 7.8426845466E-06.
  Using Symmetric Orthogonalization.

  SCF Guess: Superposition of Atomic Densities via on-the-fly atomic UHF.

  ==> Iterations <==

                           Total Energy        Delta E     RMS |[F,P]|

   @DF-RHF iter SAD: -2609.97749573907095   -2.60998e+03   0.00000e+00 
   @DF-RHF iter   1: -2611.88282514536286   -1.90533e+00   1.95561e-03 DIIS
   @DF-RHF iter   2: -2612.04747962350484   -1.64654e-01   1.03788e-03 DIIS
   @DF-RHF iter   3: -2612.09731578803394   -4.98362e-02   4.35179e-05 DIIS
   @DF-RHF iter   4: -2612.09801740703733   -7.01619e-04   1.36988e-05 DIIS
   @DF-RHF iter   5: -2612.09808774933890   -7.03423e-05   4.66552e-06 DIIS
   @DF-RHF iter   6: -2612.09809404121052   -6.29187e-06   1.08539e-06 DIIS
   @DF-RHF iter   7: -2612.09809442612595   -3.84915e-07   2.50601e-07 DIIS
   @DF-RHF iter   8: -2612.09809446246754   -3.63416e-08   7.88811e-08 DIIS
   @DF-RHF iter   9: -2612.09809446698910   -4.52155e-09   1.56861e-08 DIIS
   @DF-RHF iter  10: -2612.09809446712961   -1.40517e-10   2.24848e-09 DIIS
  Energy and wave function converged.


  ==> Post-Iterations <==

    Orbital Energies [Eh]
    ---------------------

    Doubly Occupied:                                                      

       1A   -490.012278     2A    -65.152722     3A    -58.508127  
       4A    -58.506729     5A    -58.506729     6A    -11.286035  
       7A     -9.826011     8A     -7.437495     9A     -7.431021  
      10A     -7.431020    11A     -3.181063    12A     -3.177647  
      13A     -3.177646    14A     -3.169265    15A     -3.169264  
      16A     -1.063753    17A     -0.896940    18A     -0.613550  
      19A     -0.613001    20A     -0.507593    21A     -0.401768  
      22A     -0.401708  

    Virtual:                                                              

      23A      0.020183    24A      0.031028    25A      0.037372  
      26A      0.039435    27A      0.048300    28A      0.054821  
      29A      0.063248    30A      0.079713    31A      0.082141  
      32A      0.082807    33A      0.094872    34A      0.098325  
      35A      0.101155    36A      0.105337    37A      0.113467  
      38A      0.117723    39A      0.121497    40A      0.130565  
      41A      0.132861    42A      0.137486    43A      0.150701  
      44A      0.173671    45A      0.179281    46A      0.189026  
      47A      0.205702    48A      0.215049    49A      0.217865  
      50A      0.229302    51A      0.234531    52A      0.238590  
      53A      0.242670    54A      0.248654    55A      0.250025  
      56A      0.260135    57A      0.263209    58A      0.266508  
      59A      0.278297    60A      0.281115    61A      0.282519  
      62A      0.286455    63A      0.292642    64A      0.295088  
      65A      0.304921    66A      0.305258    67A      0.318654  
      68A      0.321158    69A      0.324689    70A      0.327019  
      71A      0.334596    72A      0.334704    73A      0.347366  
      74A      0.352955    75A      0.356428    76A      0.359906  
      77A      0.369671    78A      0.377694    79A      0.385751  
      80A      0.395450    81A      0.396984    82A      0.398795  
      83A      0.417623    84A      0.422730    85A      0.427807  
      86A      0.431753    87A      0.436179    88A      0.452851  
      89A      0.460764    90A      0.461051    91A      0.485954  
      92A      0.495849    93A      0.496504    94A      0.503889  
      95A      0.521325    96A      0.524935    97A      0.532622  
      98A      0.544876    99A      0.552458   100A      0.561313  
     101A      0.573293   102A      0.581461   103A      0.586939  
     104A      0.591512   105A      0.619718   106A      0.622735  
     107A      0.629856   108A      0.659100   109A      0.674774  
     110A      0.675685   111A      0.682900   112A      0.693230  
     113A      0.694519   114A      0.699648   115A      0.703096  
     116A      0.714987   117A      0.715022   118A      0.717370  
     119A      0.729981   120A      0.737114   121A      0.744402  
     122A      0.748232   123A      0.757283   124A      0.765421  
     125A      0.771550   126A      0.779245   127A      0.780892  
     128A      0.786781   129A      0.791552   130A      0.805910  
     131A      0.808051   132A      0.818629   133A      0.822352  
     134A      0.826035   135A      0.833599   136A      0.850133  
     137A      0.852092   138A      0.856696   139A      0.872336  
     140A      0.873320   141A      0.882871   142A      0.888936  
     143A      0.889632   144A      0.895647   145A      0.900263  
     146A      0.915299   147A      0.925119   148A      0.925468  
     149A      0.932925   150A      0.948632   151A      0.955607  
     152A      0.962633   153A      0.964356   154A      0.984249  
     155A      0.985607   156A      0.995069   157A      1.004853  
     158A      1.013402   159A      1.016609   160A      1.027059  
     161A      1.033457   162A      1.036856   163A      1.054840  
     164A      1.067888   165A      1.073771   166A      1.076419  
     167A      1.087255   168A      1.091891   169A      1.102258  
     170A      1.106619   171A      1.117125   172A      1.135542  
     173A      1.140537   174A      1.142127   175A      1.158204  
     176A      1.177892   177A      1.183283   178A      1.201061  
     179A      1.211144   180A      1.223896   181A      1.237741  
     182A      1.258075   183A      1.262103   184A      1.271385  
     185A      1.278910   186A      1.287856   187A      1.327022  
     188A      1.340183   189A      1.351684   190A      1.374929  
     191A      1.375985   192A      1.393980   193A      1.394241  
     194A      1.409914   195A      1.424975   196A      1.438753  
     197A      1.448483   198A      1.471291   199A      1.488091  
     200A      1.508141   201A      1.509293   202A      1.531870  
     203A      1.537052   204A      1.552313   205A      1.569209  
     206A      1.572531   207A      1.589031   208A      1.601118  
     209A      1.605999   210A      1.621096   211A      1.629377  
     212A      1.647010   213A      1.651959   214A      1.657928  
     215A      1.674586   216A      1.679081   217A      1.695534  
     218A      1.696779   219A      1.707500   220A      1.723846  
     221A      1.732284   222A      1.735580   223A      1.752910  
     224A      1.762837   225A      1.776988   226A      1.782365  
     227A      1.797284   228A      1.803288   229A      1.812372  
     230A      1.817146   231A      1.825781   232A      1.840279  
     233A      1.840868   234A      1.847908   235A      1.859531  
     236A      1.873331   237A      1.878598   238A      1.880233  
     239A      1.899702   240A      1.902001   241A      1.911990  
     242A      1.917998   243A      1.930196   244A      1.950055  
     245A      1.951208   246A      1.970079   247A      1.977336  
     248A      1.980522   249A      1.986039   250A      1.986802  
     251A      1.993678   252A      2.000228   253A      2.013312  
     254A      2.028769   255A      2.031738   256A      2.034629  
     257A      2.037160   258A      2.045082   259A      2.056678  
     260A      2.064625   261A      2.066782   262A      2.083193  
     263A      2.085997   264A      2.089462   265A      2.096495  
     266A      2.107409   267A      2.113210   268A      2.118893  
     269A      2.138573   270A      2.142576   271A      2.145945  
     272A      2.158128   273A      2.167263   274A      2.179026  
     275A      2.182512   276A      2.198052   277A      2.198365  
     278A      2.211902   279A      2.219497   280A      2.221000  
     281A      2.243441   282A      2.247135   283A      2.251491  
     284A      2.266223   285A      2.272099   286A      2.284522  
     287A      2.293842   288A      2.295483   289A      2.311894  
     290A      2.317210   291A      2.318854   292A      2.327072  
     293A      2.337032   294A      2.355847   295A      2.358280  
     296A      2.393430   297A      2.396799   298A      2.407400  
     299A      2.409126   300A      2.417512   301A      2.443754  
     302A      2.447228   303A      2.465835   304A      2.490356  
     305A      2.503089   306A      2.544803   307A      2.560505  
     308A      2.570757   309A      2.585116   310A      2.591093  
     311A      2.606336   312A      2.637564   313A      2.668724  
     314A      2.690357   315A      2.694740   316A      2.739418  
     317A      2.740798   318A      2.759497   319A      2.768639  
     320A      2.770191   321A      2.810228   322A      2.830928  
     323A      2.856643   324A      2.860803   325A      2.886594  
     326A      2.916585   327A      2.939909   328A      2.943862  
     329A      2.969453   330A      2.970267   331A      3.007010  
     332A      3.018918   333A      3.045293   334A      3.048090  
     335A      3.056265   336A      3.065603   337A      3.104307  
     338A      3.133186   339A      3.137893   340A      3.153787  
     341A      3.162483   342A      3.168142   343A      3.187049  
     344A      3.208127   345A      3.249475   346A      3.271138  
     347A      3.274225   348A      3.285818   349A      3.298554  
     350A      3.323746   351A      3.336416   352A      3.374377  
     353A      3.376229   354A      3.384578   355A      3.452210  
     356A      3.458941   357A      3.475747   358A      3.491228  
     359A      3.501735   360A      3.524983   361A      3.530706  
     362A      3.537376   363A      3.552719   364A      3.561352  
     365A      3.567175   366A      3.592661   367A      3.607873  
     368A      3.619035   369A      3.657537   370A      3.687829  
     371A      3.702093   372A      3.713406   373A      3.744304  
     374A      3.762265   375A      3.778256   376A      3.796299  
     377A      3.805507   378A      3.815720   379A      3.827084  
     380A      3.847234   381A      3.868458   382A      3.879478  
     383A      3.893026   384A      3.893797   385A      3.928029  
     386A      3.954824   387A      3.965971   388A      3.971698  
     389A      4.008930   390A      4.017909   391A      4.024048  
     392A      4.056595   393A      4.062645   394A      4.078458  
     395A      4.087352   396A      4.101978   397A      4.122402  
     398A      4.127854   399A      4.146873   400A      4.167894  
     401A      4.193612   402A      4.215835   403A      4.238882  
     404A      4.265316   405A      4.275149   406A      4.276375  
     407A      4.320416   408A      4.338055   409A      4.359459  
     410A      4.374215   411A      4.417806   412A      4.430377  
     413A      4.453313   414A      4.470111   415A      4.473374  
     416A      4.521960   417A      4.548081   418A      4.559276  
     419A      4.581708   420A      4.609724   421A      4.634463  
     422A      4.668363   423A      4.675111   424A      4.703589  
     425A      4.706016   426A      4.710248   427A      4.765964  
     428A      4.768276   429A      4.827524   430A      4.844088  
     431A      4.862755   432A      4.901529   433A      4.914131  
     434A      4.918237   435A      4.944025   436A      4.963108  
     437A      4.963207   438A      4.992483   439A      5.000642  
     440A      5.033457   441A      5.041666   442A      5.050025  
     443A      5.093103   444A      5.101861   445A      5.130983  
     446A      5.190218   447A      5.239968   448A      5.305586  
     449A      5.319635   450A      5.389151   451A      5.413924  
     452A      5.465248   453A      5.500007   454A      5.633131  
     455A      5.650610   456A      5.760485   457A      5.765670  
     458A      5.800287   459A      5.988079   460A      6.121582  
     461A      6.143181   462A      6.206759   463A      6.270633  
     464A      6.287026   465A      6.308630   466A      6.484325  
     467A      6.489697   468A      6.524354   469A      6.564811  
     470A      6.712166   471A      6.720948   472A      6.748456  
     473A      6.782111   474A      6.799053   475A      6.806584  
     476A      6.808145   477A      6.928647   478A      6.953024  
     479A      6.953548   480A      6.971596   481A      6.983740  
     482A      6.994017   483A      7.020020   484A      7.022889  
     485A      7.044013   486A      7.065880   487A      7.073368  
     488A      7.098251   489A      7.135031   490A      7.140169  
     491A      7.169274   492A      7.221215   493A      7.238125  
     494A      7.278881   495A      7.344661   496A      7.378913  
     497A      7.392181   498A      7.430134   499A      7.454981  
     500A      7.602111   501A      7.631620   502A      7.639059  
     503A      7.645308   504A      7.670243   505A      7.678401  
     506A      7.712630   507A      7.715764   508A      7.763296  
     509A      7.859201   510A      7.860202   511A      7.865155  
     512A      7.886959   513A      7.908658   514A      7.934159  
     515A      7.986834   516A      7.993770   517A      8.025114  
     518A      8.041834   519A      8.112799   520A      8.293859  
     521A      8.298015   522A      8.402213   523A      8.405743  
     524A      8.433512   525A      8.444086   526A      8.508702  
     527A      8.512383   528A      8.549024   529A      8.599525  
     530A      8.660896   531A      8.714164   532A      8.801802  
     533A      8.815571   534A      8.841579   535A      8.866509  
     536A      8.874932   537A      8.903555   538A      9.013312  
     539A      9.053278   540A      9.180906   541A      9.191073  
     542A      9.194173   543A      9.229639   544A      9.287353  
     545A      9.316406   546A      9.429046   547A      9.458695  
     548A      9.473788   549A      9.545529   550A      9.550574  
     551A      9.582444   552A      9.583431   553A      9.624431  
     554A      9.694352   555A      9.701866   556A      9.708673  
     557A      9.727742   558A      9.755789   559A      9.776100  
     560A      9.781035   561A      9.821020   562A      9.863434  
     563A      9.954974   564A     10.008153   565A     10.064821  
     566A     10.098920   567A     10.170341   568A     10.172397  
     569A     10.336632   570A     10.338549   571A     10.371358  
     572A     10.373593   573A     10.396379   574A     10.420682  
     575A     10.473668   576A     10.578969   577A     10.616121  
     578A     10.723531   579A     10.763794   580A     10.798180  
     581A     10.798208   582A     10.844996   583A     10.869969  
     584A     10.897131   585A     10.916641   586A     10.940105  
     587A     11.217924   588A     11.244207   589A     11.324784  
     590A     11.334348   591A     11.524367   592A     12.057909  
     593A     12.063929   594A     12.085437   595A     12.425654  
     596A     13.160744   597A     13.165267   598A     13.206801  
     599A     13.223605   600A     13.234644   601A     13.576159  
     602A     14.575029   603A     14.641899   604A     14.669864  
     605A     14.947647   606A     15.050989   607A     16.426114  
     608A     17.381168   609A     17.428546   610A     20.881741  
     611A     28.332474   612A     30.143970   613A     30.266931  
     614A     30.556032   615A     30.614867   616A     31.022685  
     617A     51.891317   618A     71.245320   619A    139.360046  
     620A    139.435159   621A    139.631272   622A    728.979857  

    Final Occupation by Irrep:
              A 
    DOCC [    22 ]

  @DF-RHF Final Energy: -2612.09809446712961

   => Energetics <=

    Nuclear Repulsion Energy =             89.6704725009726360
    One-Electron Energy =               -3814.5944127039037994
    Two-Electron Energy =                1112.8258457358012947
    Total Energy =                      -2612.0980944671300676

Computation Completed


Properties will be evaluated at   0.000000,   0.000000,   0.000000 [a0]

Properties computed using the SCF density matrix

  Nuclear Dipole Moment: [e a0]
     X:  -174.6740      Y:    16.4104      Z:     0.0004

  Electronic Dipole Moment: [e a0]
     X:   174.8269      Y:   -17.2317      Z:    -0.0004

  Dipole Moment: [e a0]
     X:     0.1529      Y:    -0.8213      Z:    -0.0000     Total:     0.8354

  Dipole Moment: [D]
[...]
     153A      0.788011   154A      0.790397   155A      0.792882  
     156A      0.801801   157A      0.831893   158A      0.832421  
     159A      0.837475   160A      0.843632   161A      0.849296  
     162A      0.858819   163A      0.860687   164A      0.864685  
     165A      0.886884   166A      0.895036   167A      0.917622  
     168A      0.918838   169A      0.920526   170A      0.923286  
     171A      0.929769   172A      0.940392   173A      0.942613  
     174A      0.956355   175A      0.962895   176A      0.977579  
     177A      0.988978   178A      0.991854   179A      0.993472  
     180A      1.001038   181A      1.008302   182A      1.024611  
     183A      1.031145   184A      1.032277   185A      1.051695  
     186A      1.078486   187A      1.083215   188A      1.083750  
     189A      1.087768   190A      1.092581   191A      1.117573  
     192A      1.124820   193A      1.126451   194A      1.126505  
     195A      1.154040   196A      1.158436   197A      1.162954  
     198A      1.169176   199A      1.181714   200A      1.190394  
     201A      1.202065   202A      1.207852   203A      1.214589  
     204A      1.220364   205A      1.238834   206A      1.242407  
     207A      1.247499   208A      1.270585   209A      1.287321  
     210A      1.294551   211A      1.304701   212A      1.353689  
     213A      1.358258   214A      1.372159   215A      1.385899  
     216A      1.393929   217A      1.421400   218A      1.427614  
     219A      1.447454   220A      1.461749   221A      1.462494  
     222A      1.478871   223A      1.486378   224A      1.507778  
     225A      1.509711   226A      1.525480   227A      1.532265  
     228A      1.533639   229A      1.549659   230A      1.553891  
     231A      1.561549   232A      1.576322   233A      1.587742  
     234A      1.590096   235A      1.593263   236A      1.600189  
     237A      1.617914   238A      1.642884   239A      1.643089  
     240A      1.653096   241A      1.661529   242A      1.679958  
     243A      1.685939   244A      1.692290   245A      1.697481  
     246A      1.721913   247A      1.727597   248A      1.728776  
     249A      1.731469   250A      1.738072   251A      1.746715  
     252A      1.760154   253A      1.761158   254A      1.778678  
     255A      1.783698   256A      1.801944   257A      1.809425  
     258A      1.829513   259A      1.830234   260A      1.832571  
     261A      1.863081   262A      1.865358   263A      1.873364  
     264A      1.890974   265A      1.898380   266A      1.903854  
     267A      1.908362   268A      1.917835   269A      1.923325  
     270A      1.939797   271A      1.943704   272A      1.946282  
     273A      1.948598   274A      1.959833   275A      1.967959  
     276A      1.971779   277A      1.981853   278A      1.983472  
     279A      1.985047   280A      1.990911   281A      2.004358  
     282A      2.013393   283A      2.017796   284A      2.032658  
     285A      2.037279   286A      2.046760   287A      2.047593  
     288A      2.048058   289A      2.071560   290A      2.080805  
     291A      2.085143   292A      2.098034   293A      2.110281  
     294A      2.114421   295A      2.129039   296A      2.132279  
     297A      2.142670   298A      2.145984   299A      2.173383  
     300A      2.178036   301A      2.178129   302A      2.202812  
     303A      2.207409   304A      2.210990   305A      2.219896  
     306A      2.225732   307A      2.247140   308A      2.249499  
     309A      2.266849   310A      2.280720   311A      2.293182  
     312A      2.302487   313A      2.305569   314A      2.320304  
     315A      2.321385   316A      2.329626   317A      2.340397  
     318A      2.344101   319A      2.353691   320A      2.364528  
     321A      2.372739   322A      2.377518   323A      2.384253  
     324A      2.400357   325A      2.437264   326A      2.459026  
     327A      2.499291   328A      2.556176   329A      2.556494  
     330A      2.566126   331A      2.569440   332A      2.570931  
     333A      2.614952   334A      2.655732   335A      2.663754  
     336A      2.681788   337A      2.682568   338A      2.707853  
     339A      2.718586   340A      2.730864   341A      2.745852  
     342A      2.793496   343A      2.797665   344A      2.816313  
     345A      2.820971   346A      2.842430   347A      2.861206  
     348A      2.880232   349A      2.894255   350A      2.906863  
     351A      2.910676   352A      2.936598   353A      2.965580  
     354A      2.977928   355A      2.982629   356A      2.989729  
     357A      3.025188   358A      3.030163   359A      3.048056  
     360A      3.055325   361A      3.059089   362A      3.078706  
     363A      3.100965   364A      3.109446   365A      3.129338  
     366A      3.139873   367A      3.143616   368A      3.152281  
     369A      3.186487   370A      3.192906   371A      3.247199  
     372A      3.252639   373A      3.282135   374A      3.293992  
     375A      3.316114   376A      3.375668   377A      3.464502  
     378A      3.466662   379A      3.482754   380A      3.488402  
     381A      3.504041   382A      3.510536   383A      3.513326  
     384A      3.517723   385A      3.534943   386A      3.542423  
     387A      3.553544   388A      3.560261   389A      3.561904  
     390A      3.589940   391A      3.595885   392A      3.609885  
     393A      3.615492   394A      3.654487   395A      3.680584  
     396A      3.681446   397A      3.717456   398A      3.720959  
     399A      3.723254   400A      3.740606   401A      3.743691  
     402A      3.756941   403A      3.774642   404A      3.775576  
     405A      3.784186   406A      3.808981   407A      3.813067  
     408A      3.813516   409A      3.820286   410A      3.838906  
     411A      3.855950   412A      3.863131   413A      3.879040  
     414A      3.888233   415A      3.904536   416A      3.920751  
     417A      3.940562   418A      3.949304   419A      3.954836  
     420A      3.988567   421A      3.998364   422A      4.011745  
     423A      4.020579   424A      4.028172   425A      4.042299  
     426A      4.048345   427A      4.050037   428A      4.085360  
     429A      4.086962   430A      4.096960   431A      4.100023  
     432A      4.111391   433A      4.122901   434A      4.131642  
     435A      4.162041   436A      4.193193   437A      4.195319  
     438A      4.218256   439A      4.221438   440A      4.236046  
     441A      4.275072   442A      4.278876   443A      4.279103  
     444A      4.300482   445A      4.312269   446A      4.377951  
     447A      4.386173   448A      4.408379   449A      4.437551  
     450A      4.440502   451A      4.445909   452A      4.497835  
     453A      4.547588   454A      4.559933   455A      4.572681  
     456A      4.593583   457A      4.631493   458A      4.667816  
     459A      4.704247   460A      4.706017   461A      4.710533  
     462A      4.731498   463A      4.748047   464A      4.754233  
     465A      4.926366   466A      4.927537   467A      4.945588  
     468A      4.970134   469A      4.985406   470A      5.008323  
     471A      5.053738   472A      5.126986   473A      5.378052  
     474A      5.410551   475A      6.123115   476A      6.124160  
     477A      6.141643   478A      6.149491   479A      6.202933  
     480A      6.215069   481A      6.263295   482A      6.264546  
     483A      6.282354   484A      6.296859   485A      6.303383  
     486A      6.317906   487A      6.477088   488A      6.482827  
     489A      6.499664   490A      6.500341   491A      6.538598  
     492A      6.573183   493A      6.706396   494A      6.716010  
     495A      6.750922   496A      6.762331   497A      6.768592  
     498A      6.800699   499A      6.807381   500A      6.813926  
     501A      6.924598   502A      6.950309   503A      6.964683  
     504A      6.971733   505A      6.983965   506A      6.988765  
     507A      7.014116   508A      7.024872   509A      7.054268  
     510A      7.087577   511A      7.096854   512A      7.107149  
     513A      7.125868   514A      7.141558   515A      7.142834  
     516A      7.143292   517A      7.175150   518A      7.176953  
     519A      7.222513   520A      7.233729   521A      7.433532  
     522A      7.433688   523A      7.600042   524A      7.603422  
     525A      7.634673   526A      7.635484   527A      7.636960  
     528A      7.646341   529A      7.650641   530A      7.655396  
     531A      7.714647   532A      7.723329   533A      7.764525  
     534A      7.774223   535A      7.863048   536A      7.865311  
     537A      7.868885   538A      7.868969   539A      7.897790  
     540A      7.907757   541A      7.995958   542A      7.998074  
     543A      8.290080   544A      8.296330   545A      8.298931  
     546A      8.311258   547A      8.402975   548A      8.415291  
     549A      8.430268   550A      8.432003   551A      8.452647  
     552A      8.459336   553A      8.600587   554A      8.606390  
     555A      8.662479   556A      8.663071   557A      8.713484  
     558A      8.723062   559A      8.863664   560A      8.870954  
     561A      8.898207   562A      8.918648   563A      9.010264  
     564A      9.024260   565A      9.180021   566A      9.181168  
     567A      9.189935   568A      9.192975   569A      9.203593  
     570A      9.210486   571A      9.230096   572A      9.236840  
     573A      9.428134   574A      9.431631   575A      9.435618  
     576A      9.504149   577A      9.545089   578A      9.553492  
     579A      9.567260   580A      9.577159   581A      9.621869  
     582A      9.635107   583A      9.703762   584A      9.708672  
     585A      9.738297   586A      9.780680   587A      9.945690  
     588A      9.973326   589A     10.003852   590A     10.020821  
     591A     10.163675   592A     10.176511   593A     10.178491  
     594A     10.185537   595A     10.377803   596A     10.377993  
     597A     10.395547   598A     10.395897   599A     10.422565  
     600A     10.426048   601A     10.846312   602A     10.848903  
     603A     10.870032   604A     10.875406   605A     10.898493  
     606A     10.903125   607A     10.918020   608A     10.921076  
     609A     10.939285   610A     10.950599   611A     11.527244  
     612A     11.529412   613A     13.193883   614A     13.199891  
     615A     13.218130   616A     13.235080   617A     13.237547  
     618A     13.256405   619A     15.033841   620A     15.059608  
     621A     28.319074   622A     28.352748  

    Final Occupation by Irrep:
              A 
    DOCC [    44 ]

  @DF-RHF Final Energy: -5224.19690302038634

   => Energetics <=

    Nuclear Repulsion Energy =            414.9943237479467371
    One-Electron Energy =               -8100.4133738721893678
    Two-Electron Energy =                2461.2221471038565141
    Total Energy =                      -5224.1969030203863440

Computation Completed


Properties will be evaluated at   0.000000,   0.000000,   0.000000 [a0]

Properties computed using the SCF density matrix

  Nuclear Dipole Moment: [e a0]
     X:    -0.0011      Y:    -0.0002      Z:    -0.0003

  Electronic Dipole Moment: [e a0]
     X:     0.0009      Y:     0.0002      Z:     0.0003

  Dipole Moment: [e a0]
     X:    -0.0001      Y:    -0.0000      Z:    -0.0000     Total:     0.0002

  Dipole Moment: [D]
     X:    -0.0004      Y:    -0.0000      Z:    -0.0001     Total:     0.0004


*** tstop() called on node144.bme.utexas.edu at Sat Apr 11 16:26:07 2020
Module time:
	user time   =     306.54 seconds =       5.11 minutes
	system time =       7.64 seconds =       0.13 minutes
	total time  =         74 seconds =       1.23 minutes
Total time:
	user time   =    1574.27 seconds =      26.24 minutes
	system time =      47.67 seconds =       0.79 minutes
	total time  =        406 seconds =       6.77 minutes

*** tstart() called on node144.bme.utexas.edu
*** at Sat Apr 11 16:26:07 2020


  //>>>>>>>>>>>>>>>>>>>>>>>>>>>>>>>>>>>//
  //               DFMP2               //
  //<<<<<<<<<<<<<<<<<<<<<<<<<<<<<<<<<<<//

   => Loading Basis Set <=

    Name: (AUG-CC-PVQZ AUX)
    Role: RIFIT
    Keyword: DF_BASIS_MP2
    atoms 1, 6      entry BR         line  1518 file /home/liuchw/anaconda3/envs/psi4env/share/psi4/basis/aug-cc-pvqz-ri.gbs 
    atoms 2, 7      entry C          line   184 file /home/liuchw/anaconda3/envs/psi4env/share/psi4/basis/aug-cc-pvqz-ri.gbs 
    atoms 3-5, 8-10 entry H          line    30 file /home/liuchw/anaconda3/envs/psi4env/share/psi4/basis/aug-cc-pvqz-ri.gbs 

	 --------------------------------------------------------
	                          DF-MP2                         
	      2nd-Order Density-Fitted Moller-Plesset Theory     
	              RMP2 Wavefunction,   6 Threads             
	                                                         
	        Rob Parrish, Justin Turney, Andy Simmonett,      
	           Ed Hohenstein, and C. David Sherrill          
	 --------------------------------------------------------

   => Auxiliary Basis Set <=

  Basis Set: (AUG-CC-PVQZ AUX)
    Blend: AUG-CC-PVQZ-RI
    Number of shells: 296
    Number of basis function: 1340
    Number of Cartesian functions: 1878
    Spherical Harmonics?: true
    Max angular momentum: 6

	 --------------------------------------------------------
	                 NBF =   622, NAUX =  1340
	 --------------------------------------------------------
	   CLASS    FOCC     OCC    AOCC    AVIR     VIR    FVIR
	   PAIRS       0      44      44     578     578       0
	 --------------------------------------------------------

	-----------------------------------------------------------
	 ==================> DF-MP2 Energies <==================== 
	-----------------------------------------------------------
	 Reference Energy          =   -5224.1969030203863440 [Eh]
	 Singles Energy            =      -0.0000000000000000 [Eh]
	 Same-Spin Energy          =      -0.3254554161286838 [Eh]
	 Opposite-Spin Energy      =      -0.9115801034133200 [Eh]
	 Correlation Energy        =      -1.2370355195420037 [Eh]
	 Total Energy              =   -5225.4339385399280218 [Eh]
	-----------------------------------------------------------
	 ================> DF-SCS-MP2 Energies <================== 
	-----------------------------------------------------------
	 SCS Same-Spin Scale       =       0.3333333333333333 [-]
	 SCS Opposite-Spin Scale   =       1.2000000000000000 [-]
	 SCS Same-Spin Energy      =      -0.1084851387095613 [Eh]
	 SCS Opposite-Spin Energy  =      -1.0938961240959839 [Eh]
	 SCS Correlation Energy    =      -1.2023812628055452 [Eh]
	 SCS Total Energy          =   -5225.3992842831921735 [Eh]
	-----------------------------------------------------------


*** tstop() called on node144.bme.utexas.edu at Sat Apr 11 16:26:47 2020
Module time:
	user time   =     178.19 seconds =       2.97 minutes
	system time =       3.11 seconds =       0.05 minutes
	total time  =         40 seconds =       0.67 minutes
Total time:
	user time   =    1752.47 seconds =      29.21 minutes
	system time =      50.78 seconds =       0.85 minutes
	total time  =        446 seconds =       7.43 minutes

  //>>>>>>>>>>>>>>>>>>>>>>>>>>>>>>>>>>>//
  //  CBS Results: mp2/aug-cc-pv[tq]z  //
  //<<<<<<<<<<<<<<<<<<<<<<<<<<<<<<<<<<<//


   ==> HF <==

   HI-zeta (4) Energy:               -5224.196903020386


   ==> Helgaker 2-point correlated extrapolation for method: MP2 <==

   LO-zeta (3) Energy:               -5225.177004137938
   HI-zeta (4) Energy:               -5225.433938539928
   Alpha (exponent) Value:             3.000000000000
   Extrapolated Energy:              -5225.621431211651

   @Extrapolated MP2/(T,Q):          -5225.621431211651



   ==> Helgaker 2-point correlated extrapolation for method: HF <==

   LO-zeta (3) Energy:               -5224.186639548523
   HI-zeta (4) Energy:               -5224.196903020386
   Alpha (exponent) Value:             3.000000000000
   Extrapolated Energy:              -5224.204392580936

   @Extrapolated HF/(T,Q):           -5224.204392580936


   ==> Components <==

  ---------------------------------------------------------------------------------------------------------
                          Method / Basis                      Rqd      Energy [Eh]   Variable
  ---------------------------------------------------------------------------------------------------------
                              hf / aug-cc-pvtz                  *   -5224.18663955   HF TOTAL ENERGY
                             mp2 / aug-cc-pvtz                  *   -5225.17700414   MP2 TOTAL ENERGY
                              hf / aug-cc-pvqz                  *   -5224.19690302   HF TOTAL ENERGY
                             mp2 / aug-cc-pvqz                  *   -5225.43393854   MP2 TOTAL ENERGY
  ---------------------------------------------------------------------------------------------------------

   ==> Stages <==

  ---------------------------------------------------------------------------------------------------------
      Stage               Method / Basis                       Wt      Energy [Eh]   Scheme
  ---------------------------------------------------------------------------------------------------------
        scf                   hf / aug-cc-pvqz                  1   -5224.19690302   xtpl_highest_1
       corl                  mp2 / aug-cc-pv[tq]z               1   -5225.62143121   corl_xtpl_helgaker_2
       corl                   hf / aug-cc-pv[tq]z              -1   -5224.20439258   corl_xtpl_helgaker_2
  ---------------------------------------------------------------------------------------------------------

   ==> CBS <==

  ---------------------------------------------------------------------------------------------------------
      Stage               Method / Basis                               Energy [Eh]   Scheme
  ---------------------------------------------------------------------------------------------------------
        scf                   hf / aug-cc-pvqz                      -5224.19690302   xtpl_highest_1
       corl                  mp2 / aug-cc-pv[tq]z                      -1.41703863   corl_xtpl_helgaker_2
      total                  CBS                                    -5225.61394165   
  ---------------------------------------------------------------------------------------------------------
   => Loading Basis Set <=

    Name: DEF2-SVP
    Role: ORBITAL
    Keyword: BASIS
    atoms 1, 6      entry BR         line  1084 file /home/liuchw/anaconda3/envs/psi4env/share/psi4/basis/def2-svp.gbs 
    atoms 2, 7      entry C          line    90 file /home/liuchw/anaconda3/envs/psi4env/share/psi4/basis/def2-svp.gbs 
    atoms 3-5, 8-10 entry H          line    15 file /home/liuchw/anaconda3/envs/psi4env/share/psi4/basis/def2-svp.gbs 


       N-Body: Complex Energy (fragments = (1, 2), basis = (1, 2): -5225.61394165110141)

   ==> N-Body: Counterpoise Corrected (CP) energies <==

   n-Body     Total Energy [Eh]       I.E. [kcal/mol]      Delta [kcal/mol]
        1    -5225.607041940129        0.000000000000        0.000000000000
        2    -5225.611732013015       -2.943065168516       -2.943065168516

   => Loading Basis Set <=

    Name: DEF2-SVP
    Role: ORBITAL
    Keyword: BASIS
    atoms 1, 6      entry BR         line  1084 file /home/liuchw/anaconda3/envs/psi4env/share/psi4/basis/def2-svp.gbs 
    atoms 2, 7      entry C          line    90 file /home/liuchw/anaconda3/envs/psi4env/share/psi4/basis/def2-svp.gbs 
    atoms 3-5, 8-10 entry H          line    15 file /home/liuchw/anaconda3/envs/psi4env/share/psi4/basis/def2-svp.gbs 


    Psi4 stopped on: Saturday, 11 April 2020 04:26PM
    Psi4 wall time for execution: 0:07:27.53

*** Psi4 exiting successfully. Buy a developer a beer!
