
    -----------------------------------------------------------------------
          Psi4: An Open-Source Ab Initio Electronic Structure Package
                               Psi4 1.4a2.dev224 

                         Git: Rev {master} e453b16 


    R. M. Parrish, L. A. Burns, D. G. A. Smith, A. C. Simmonett,
    A. E. DePrince III, E. G. Hohenstein, U. Bozkaya, A. Yu. Sokolov,
    R. Di Remigio, R. M. Richard, J. F. Gonthier, A. M. James,
    H. R. McAlexander, A. Kumar, M. Saitow, X. Wang, B. P. Pritchard,
    P. Verma, H. F. Schaefer III, K. Patkowski, R. A. King, E. F. Valeev,
    F. A. Evangelista, J. M. Turney, T. D. Crawford, and C. D. Sherrill,
    J. Chem. Theory Comput. 13(7) pp 3185--3197 (2017).
    (doi: 10.1021/acs.jctc.7b00174)


                         Additional Contributions by
    P. Kraus, H. Kruse, M. H. Lechner, M. C. Schieber, R. A. Shaw,
    A. Alenaizan, R. Galvelis, Z. L. Glick, S. Lehtola, and J. P. Misiewicz

    -----------------------------------------------------------------------


    Psi4 started on: Saturday, 11 April 2020 04:26PM

    Process ID: 55836
    Host:       node59.bme.utexas.edu
    PSIDATADIR: /home/liuchw/anaconda3/envs/psi4env/share/psi4
    Memory:     500.0 MiB
    Threads:    6
    
  ==> Input File <==

--------------------------------------------------------------------------
#Generated by lconvert.py for cbs job

memory 40 GB

molecule  {
0 1
 Br       -1.0195800     0.0000080     0.0000000
  C       -2.9461150     0.0000240     0.0000000
  H       -3.2822580     1.0291710    -0.0000010
  H       -3.2822710    -0.5145450     0.8912640
  H       -3.2822710    -0.5145450    -0.8912650
--
0 1
 Br        4.8634840     0.0000170    -0.0000040
  C        2.9371630     0.0000180     0.0000010
  H        2.5989790     1.0287860     0.0000020
  H        2.5989810    -0.5143670     0.8909410
  H        2.5989770    -0.5143660    -0.8909380
units angstrom
no_reorient
symmetry c1
}

set {
scf_type DF
mp2_type DF
e_convergence 7
reference rhf
}

energy('mp2/aug-cc-pv[tq]z', bsse_type='cp')
--------------------------------------------------------------------------

  Memory set to  37.253 GiB by Python driver.

Scratch directory: /scratch//


   ===> N-Body Interaction Abacus <===
        BSSE Treatment:                     cp
        Number of 1-body computations:     4
        Number of 2-body computations:     1

   ==> N-Body: Now computing 1-body complexes <==


       N-Body: Computing complex (1/4) with fragments (2,) in the basis of fragments (2,).


Scratch directory: /scratch//

  //>>>>>>>>>>>>>>>>>>>>>>>>>>>>>>>>>>>//
  //   CBS Setup: mp2/aug-cc-pv[tq]z   //
  //<<<<<<<<<<<<<<<<<<<<<<<<<<<<<<<<<<<//

    Naive listing of computations required.
             hf / aug-cc-pvqz              for  HF TOTAL ENERGY
            mp2 / aug-cc-pvtz              for  MP2 TOTAL ENERGY
            mp2 / aug-cc-pvqz              for  MP2 TOTAL ENERGY
             hf / aug-cc-pvtz              for  HF TOTAL ENERGY
             hf / aug-cc-pvqz              for  HF TOTAL ENERGY

    Enlightened listing of computations required.
            mp2 / aug-cc-pvtz              for  MP2 TOTAL ENERGY
            mp2 / aug-cc-pvqz              for  MP2 TOTAL ENERGY

    Full listing of computations to be obtained (required and bonus).
             hf / aug-cc-pvtz              for  HF TOTAL ENERGY
            mp2 / aug-cc-pvtz              for  MP2 TOTAL ENERGY
             hf / aug-cc-pvqz              for  HF TOTAL ENERGY
            mp2 / aug-cc-pvqz              for  MP2 TOTAL ENERGY

  //>>>>>>>>>>>>>>>>>>>>>>>>>>>>>>>>>>>>//
  // CBS Computation: MP2 / AUG-CC-PVTZ //
  //<<<<<<<<<<<<<<<<<<<<<<<<<<<<<<<<<<<<//


Scratch directory: /scratch//

*** tstart() called on node59.bme.utexas.edu
*** at Sat Apr 11 16:26:45 2020

   => Loading Basis Set <=

    Name: AUG-CC-PVTZ
    Role: ORBITAL
    Keyword: BASIS
    atoms 1   entry BR         line  4208 file /home/liuchw/anaconda3/envs/psi4env/share/psi4/basis/aug-cc-pvtz.gbs 
    atoms 2   entry C          line   239 file /home/liuchw/anaconda3/envs/psi4env/share/psi4/basis/aug-cc-pvtz.gbs 
    atoms 3-5 entry H          line    40 file /home/liuchw/anaconda3/envs/psi4env/share/psi4/basis/aug-cc-pvtz.gbs 


         ---------------------------------------------------------
                                   SCF
               by Justin Turney, Rob Parrish, Andy Simmonett
                          and Daniel G. A. Smith
                              RHF Reference
                        6 Threads,  38146 MiB Core
         ---------------------------------------------------------

  ==> Geometry <==

    Molecular point group: c1
    Full point group: C1

    Geometry (in Angstrom), charge = 0, multiplicity = 1:

       Center              X                  Y                   Z               Mass       
    ------------   -----------------  -----------------  -----------------  -----------------
         BR           3.260464121608     0.000003097740    -0.000002399808    78.918337600000
         C            1.334143121608     0.000004097740     0.000002600192    12.000000000000
         H            0.995959121608     1.028772097740     0.000003600192     1.007825032230
         H            0.995961121608    -0.514380902260     0.890942600192     1.007825032230
         H            0.995957121608    -0.514379902260    -0.890936399808     1.007825032230

  Running in c1 symmetry.

  Rotational constants: A =      5.26811  B =      0.01949  C =      0.01949 [cm^-1]
  Rotational constants: A = 157933.99951  B =    584.31421  C =    584.31421 [MHz]
  Nuclear repulsion =   89.715033127349173

  Charge       = 0
  Multiplicity = 1
  Electrons    = 44
  Nalpha       = 22
  Nbeta        = 22

  ==> Algorithm <==

  SCF Algorithm Type is DF.
  DIIS enabled.
  MOM disabled.
  Fractional occupation disabled.
  Guess Type is SAD.
  Energy threshold   = 1.00e-07
  Density threshold  = 1.00e-08
  Integral threshold = 0.00e+00

  ==> Primary Basis <==

  Basis Set: AUG-CC-PVTZ
    Blend: AUG-CC-PVTZ
    Number of shells: 60
    Number of basis function: 174
    Number of Cartesian functions: 199
    Spherical Harmonics?: true
    Max angular momentum: 3

   => Loading Basis Set <=

    Name: (AUG-CC-PVTZ AUX)
    Role: JKFIT
    Keyword: DF_BASIS_SCF
    atoms 1   entry BR         line  1492 file /home/liuchw/anaconda3/envs/psi4env/share/psi4/basis/aug-cc-pvtz-jkfit.gbs 
    atoms 2   entry C          line   162 file /home/liuchw/anaconda3/envs/psi4env/share/psi4/basis/aug-cc-pvtz-jkfit.gbs 
    atoms 3-5 entry H          line    70 file /home/liuchw/anaconda3/envs/psi4env/share/psi4/basis/aug-cc-pvtz-jkfit.gbs 

  ==> Pre-Iterations <==

   -------------------------------------------------------
    Irrep   Nso     Nmo     Nalpha   Nbeta   Ndocc  Nsocc
   -------------------------------------------------------
     A        174     174       0       0       0       0
   -------------------------------------------------------
    Total     174     174      22      22      22       0
   -------------------------------------------------------

  ==> Integral Setup <==

  DFHelper Memory: AOs need 0.120 GiB; user supplied 27.940 GiB. Using in-core AOs.

  ==> MemDFJK: Density-Fitted J/K Matrices <==

    J tasked:                   Yes
    K tasked:                   Yes
    wK tasked:                   No
    OpenMP threads:               6
    Memory [MiB]:             28610
    Algorithm:                 Core
    Schwarz Cutoff:           1E-12
    Mask sparsity (%):       0.0000
    Fitting Condition:        1E-10

   => Auxiliary Basis Set <=

  Basis Set: (AUG-CC-PVTZ AUX)
    Blend: AUG-CC-PVTZ-JKFIT
    Number of shells: 130
    Number of basis function: 490
    Number of Cartesian functions: 625
    Spherical Harmonics?: true
    Max angular momentum: 4

  Minimum eigenvalue in the overlap matrix is 8.1454239898E-05.
  Using Symmetric Orthogonalization.

  SCF Guess: Superposition of Atomic Densities via on-the-fly atomic UHF.

  ==> Iterations <==

                           Total Energy        Delta E     RMS |[F,P]|

   @DF-RHF iter SAD: -2609.99499385152831   -2.60999e+03   0.00000e+00 
   @DF-RHF iter   1: -2611.91676202023427   -1.92177e+00   5.46917e-03 DIIS
   @DF-RHF iter   2: -2612.06226692596738   -1.45505e-01   2.46981e-03 DIIS
   @DF-RHF iter   3: -2612.09220028659865   -2.99334e-02   1.43554e-04 DIIS
   @DF-RHF iter   4: -2612.09284061895096   -6.40332e-04   4.22134e-05 DIIS
   @DF-RHF iter   5: -2612.09289470235672   -5.40834e-05   1.31401e-05 DIIS
   @DF-RHF iter   6: -2612.09289881915265   -4.11680e-06   3.30887e-06 DIIS
   @DF-RHF iter   7: -2612.09289911367341   -2.94521e-07   7.61729e-07 DIIS
   @DF-RHF iter   8: -2612.09289914373403   -3.00606e-08   2.34548e-07 DIIS
   @DF-RHF iter   9: -2612.09289914694364   -3.20961e-09   3.53039e-08 DIIS
   @DF-RHF iter  10: -2612.09289914700867   -6.50289e-11   3.70586e-09 DIIS
  Energy and wave function converged.


  ==> Post-Iterations <==

    Orbital Energies [Eh]
    ---------------------

    Doubly Occupied:                                                      

       1A   -490.013544     2A    -65.153545     3A    -58.508828  
       4A    -58.507457     5A    -58.507457     6A    -11.287010  
       7A     -9.826533     8A     -7.438108     9A     -7.431402  
      10A     -7.431402    11A     -3.181696    12A     -3.178206  
      13A     -3.178206    14A     -3.169630    15A     -3.169630  
      16A     -1.064391    17A     -0.897212    18A     -0.612597  
      19A     -0.612596    20A     -0.508723    21A     -0.401826  
      22A     -0.401826  

    Virtual:                                                              

      23A      0.027881    24A      0.046283    25A      0.046283  
      26A      0.058458    27A      0.100779    28A      0.115692  
      29A      0.115692    30A      0.128155    31A      0.128155  
      32A      0.131225    33A      0.176377    34A      0.199745  
      35A      0.199745    36A      0.213753    37A      0.262550  
      38A      0.262550    39A      0.290320    40A      0.310964  
      41A      0.310964    42A      0.333992    43A      0.334561  
      44A      0.334561    45A      0.342549    46A      0.393643  
      47A      0.397271    48A      0.397271    49A      0.415955  
      50A      0.433911    51A      0.433912    52A      0.437150  
      53A      0.448400    54A      0.448401    55A      0.495996  
      56A      0.495997    57A      0.578126    58A      0.578126  
      59A      0.579008    60A      0.668794    61A      0.668794  
      62A      0.700751    63A      0.768852    64A      0.784898  
      65A      0.784898    66A      0.818003    67A      0.818003  
      68A      0.867925    69A      0.867932    70A      0.867932  
      71A      0.914586    72A      0.932047    73A      0.935331  
      74A      0.955949    75A      0.955949    76A      0.957269  
      77A      0.977678    78A      0.992257    79A      0.992257  
      80A      1.060765    81A      1.073315    82A      1.073316  
      83A      1.086682    84A      1.086682    85A      1.131687  
      86A      1.131687    87A      1.144006    88A      1.225707  
      89A      1.225707    90A      1.255932    91A      1.255932  
      92A      1.295436    93A      1.352145    94A      1.437901  
      95A      1.437901    96A      1.475634    97A      1.548609  
      98A      1.581010    99A      1.581010   100A      1.614122  
     101A      1.630582   102A      1.630582   103A      1.651645  
     104A      1.713374   105A      1.718665   106A      1.718666  
     107A      1.902419   108A      1.902419   109A      1.935431  
     110A      2.008500   111A      2.008500   112A      2.052681  
     113A      2.158733   114A      2.158733   115A      2.254395  
     116A      2.254395   117A      2.266386   118A      2.343684  
     119A      2.343684   120A      2.345095   121A      2.345797  
     122A      2.428823   123A      2.428823   124A      2.472884  
     125A      2.534882   126A      2.534883   127A      2.608674  
     128A      2.608675   129A      2.647034   130A      2.899854  
     131A      3.002203   132A      3.312218   133A      3.312219  
     134A      3.479758   135A      3.479758   136A      3.506309  
     137A      3.557893   138A      3.577293   139A      3.577293  
     140A      3.728900   141A      3.728901   142A      3.911655  
     143A      3.911655   144A      3.936748   145A      4.026496  
     146A      4.060278   147A      4.060278   148A      4.071026  
     149A      4.122745   150A      4.122745   151A      4.206944  
     152A      4.441162   153A      4.441162   154A      4.474973  
     155A      4.744646   156A      4.744646   157A      4.836322  
     158A      4.857243   159A      4.930352   160A      4.930352  
     161A      5.045519   162A      5.147373   163A      5.147374  
     164A      5.304160   165A      5.494154   166A      5.494155  
     167A      5.585338   168A      5.667016   169A      6.028199  
     170A      6.028200   171A      6.103187   172A      6.582928  
     173A      6.582929   174A     16.978879  

    Final Occupation by Irrep:
              A 
    DOCC [    22 ]

  @DF-RHF Final Energy: -2612.09289914700867

   => Energetics <=

    Nuclear Repulsion Energy =             89.7150331273491730
    One-Electron Energy =               -3814.6522097877423221
    Two-Electron Energy =                1112.8442775133848954
    Total Energy =                      -2612.0928991470082110

Computation Completed


Properties will be evaluated at   0.000000,   0.000000,   0.000000 [a0]

Properties computed using the SCF density matrix

  Nuclear Dipole Moment: [e a0]
     X:   236.4217      Y:     0.0003      Z:    -0.0001

  Electronic Dipole Moment: [e a0]
     X:  -237.2554      Y:    -0.0003      Z:     0.0001

  Dipole Moment: [e a0]
     X:    -0.8337      Y:     0.0000      Z:     0.0000     Total:     0.8337

  Dipole Moment: [D]
     X:    -2.1191      Y:     0.0000      Z:     0.0000     Total:     2.1191


*** tstop() called on node59.bme.utexas.edu at Sat Apr 11 16:26:48 2020
Module time:
	user time   =      14.03 seconds =       0.23 minutes
	system time =       0.75 seconds =       0.01 minutes
	total time  =          3 seconds =       0.05 minutes
Total time:
	user time   =      14.03 seconds =       0.23 minutes
	system time =       0.75 seconds =       0.01 minutes
	total time  =          3 seconds =       0.05 minutes

*** tstart() called on node59.bme.utexas.edu
*** at Sat Apr 11 16:26:48 2020


  //>>>>>>>>>>>>>>>>>>>>>>>>>>>>>>>>>>>//
  //               DFMP2               //
  //<<<<<<<<<<<<<<<<<<<<<<<<<<<<<<<<<<<//

   => Loading Basis Set <=

    Name: (AUG-CC-PVTZ AUX)
    Role: RIFIT
    Keyword: DF_BASIS_MP2
    atoms 1   entry BR         line  1248 file /home/liuchw/anaconda3/envs/psi4env/share/psi4/basis/aug-cc-pvtz-ri.gbs 
    atoms 2   entry C          line   148 file /home/liuchw/anaconda3/envs/psi4env/share/psi4/basis/aug-cc-pvtz-ri.gbs 
    atoms 3-5 entry H          line    30 file /home/liuchw/anaconda3/envs/psi4env/share/psi4/basis/aug-cc-pvtz-ri.gbs 

	 --------------------------------------------------------
	                          DF-MP2                         
	      2nd-Order Density-Fitted Moller-Plesset Theory     
	              RMP2 Wavefunction,   6 Threads             
	                                                         
	        Rob Parrish, Justin Turney, Andy Simmonett,      
	           Ed Hohenstein, and C. David Sherrill          
	 --------------------------------------------------------

   => Auxiliary Basis Set <=

  Basis Set: (AUG-CC-PVTZ AUX)
    Blend: AUG-CC-PVTZ-RI
    Number of shells: 113
    Number of basis function: 435
    Number of Cartesian functions: 562
    Spherical Harmonics?: true
    Max angular momentum: 5

	 --------------------------------------------------------
	                 NBF =   174, NAUX =   435
	 --------------------------------------------------------
	   CLASS    FOCC     OCC    AOCC    AVIR     VIR    FVIR
	   PAIRS       0      22      22     152     152       0
	 --------------------------------------------------------

	-----------------------------------------------------------
	 ==================> DF-MP2 Energies <==================== 
	-----------------------------------------------------------
	 Reference Energy          =   -2612.0928991470086658 [Eh]
	 Singles Energy            =      -0.0000000000000000 [Eh]
	 Same-Spin Energy          =      -0.1267947724468183 [Eh]
	 Opposite-Spin Energy      =      -0.3643977519424784 [Eh]
	 Correlation Energy        =      -0.4911925243892967 [Eh]
	 Total Energy              =   -2612.5840916713978004 [Eh]
	-----------------------------------------------------------
	 ================> DF-SCS-MP2 Energies <================== 
	-----------------------------------------------------------
	 SCS Same-Spin Scale       =       0.3333333333333333 [-]
	 SCS Opposite-Spin Scale   =       1.2000000000000000 [-]
	 SCS Same-Spin Energy      =      -0.0422649241489394 [Eh]
	 SCS Opposite-Spin Energy  =      -0.4372773023309740 [Eh]
	 SCS Correlation Energy    =      -0.4795422264799135 [Eh]
	 SCS Total Energy          =   -2612.5724413734888003 [Eh]
	-----------------------------------------------------------


*** tstop() called on node59.bme.utexas.edu at Sat Apr 11 16:26:49 2020
Module time:
	user time   =       4.96 seconds =       0.08 minutes
	system time =       0.23 seconds =       0.00 minutes
	total time  =          1 seconds =       0.02 minutes
Total time:
	user time   =      19.00 seconds =       0.32 minutes
	system time =       0.98 seconds =       0.02 minutes
	total time  =          4 seconds =       0.07 minutes

  //>>>>>>>>>>>>>>>>>>>>>>>>>>>>>>>>>>>>//
  // CBS Computation: MP2 / AUG-CC-PVQZ //
  //<<<<<<<<<<<<<<<<<<<<<<<<<<<<<<<<<<<<//


Scratch directory: /scratch//

*** tstart() called on node59.bme.utexas.edu
*** at Sat Apr 11 16:26:49 2020

   => Loading Basis Set <=

    Name: AUG-CC-PVQZ
    Role: ORBITAL
    Keyword: BASIS
    atoms 1   entry BR         line  5448 file /home/liuchw/anaconda3/envs/psi4env/share/psi4/basis/aug-cc-pvqz.gbs 
    atoms 2   entry C          line   303 file /home/liuchw/anaconda3/envs/psi4env/share/psi4/basis/aug-cc-pvqz.gbs 
    atoms 3-5 entry H          line    40 file /home/liuchw/anaconda3/envs/psi4env/share/psi4/basis/aug-cc-pvqz.gbs 


         ---------------------------------------------------------
                                   SCF
               by Justin Turney, Rob Parrish, Andy Simmonett
                          and Daniel G. A. Smith
                              RHF Reference
                        6 Threads,  38146 MiB Core
         ---------------------------------------------------------

  ==> Geometry <==

    Molecular point group: c1
    Full point group: C1

    Geometry (in Angstrom), charge = 0, multiplicity = 1:

       Center              X                  Y                   Z               Mass       
    ------------   -----------------  -----------------  -----------------  -----------------
         BR           3.260464121608     0.000003097740    -0.000002399808    78.918337600000
         C            1.334143121608     0.000004097740     0.000002600192    12.000000000000
         H            0.995959121608     1.028772097740     0.000003600192     1.007825032230
         H            0.995961121608    -0.514380902260     0.890942600192     1.007825032230
         H            0.995957121608    -0.514379902260    -0.890936399808     1.007825032230

  Running in c1 symmetry.

  Rotational constants: A =      5.26811  B =      0.01949  C =      0.01949 [cm^-1]
  Rotational constants: A = 157933.99951  B =    584.31421  C =    584.31421 [MHz]
  Nuclear repulsion =   89.715033127349173

  Charge       = 0
  Multiplicity = 1
  Electrons    = 44
  Nalpha       = 22
  Nbeta        = 22

  ==> Algorithm <==

  SCF Algorithm Type is DF.
  DIIS enabled.
  MOM disabled.
  Fractional occupation disabled.
  Guess Type is SAD.
  Energy threshold   = 1.00e-07
  Density threshold  = 1.00e-08
  Integral threshold = 0.00e+00

  ==> Primary Basis <==

  Basis Set: AUG-CC-PVQZ
    Blend: AUG-CC-PVQZ
    Number of shells: 87
    Number of basis function: 311
    Number of Cartesian functions: 389
    Spherical Harmonics?: true
    Max angular momentum: 4

   => Loading Basis Set <=

    Name: (AUG-CC-PVQZ AUX)
    Role: JKFIT
    Keyword: DF_BASIS_SCF
    atoms 1   entry BR         line  1612 file /home/liuchw/anaconda3/envs/psi4env/share/psi4/basis/aug-cc-pvqz-jkfit.gbs 
    atoms 2   entry C          line   178 file /home/liuchw/anaconda3/envs/psi4env/share/psi4/basis/aug-cc-pvqz-jkfit.gbs 
    atoms 3-5 entry H          line    70 file /home/liuchw/anaconda3/envs/psi4env/share/psi4/basis/aug-cc-pvqz-jkfit.gbs 

  ==> Pre-Iterations <==

   -------------------------------------------------------
    Irrep   Nso     Nmo     Nalpha   Nbeta   Ndocc  Nsocc
   -------------------------------------------------------
     A        311     311       0       0       0       0
   -------------------------------------------------------
    Total     311     311      22      22      22       0
   -------------------------------------------------------

  ==> Integral Setup <==

  DFHelper Memory: AOs need 0.492 GiB; user supplied 27.940 GiB. Using in-core AOs.

  ==> MemDFJK: Density-Fitted J/K Matrices <==

    J tasked:                   Yes
    K tasked:                   Yes
    wK tasked:                   No
    OpenMP threads:               6
    Memory [MiB]:             28610
    Algorithm:                 Core
    Schwarz Cutoff:           1E-12
    Mask sparsity (%):       0.0269
    Fitting Condition:        1E-10

   => Auxiliary Basis Set <=

  Basis Set: (AUG-CC-PVQZ AUX)
    Blend: AUG-CC-PVQZ-JKFIT
    Number of shells: 148
    Number of basis function: 640
    Number of Cartesian functions: 872
    Spherical Harmonics?: true
    Max angular momentum: 5

  Minimum eigenvalue in the overlap matrix is 1.6741819324E-05.
  Using Symmetric Orthogonalization.

  SCF Guess: Superposition of Atomic Densities via on-the-fly atomic UHF.

  ==> Iterations <==

                           Total Energy        Delta E     RMS |[F,P]|

   @DF-RHF iter SAD: -2609.97985116872951   -2.60998e+03   0.00000e+00 
   @DF-RHF iter   1: -2611.88320599757708   -1.90335e+00   3.90001e-03 DIIS
   @DF-RHF iter   2: -2612.04770809048659   -1.64502e-01   2.06642e-03 DIIS
   @DF-RHF iter   3: -2612.09728577481383   -4.95777e-02   8.69016e-05 DIIS
   @DF-RHF iter   4: -2612.09798780455367   -7.02030e-04   2.72908e-05 DIIS
   @DF-RHF iter   5: -2612.09805786799552   -7.00634e-05   9.28633e-06 DIIS
   @DF-RHF iter   6: -2612.09806411842555   -6.25043e-06   2.17793e-06 DIIS
   @DF-RHF iter   7: -2612.09806450785754   -3.89432e-07   5.07175e-07 DIIS
   @DF-RHF iter   8: -2612.09806454545060   -3.75931e-08   1.59852e-07 DIIS
   @DF-RHF iter   9: -2612.09806455007219   -4.62160e-09   3.10227e-08 DIIS
   @DF-RHF iter  10: -2612.09806455021635   -1.44155e-10   4.41932e-09 DIIS
  Energy and wave function converged.


  ==> Post-Iterations <==

    Orbital Energies [Eh]
    ---------------------

    Doubly Occupied:                                                      

       1A   -490.012582     2A    -65.153026     3A    -58.508433  
       4A    -58.507034     5A    -58.507034     6A    -11.285721  
       7A     -9.826315     8A     -7.437807     9A     -7.431322  
      10A     -7.431322    11A     -3.181381    12A     -3.177954  
      13A     -3.177954    14A     -3.169558    15A     -3.169558  
      16A     -1.064058    17A     -0.897069    18A     -0.612608  
      19A     -0.612608    20A     -0.508629    21A     -0.401875  
      22A     -0.401875  

    Virtual:                                                              

      23A      0.024738    24A      0.041742    25A      0.041742  
      26A      0.049880    27A      0.085549    28A      0.095164  
      29A      0.095164    30A      0.108741    31A      0.108741  
      32A      0.114562    33A      0.154227    34A      0.170009  
      35A      0.170009    36A      0.191441    37A      0.230283  
      38A      0.230283    39A      0.235803    40A      0.256954  
      41A      0.256954    42A      0.267267    43A      0.272364  
      44A      0.274069    45A      0.274069    46A      0.310782  
      47A      0.319493    48A      0.319493    49A      0.332686  
      50A      0.349129    51A      0.351117    52A      0.351117  
      53A      0.363351    54A      0.363351    55A      0.392780  
      56A      0.392780    57A      0.412242    58A      0.412242  
      59A      0.422481    60A      0.509964    61A      0.509964  
      62A      0.526837    63A      0.573537    64A      0.573537  
      65A      0.590078    66A      0.591358    67A      0.591358  
      68A      0.657176    69A      0.672497    70A      0.680424  
      71A      0.693322    72A      0.693322    73A      0.708085  
      74A      0.708085    75A      0.710831    76A      0.728191  
      77A      0.742761    78A      0.742761    79A      0.749855  
      80A      0.790632    81A      0.790632    82A      0.793861  
      83A      0.835153    84A      0.835153    85A      0.849940  
      86A      0.887928    87A      0.887928    88A      0.894693  
      89A      0.894693    90A      0.931354    91A      0.931354  
      92A      0.936261    93A      0.940657    94A      1.020925  
      95A      1.063789    96A      1.063789    97A      1.079994  
      98A      1.092764    99A      1.092764   100A      1.133306  
     101A      1.145075   102A      1.145075   103A      1.151426  
     104A      1.195279   105A      1.232713   106A      1.232713  
     107A      1.356376   108A      1.356376   109A      1.364679  
     110A      1.394168   111A      1.394168   112A      1.464859  
     113A      1.494482   114A      1.494482   115A      1.497892  
     116A      1.497892   117A      1.500901   118A      1.553003  
     119A      1.553003   120A      1.555653   121A      1.574945  
     122A      1.574945   123A      1.617287   124A      1.642415  
     125A      1.669141   126A      1.669141   127A      1.708579  
     128A      1.720234   129A      1.720234   130A      1.744827  
     131A      1.801076   132A      1.801076   133A      1.811427  
     134A      1.828164   135A      1.889285   136A      1.889285  
     137A      1.910365   138A      1.910368   139A      1.910369  
     140A      1.939589   141A      1.939589   142A      1.973134  
     143A      1.973134   144A      1.986437   145A      2.004445  
     146A      2.004445   147A      2.051154   148A      2.051155  
     149A      2.056870   150A      2.084184   151A      2.087265  
     152A      2.131174   153A      2.141031   154A      2.167785  
     155A      2.167785   156A      2.245531   157A      2.264258  
     158A      2.264258   159A      2.288785   160A      2.288785  
     161A      2.303773   162A      2.313170   163A      2.313170  
     164A      2.413611   165A      2.511467   166A      2.545082  
     167A      2.545083   168A      2.582210   169A      2.672376  
     170A      2.672377   171A      2.696190   172A      2.769028  
     173A      2.788719   174A      2.788719   175A      2.834514  
     176A      2.834514   177A      2.884908   178A      2.932931  
     179A      2.932931   180A      3.006244   181A      3.025987  
     182A      3.025987   183A      3.064904   184A      3.064904  
     185A      3.107408   186A      3.239349   187A      3.239350  
     188A      3.249901   189A      3.430595   190A      3.443270  
     191A      3.455873   192A      3.455873   193A      3.500099  
     194A      3.539796   195A      3.539796   196A      3.544765  
     197A      3.575140   198A      3.664893   199A      3.664893  
     200A      3.695080   201A      3.695080   202A      3.701436  
     203A      3.711678   204A      3.711678   205A      3.738992  
     206A      3.840140   207A      3.840140   208A      3.854709  
     209A      3.854709   210A      3.866523   211A      3.878903  
     212A      3.878903   213A      3.989662   214A      3.998469  
     215A      4.028577   216A      4.028577   217A      4.069949  
     218A      4.069949   219A      4.083427   220A      4.161965  
     221A      4.161965   222A      4.245695   223A      4.264723  
     224A      4.264723   225A      4.394640   226A      4.394641  
     227A      4.538112   228A      4.538112   229A      4.590696  
     230A      4.681222   231A      4.685618   232A      4.685618  
     233A      4.872853   234A      4.925894   235A      4.984518  
     236A      4.984519   237A      5.345370   238A      6.099598  
     239A      6.099598   240A      6.155614   241A      6.184016  
     242A      6.250753   243A      6.250753   244A      6.463159  
     245A      6.470027   246A      6.470028   247A      6.700075  
     248A      6.700075   249A      6.727232   250A      6.799152  
     251A      6.919962   252A      6.919963   253A      6.977016  
     254A      6.977017   255A      7.042140   256A      7.083011  
     257A      7.083011   258A      7.130979   259A      7.130979  
     260A      7.189279   261A      7.385044   262A      7.585109  
     263A      7.585109   264A      7.610920   265A      7.611472  
     266A      7.705618   267A      7.705619   268A      7.841476  
     269A      7.864302   270A      7.864303   271A      7.975698  
     272A      8.276593   273A      8.276593   274A      8.373309  
     275A      8.373309   276A      8.426625   277A      8.591107  
     278A      8.591107   279A      8.687336   280A      8.844490  
     281A      8.844490   282A      8.999842   283A      9.166218  
     284A      9.166218   285A      9.169897   286A      9.223743  
     287A      9.412188   288A      9.412188   289A      9.527770  
     290A      9.527771   291A      9.584694   292A      9.693564  
     293A      9.693564   294A      9.924259   295A      9.982543  
     296A     10.145163   297A     10.145163   298A     10.369448  
     299A     10.369448   300A     10.407384   301A     10.823571  
     302A     10.823572   303A     10.861730   304A     10.924252  
     305A     10.924253   306A     11.501467   307A     13.167294  
     308A     13.180806   309A     13.180808   310A     14.772813  
     311A     28.302090  

    Final Occupation by Irrep:
              A 
    DOCC [    22 ]

  @DF-RHF Final Energy: -2612.09806455021635

   => Energetics <=

    Nuclear Repulsion Energy =             89.7150331273491730
    One-Electron Energy =               -3814.6747598785095761
    Two-Electron Energy =                1112.8616622009444654
    Total Energy =                      -2612.0980645502158950

Computation Completed


Properties will be evaluated at   0.000000,   0.000000,   0.000000 [a0]

Properties computed using the SCF density matrix

  Nuclear Dipole Moment: [e a0]
     X:   236.4217      Y:     0.0003      Z:    -0.0001

  Electronic Dipole Moment: [e a0]
     X:  -237.2532      Y:    -0.0003      Z:     0.0001

  Dipole Moment: [e a0]
     X:    -0.8314      Y:     0.0000      Z:     0.0000     Total:     0.8314

  Dipole Moment: [D]
     X:    -2.1133      Y:     0.0000      Z:     0.0000     Total:     2.1133


*** tstop() called on node59.bme.utexas.edu at Sat Apr 11 16:26:55 2020
Module time:
	user time   =      27.12 seconds =       0.45 minutes
	system time =       1.19 seconds =       0.02 minutes
	total time  =          6 seconds =       0.10 minutes
Total time:
	user time   =      46.15 seconds =       0.77 minutes
	system time =       2.17 seconds =       0.04 minutes
	total time  =         10 seconds =       0.17 minutes

*** tstart() called on node59.bme.utexas.edu
*** at Sat Apr 11 16:26:55 2020


  //>>>>>>>>>>>>>>>>>>>>>>>>>>>>>>>>>>>//
  //               DFMP2               //
  //<<<<<<<<<<<<<<<<<<<<<<<<<<<<<<<<<<<//

   => Loading Basis Set <=

    Name: (AUG-CC-PVQZ AUX)
    Role: RIFIT
    Keyword: DF_BASIS_MP2
    atoms 1   entry BR         line  1518 file /home/liuchw/anaconda3/envs/psi4env/share/psi4/basis/aug-cc-pvqz-ri.gbs 
    atoms 2   entry C          line   184 file /home/liuchw/anaconda3/envs/psi4env/share/psi4/basis/aug-cc-pvqz-ri.gbs 
    atoms 3-5 entry H          line    30 file /home/liuchw/anaconda3/envs/psi4env/share/psi4/basis/aug-cc-pvqz-ri.gbs 

	 --------------------------------------------------------
	                          DF-MP2                         
	      2nd-Order Density-Fitted Moller-Plesset Theory     
	              RMP2 Wavefunction,   6 Threads             
	                                                         
	        Rob Parrish, Justin Turney, Andy Simmonett,      
	           Ed Hohenstein, and C. David Sherrill          
	 --------------------------------------------------------

   => Auxiliary Basis Set <=

  Basis Set: (AUG-CC-PVQZ AUX)
    Blend: AUG-CC-PVQZ-RI
    Number of shells: 148
    Number of basis function: 670
    Number of Cartesian functions: 939
    Spherical Harmonics?: true
    Max angular momentum: 6

	 --------------------------------------------------------
	                 NBF =   311, NAUX =   670
	 --------------------------------------------------------
	   CLASS    FOCC     OCC    AOCC    AVIR     VIR    FVIR
	   PAIRS       0      22      22     289     289       0
	 --------------------------------------------------------

	-----------------------------------------------------------
	 ==================> DF-MP2 Energies <==================== 
	-----------------------------------------------------------
	 Reference Energy          =   -2612.0980645502163497 [Eh]
	 Singles Energy            =      -0.0000000000000000 [Eh]
	 Same-Spin Energy          =      -0.1612415524817259 [Eh]
	 Opposite-Spin Energy      =      -0.4538346918137895 [Eh]
	 Correlation Energy        =      -0.6150762442955154 [Eh]
	 Total Energy              =   -2612.7131407945116734 [Eh]
	-----------------------------------------------------------
	 ================> DF-SCS-MP2 Energies <================== 
	-----------------------------------------------------------
	 SCS Same-Spin Scale       =       0.3333333333333333 [-]
	 SCS Opposite-Spin Scale   =       1.2000000000000000 [-]
	 SCS Same-Spin Energy      =      -0.0537471841605753 [Eh]
	 SCS Opposite-Spin Energy  =      -0.5446016301765474 [Eh]
	 SCS Correlation Energy    =      -0.5983488143371227 [Eh]
	 SCS Total Energy          =   -2612.6964133645533366 [Eh]
	-----------------------------------------------------------


*** tstop() called on node59.bme.utexas.edu at Sat Apr 11 16:26:58 2020
Module time:
	user time   =      11.36 seconds =       0.19 minutes
	system time =       0.46 seconds =       0.01 minutes
	total time  =          3 seconds =       0.05 minutes
Total time:
	user time   =      57.52 seconds =       0.96 minutes
	system time =       2.63 seconds =       0.04 minutes
	total time  =         13 seconds =       0.22 minutes

  //>>>>>>>>>>>>>>>>>>>>>>>>>>>>>>>>>>>//
  //  CBS Results: mp2/aug-cc-pv[tq]z  //
  //<<<<<<<<<<<<<<<<<<<<<<<<<<<<<<<<<<<//


   ==> HF <==

   HI-zeta (4) Energy:               -2612.098064550216


   ==> Helgaker 2-point correlated extrapolation for method: MP2 <==

   LO-zeta (3) Energy:               -2612.584091671398
   HI-zeta (4) Energy:               -2612.713140794512
   Alpha (exponent) Value:             3.000000000000
   Extrapolated Energy:              -2612.807311776244

   @Extrapolated MP2/(T,Q):          -2612.807311776244



   ==> Helgaker 2-point correlated extrapolation for method: HF <==

   LO-zeta (3) Energy:               -2612.092899147008
   HI-zeta (4) Energy:               -2612.098064550216
   Alpha (exponent) Value:             3.000000000000
   Extrapolated Energy:              -2612.101833898503

   @Extrapolated HF/(T,Q):           -2612.101833898503


   ==> Components <==

  ---------------------------------------------------------------------------------------------------------
                          Method / Basis                      Rqd      Energy [Eh]   Variable
  ---------------------------------------------------------------------------------------------------------
                              hf / aug-cc-pvtz                  *   -2612.09289915   HF TOTAL ENERGY
                             mp2 / aug-cc-pvtz                  *   -2612.58409167   MP2 TOTAL ENERGY
                              hf / aug-cc-pvqz                  *   -2612.09806455   HF TOTAL ENERGY
                             mp2 / aug-cc-pvqz                  *   -2612.71314079   MP2 TOTAL ENERGY
  ---------------------------------------------------------------------------------------------------------

   ==> Stages <==

  ---------------------------------------------------------------------------------------------------------
      Stage               Method / Basis                       Wt      Energy [Eh]   Scheme
  ---------------------------------------------------------------------------------------------------------
        scf                   hf / aug-cc-pvqz                  1   -2612.09806455   xtpl_highest_1
       corl                  mp2 / aug-cc-pv[tq]z               1   -2612.80731178   corl_xtpl_helgaker_2
       corl                   hf / aug-cc-pv[tq]z              -1   -2612.10183390   corl_xtpl_helgaker_2
  ---------------------------------------------------------------------------------------------------------

   ==> CBS <==

  ---------------------------------------------------------------------------------------------------------
      Stage               Method / Basis                               Energy [Eh]   Scheme
  ---------------------------------------------------------------------------------------------------------
        scf                   hf / aug-cc-pvqz                      -2612.09806455   xtpl_highest_1
       corl                  mp2 / aug-cc-pv[tq]z                      -0.70547788   corl_xtpl_helgaker_2
      total                  CBS                                    -2612.80354243   
  ---------------------------------------------------------------------------------------------------------
   => Loading Basis Set <=

    Name: DEF2-SVP
    Role: ORBITAL
    Keyword: BASIS
    atoms 1   entry BR         line  1084 file /home/liuchw/anaconda3/envs/psi4env/share/psi4/basis/def2-svp.gbs 
    atoms 2   entry C          line    90 file /home/liuchw/anaconda3/envs/psi4env/share/psi4/basis/def2-svp.gbs 
    atoms 3-5 entry H          line    15 file /home/liuchw/anaconda3/envs/psi4env/share/psi4/basis/def2-svp.gbs 


       N-Body: Complex Energy (fragments = (2,), basis = (2,): -2612.80354242795738)

       N-Body: Computing complex (2/4) with fragments (2,) in the basis of fragments (1, 2).


Scratch directory: /scratch//

  //>>>>>>>>>>>>>>>>>>>>>>>>>>>>>>>>>>>//
  //   CBS Setup: mp2/aug-cc-pv[tq]z   //
  //<<<<<<<<<<<<<<<<<<<<<<<<<<<<<<<<<<<//

    Naive listing of computations required.
             hf / aug-cc-pvqz              for  HF TOTAL ENERGY
            mp2 / aug-cc-pvtz              for  MP2 TOTAL ENERGY
            mp2 / aug-cc-pvqz              for  MP2 TOTAL ENERGY
             hf / aug-cc-pvtz              for  HF TOTAL ENERGY
             hf / aug-cc-pvqz              for  HF TOTAL ENERGY

    Enlightened listing of computations required.
            mp2 / aug-cc-pvtz              for  MP2 TOTAL ENERGY
            mp2 / aug-cc-pvqz              for  MP2 TOTAL ENERGY

    Full listing of computations to be obtained (required and bonus).
             hf / aug-cc-pvtz              for  HF TOTAL ENERGY
            mp2 / aug-cc-pvtz              for  MP2 TOTAL ENERGY
             hf / aug-cc-pvqz              for  HF TOTAL ENERGY
            mp2 / aug-cc-pvqz              for  MP2 TOTAL ENERGY

  //>>>>>>>>>>>>>>>>>>>>>>>>>>>>>>>>>>>>//
  // CBS Computation: MP2 / AUG-CC-PVTZ //
  //<<<<<<<<<<<<<<<<<<<<<<<<<<<<<<<<<<<<//


Scratch directory: /scratch//

*** tstart() called on node59.bme.utexas.edu
*** at Sat Apr 11 16:26:59 2020

   => Loading Basis Set <=

    Name: AUG-CC-PVTZ
    Role: ORBITAL
    Keyword: BASIS
    atoms 1, 6      entry BR         line  4208 file /home/liuchw/anaconda3/envs/psi4env/share/psi4/basis/aug-cc-pvtz.gbs 
    atoms 2, 7      entry C          line   239 file /home/liuchw/anaconda3/envs/psi4env/share/psi4/basis/aug-cc-pvtz.gbs 
    atoms 3-5, 8-10 entry H          line    40 file /home/liuchw/anaconda3/envs/psi4env/share/psi4/basis/aug-cc-pvtz.gbs 


         ---------------------------------------------------------
                                   SCF
               by Justin Turney, Rob Parrish, Andy Simmonett
                          and Daniel G. A. Smith
                              RHF Reference
                        6 Threads,  38146 MiB Core
         ---------------------------------------------------------

  ==> Geometry <==

    Molecular point group: c1
    Full point group: C1

    Geometry (in Angstrom), charge = 0, multiplicity = 1:

       Center              X                  Y                   Z               Mass       
    ------------   -----------------  -----------------  -----------------  -----------------
      Gh(BR)         -2.622599878392    -0.000005902260     0.000001600192    78.918337600000
      Gh(C)          -4.549134878392     0.000010097740     0.000001600192    12.000000000000
      Gh(H)          -4.885277878392     1.029157097740     0.000000600192     1.007825032230
      Gh(H)          -4.885290878392    -0.514558902260     0.891265600192     1.007825032230
      Gh(H)          -4.885290878392    -0.514558902260    -0.891263399808     1.007825032230
         BR           3.260464121608     0.000003097740    -0.000002399808    78.918337600000
         C            1.334143121608     0.000004097740     0.000002600192    12.000000000000
         H            0.995959121608     1.028772097740     0.000003600192     1.007825032230
         H            0.995961121608    -0.514380902260     0.890942600192     1.007825032230
         H            0.995957121608    -0.514379902260    -0.890936399808     1.007825032230

  Running in c1 symmetry.

  Rotational constants: A =      2.63309  B =      0.00975  C =      0.00975 [cm^-1]
  Rotational constants: A =  78938.18418  B =    292.15912  C =    292.15912 [MHz]
  Nuclear repulsion =   89.715033127349173

  Charge       = 0
  Multiplicity = 1
  Electrons    = 44
  Nalpha       = 22
  Nbeta        = 22

  ==> Algorithm <==

  SCF Algorithm Type is DF.
  DIIS enabled.
  MOM disabled.
  Fractional occupation disabled.
  Guess Type is SAD.
  Energy threshold   = 1.00e-07
  Density threshold  = 1.00e-08
  Integral threshold = 0.00e+00

  ==> Primary Basis <==

  Basis Set: AUG-CC-PVTZ
    Blend: AUG-CC-PVTZ
    Number of shells: 120
    Number of basis function: 348
    Number of Cartesian functions: 398
    Spherical Harmonics?: true
    Max angular momentum: 3

   => Loading Basis Set <=

    Name: (AUG-CC-PVTZ AUX)
    Role: JKFIT
    Keyword: DF_BASIS_SCF
    atoms 1, 6      entry BR         line  1492 file /home/liuchw/anaconda3/envs/psi4env/share/psi4/basis/aug-cc-pvtz-jkfit.gbs 
    atoms 2, 7      entry C          line   162 file /home/liuchw/anaconda3/envs/psi4env/share/psi4/basis/aug-cc-pvtz-jkfit.gbs 
    atoms 3-5, 8-10 entry H          line    70 file /home/liuchw/anaconda3/envs/psi4env/share/psi4/basis/aug-cc-pvtz-jkfit.gbs 

  ==> Pre-Iterations <==

   -------------------------------------------------------
    Irrep   Nso     Nmo     Nalpha   Nbeta   Ndocc  Nsocc
   -------------------------------------------------------
     A        348     348       0       0       0       0
   -------------------------------------------------------
    Total     348     348      22      22      22       0
   -------------------------------------------------------

  ==> Integral Setup <==

  DFHelper Memory: AOs need 0.805 GiB; user supplied 27.940 GiB. Using in-core AOs.

  ==> MemDFJK: Density-Fitted J/K Matrices <==

    J tasked:                   Yes
    K tasked:                   Yes
    wK tasked:                   No
    OpenMP threads:               6
    Memory [MiB]:             28610
    Algorithm:                 Core
    Schwarz Cutoff:           1E-12
    Mask sparsity (%):      13.1193
    Fitting Condition:        1E-10

   => Auxiliary Basis Set <=

  Basis Set: (AUG-CC-PVTZ AUX)
    Blend: AUG-CC-PVTZ-JKFIT
    Number of shells: 260
    Number of basis function: 980
    Number of Cartesian functions: 1250
    Spherical Harmonics?: true
    Max angular momentum: 4

  Minimum eigenvalue in the overlap matrix is 5.0284857997E-05.
  Using Symmetric Orthogonalization.

  SCF Guess: Superposition of Atomic Densities via on-the-fly atomic UHF.

  ==> Iterations <==

                           Total Energy        Delta E     RMS |[F,P]|

   @DF-RHF iter SAD: -2609.99499419600716   -2.60999e+03   0.00000e+00 
   @DF-RHF iter   1: -2611.91654400528796   -1.92155e+00   2.74252e-03 DIIS
   @DF-RHF iter   2: -2612.06217250814507   -1.45629e-01   1.23985e-03 DIIS
   @DF-RHF iter   3: -2612.09221641401018   -3.00439e-02   7.18496e-05 DIIS
   @DF-RHF iter   4: -2612.09285744274121   -6.41029e-04   2.11228e-05 DIIS
   @DF-RHF iter   5: -2612.09291164711567   -5.42044e-05   6.58316e-06 DIIS
   @DF-RHF iter   6: -2612.09291578216516   -4.13505e-06   1.65810e-06 DIIS
   @DF-RHF iter   7: -2612.09291607777413   -2.95609e-07   3.81705e-07 DIIS
   @DF-RHF iter   8: -2612.09291610796936   -3.01952e-08   1.17639e-07 DIIS
   @DF-RHF iter   9: -2612.09291611119033   -3.22098e-09   1.77447e-08 DIIS
   @DF-RHF iter  10: -2612.09291611125855   -6.82121e-11   1.87095e-09 DIIS
  Energy and wave function converged.


  ==> Post-Iterations <==

    Orbital Energies [Eh]
    ---------------------

    Doubly Occupied:                                                      

       1A   -490.013631     2A    -65.153609     3A    -58.508895  
       4A    -58.507522     5A    -58.507522     6A    -11.287000  
       7A     -9.826553     8A     -7.438121     9A     -7.431423  
      10A     -7.431423    11A     -3.181709    12A     -3.178228  
      13A     -3.178228    14A     -3.169651    15A     -3.169651  
      16A     -1.064387    17A     -0.897207    18A     -0.612591  
      19A     -0.612591    20A     -0.508721    21A     -0.401825  
      22A     -0.401825  

    Virtual:                                                              

      23A      0.016908    24A      0.037412    25A      0.038894  
      26A      0.038894    27A      0.056268    28A      0.056268  
      29A      0.056484    30A      0.077907    31A      0.094610  
      32A      0.099929    33A      0.099929    34A      0.117699  
      35A      0.120916    36A      0.120916    37A      0.131122  
      38A      0.131122    39A      0.140698    40A      0.143915  
      41A      0.143915    42A      0.169489    43A      0.177171  
      44A      0.198545    45A      0.198545    46A      0.222200  
      47A      0.222200    48A      0.222758    49A      0.259719  
      50A      0.263706    51A      0.268977    52A      0.268977  
      53A      0.273571    54A      0.299206    55A      0.299206  
      56A      0.304058    57A      0.304058    58A      0.325664  
      59A      0.325664    60A      0.333791    61A      0.336309  
      62A      0.336309    63A      0.339928    64A      0.342227  
      65A      0.354131    66A      0.354131    67A      0.355873  
      68A      0.361461    69A      0.363674    70A      0.363674  
      71A      0.373085    72A      0.399235    73A      0.423586  
      74A      0.423587    75A      0.436311    76A      0.436311  
      77A      0.439568    78A      0.454574    79A      0.454574  
      80A      0.461424    81A      0.461424    82A      0.466256  
      83A      0.489768    84A      0.495331    85A      0.495331  
      86A      0.534583    87A      0.534583    88A      0.548255  
      89A      0.564347    90A      0.564347    91A      0.573657  
      92A      0.588781    93A      0.588781    94A      0.638315  
      95A      0.638315    96A      0.644001    97A      0.663518  
      98A      0.663518    99A      0.677813   100A      0.708538  
     101A      0.708539   102A      0.739642   103A      0.787106  
     104A      0.787106   105A      0.792066   106A      0.813097  
     107A      0.833107   108A      0.833107   109A      0.867572  
     110A      0.896435   111A      0.896435   112A      0.932594  
     113A      0.935704   114A      0.936937   115A      0.936937  
     116A      0.939994   117A      0.957193   118A      0.967881  
     119A      0.973014   120A      0.973015   121A      0.992954  
     122A      0.992955   123A      1.010195   124A      1.012336  
     125A      1.027252   126A      1.031082   127A      1.031083  
     128A      1.033215   129A      1.033215   130A      1.053393  
     131A      1.062286   132A      1.062630   133A      1.062630  
     134A      1.084919   135A      1.084919   136A      1.089674  
     137A      1.089674   138A      1.096031   139A      1.131432  
     140A      1.131432   141A      1.132207   142A      1.142293  
     143A      1.142294   144A      1.143074   145A      1.172440  
     146A      1.172440   147A      1.184346   148A      1.184346  
     149A      1.193693   150A      1.208036   151A      1.211688  
     152A      1.234234   153A      1.234234   154A      1.246962  
     155A      1.246962   156A      1.261822   157A      1.261822  
     158A      1.262169   159A      1.313636   160A      1.313636  
     161A      1.334215   162A      1.353145   163A      1.353145  
     164A      1.381294   165A      1.384522   166A      1.384524  
     167A      1.422167   168A      1.422167   169A      1.436414  
     170A      1.451592   171A      1.451592   172A      1.491081  
     173A      1.526042   174A      1.555686   175A      1.606676  
     176A      1.606676   177A      1.614944   178A      1.658477  
     179A      1.658477   180A      1.659968   181A      1.692292  
     182A      1.722735   183A      1.722735   184A      1.736899  
     185A      1.736900   186A      1.747150   187A      1.754619  
     188A      1.862598   189A      1.862599   190A      1.864030  
     191A      1.887242   192A      1.902573   193A      1.902574  
     194A      1.918217   195A      1.918217   196A      1.935493  
     197A      1.989334   198A      2.028342   199A      2.028342  
     200A      2.055573   201A      2.055573   202A      2.089140  
     203A      2.093099   204A      2.168871   205A      2.168871  
     206A      2.256938   207A      2.256940   208A      2.263967  
     209A      2.263967   210A      2.331434   211A      2.343793  
     212A      2.345802   213A      2.346317   214A      2.346317  
     215A      2.374869   216A      2.430511   217A      2.430511  
     218A      2.434981   219A      2.434981   220A      2.437328  
     221A      2.487397   222A      2.537489   223A      2.537489  
     224A      2.613501   225A      2.613501   226A      2.695752  
     227A      2.697193   228A      2.697194   229A      2.820659  
     230A      2.971540   231A      2.971540   232A      2.973278  
     233A      3.054172   234A      3.142667   235A      3.150648  
     236A      3.251153   237A      3.251154   238A      3.285207  
     239A      3.315969   240A      3.315969   241A      3.334814  
     242A      3.334814   243A      3.426318   244A      3.442106  
     245A      3.442107   246A      3.488079   247A      3.488079  
     248A      3.503261   249A      3.503261   250A      3.555238  
     251A      3.557935   252A      3.612486   253A      3.612486  
     254A      3.709049   255A      3.725153   256A      3.751731  
     257A      3.751731   258A      3.917362   259A      3.917362  
     260A      3.958202   261A      4.019251   262A      4.026628  
     263A      4.048359   264A      4.067626   265A      4.067626  
     266A      4.082575   267A      4.082575   268A      4.121751  
     269A      4.121752   270A      4.134542   271A      4.147382  
     272A      4.147382   273A      4.238508   274A      4.391273  
     275A      4.396371   276A      4.396371   277A      4.445323  
     278A      4.445323   279A      4.470229   280A      4.470442  
     281A      4.470442   282A      4.492256   283A      4.607782  
     284A      4.607783   285A      4.742055   286A      4.760772  
     287A      4.760772   288A      4.805350   289A      4.857247  
     290A      4.870214   291A      4.870215   292A      4.896449  
     293A      4.896877   294A      4.896877   295A      4.940601  
     296A      4.940601   297A      5.145137   298A      5.152173  
     299A      5.152174   300A      5.222307   301A      5.223974  
     302A      5.287644   303A      5.287644   304A      5.333211  
     305A      5.378352   306A      5.483294   307A      5.483294  
     308A      5.501913   309A      5.501913   310A      5.595444  
     311A      5.615955   312A      5.615956   313A      5.667019  
     314A      5.702951   315A      6.038850   316A      6.038850  
     317A      6.074710   318A      6.129172   319A      6.140431  
     320A      6.140433   321A      6.277239   322A      6.586781  
     323A      6.586782   324A      6.597465   325A      6.597465  
     326A      7.168580   327A      7.482210   328A      7.748306  
     329A      7.748307   330A      8.149392   331A      8.149396  
     332A     10.273651   333A     10.863013   334A     13.616139  
     335A     13.616139   336A     14.358602   337A     17.322389  
     338A     26.182155   339A     26.182156   340A     26.365093  
     341A     26.365093   342A     26.692865   343A     46.376674  
     344A     51.463331   345A    138.662068   346A    138.662068  
     347A    139.829458   348A    711.320640  

    Final Occupation by Irrep:
              A 
    DOCC [    22 ]

  @DF-RHF Final Energy: -2612.09291611125855

   => Energetics <=

    Nuclear Repulsion Energy =             89.7150331273491730
    One-Electron Energy =               -3814.6512757259965838
    Two-Electron Energy =                1112.8433264873892767
    Total Energy =                      -2612.0929161112580914

Computation Completed


Properties will be evaluated at   0.000000,   0.000000,   0.000000 [a0]

Properties computed using the SCF density matrix

  Nuclear Dipole Moment: [e a0]
     X:   236.4217      Y:     0.0003      Z:    -0.0001

  Electronic Dipole Moment: [e a0]
     X:  -237.2551      Y:    -0.0003      Z:     0.0001

  Dipole Moment: [e a0]
     X:    -0.8334      Y:     0.0000      Z:     0.0000     Total:     0.8334

  Dipole Moment: [D]
     X:    -2.1183      Y:     0.0000      Z:     0.0000     Total:     2.1183


*** tstop() called on node59.bme.utexas.edu at Sat Apr 11 16:27:07 2020
Module time:
	user time   =      37.49 seconds =       0.62 minutes
	system time =       1.27 seconds =       0.02 minutes
	total time  =          8 seconds =       0.13 minutes
Total time:
	user time   =      97.27 seconds =       1.62 minutes
	system time =       3.99 seconds =       0.07 minutes
	total time  =         22 seconds =       0.37 minutes

*** tstart() called on node59.bme.utexas.edu
*** at Sat Apr 11 16:27:07 2020


  //>>>>>>>>>>>>>>>>>>>>>>>>>>>>>>>>>>>//
  //               DFMP2               //
  //<<<<<<<<<<<<<<<<<<<<<<<<<<<<<<<<<<<//

   => Loading Basis Set <=

    Name: (AUG-CC-PVTZ AUX)
    Role: RIFIT
    Keyword: DF_BASIS_MP2
    atoms 1, 6      entry BR         line  1248 file /home/liuchw/anaconda3/envs/psi4env/share/psi4/basis/aug-cc-pvtz-ri.gbs 
    atoms 2, 7      entry C          line   148 file /home/liuchw/anaconda3/envs/psi4env/share/psi4/basis/aug-cc-pvtz-ri.gbs 
    atoms 3-5, 8-10 entry H          line    30 file /home/liuchw/anaconda3/envs/psi4env/share/psi4/basis/aug-cc-pvtz-ri.gbs 

	 --------------------------------------------------------
	                          DF-MP2                         
	      2nd-Order Density-Fitted Moller-Plesset Theory     
	              RMP2 Wavefunction,   6 Threads             
	                                                         
	        Rob Parrish, Justin Turney, Andy Simmonett,      
	           Ed Hohenstein, and C. David Sherrill          
	 --------------------------------------------------------

   => Auxiliary Basis Set <=

  Basis Set: (AUG-CC-PVTZ AUX)
    Blend: AUG-CC-PVTZ-RI
    Number of shells: 226
    Number of basis function: 870
    Number of Cartesian functions: 1124
    Spherical Harmonics?: true
    Max angular momentum: 5

	 --------------------------------------------------------
	                 NBF =   348, NAUX =   870
	 --------------------------------------------------------
	   CLASS    FOCC     OCC    AOCC    AVIR     VIR    FVIR
	   PAIRS       0      22      22     326     326       0
	 --------------------------------------------------------

	-----------------------------------------------------------
	 ==================> DF-MP2 Energies <==================== 
	-----------------------------------------------------------
	 Reference Energy          =   -2612.0929161112585462 [Eh]
	 Singles Energy            =      -0.0000000000000000 [Eh]
	 Same-Spin Energy          =      -0.1270370031154660 [Eh]
	 Opposite-Spin Energy      =      -0.3650721390224059 [Eh]
	 Correlation Energy        =      -0.4921091421378719 [Eh]
	 Total Energy              =   -2612.5850252533964522 [Eh]
	-----------------------------------------------------------
	 ================> DF-SCS-MP2 Energies <================== 
	-----------------------------------------------------------
	 SCS Same-Spin Scale       =       0.3333333333333333 [-]
	 SCS Opposite-Spin Scale   =       1.2000000000000000 [-]
	 SCS Same-Spin Energy      =      -0.0423456677051553 [Eh]
	 SCS Opposite-Spin Energy  =      -0.4380865668268871 [Eh]
	 SCS Correlation Energy    =      -0.4804322345320424 [Eh]
	 SCS Total Energy          =   -2612.5733483457906914 [Eh]
	-----------------------------------------------------------


*** tstop() called on node59.bme.utexas.edu at Sat Apr 11 16:27:12 2020
Module time:
	user time   =      18.53 seconds =       0.31 minutes
	system time =       0.59 seconds =       0.01 minutes
	total time  =          5 seconds =       0.08 minutes
Total time:
	user time   =     115.81 seconds =       1.93 minutes
	system time =       4.58 seconds =       0.08 minutes
	total time  =         27 seconds =       0.45 minutes

  //>>>>>>>>>>>>>>>>>>>>>>>>>>>>>>>>>>>>//
  // CBS Computation: MP2 / AUG-CC-PVQZ //
  //<<<<<<<<<<<<<<<<<<<<<<<<<<<<<<<<<<<<//


Scratch directory: /scratch//

*** tstart() called on node59.bme.utexas.edu
*** at Sat Apr 11 16:27:12 2020

   => Loading Basis Set <=

    Name: AUG-CC-PVQZ
    Role: ORBITAL
    Keyword: BASIS
    atoms 1, 6      entry BR         line  5448 file /home/liuchw/anaconda3/envs/psi4env/share/psi4/basis/aug-cc-pvqz.gbs 
    atoms 2, 7      entry C          line   303 file /home/liuchw/anaconda3/envs/psi4env/share/psi4/basis/aug-cc-pvqz.gbs 
    atoms 3-5, 8-10 entry H          line    40 file /home/liuchw/anaconda3/envs/psi4env/share/psi4/basis/aug-cc-pvqz.gbs 


         ---------------------------------------------------------
                                   SCF
               by Justin Turney, Rob Parrish, Andy Simmonett
                          and Daniel G. A. Smith
                              RHF Reference
                        6 Threads,  38146 MiB Core
         ---------------------------------------------------------

  ==> Geometry <==

    Molecular point group: c1
    Full point group: C1

    Geometry (in Angstrom), charge = 0, multiplicity = 1:

       Center              X                  Y                   Z               Mass       
    ------------   -----------------  -----------------  -----------------  -----------------
      Gh(BR)         -2.622599878392    -0.000005902260     0.000001600192    78.918337600000
      Gh(C)          -4.549134878392     0.000010097740     0.000001600192    12.000000000000
      Gh(H)          -4.885277878392     1.029157097740     0.000000600192     1.007825032230
      Gh(H)          -4.885290878392    -0.514558902260     0.891265600192     1.007825032230
      Gh(H)          -4.885290878392    -0.514558902260    -0.891263399808     1.007825032230
         BR           3.260464121608     0.000003097740    -0.000002399808    78.918337600000
         C            1.334143121608     0.000004097740     0.000002600192    12.000000000000
         H            0.995959121608     1.028772097740     0.000003600192     1.007825032230
         H            0.995961121608    -0.514380902260     0.890942600192     1.007825032230
         H            0.995957121608    -0.514379902260    -0.890936399808     1.007825032230

  Running in c1 symmetry.

  Rotational constants: A =      2.63309  B =      0.00975  C =      0.00975 [cm^-1]
  Rotational constants: A =  78938.18418  B =    292.15912  C =    292.15912 [MHz]
  Nuclear repulsion =   89.715033127349173

  Charge       = 0
  Multiplicity = 1
  Electrons    = 44
  Nalpha       = 22
  Nbeta        = 22

  ==> Algorithm <==

  SCF Algorithm Type is DF.
  DIIS enabled.
  MOM disabled.
  Fractional occupation disabled.
  Guess Type is SAD.
  Energy threshold   = 1.00e-07
  Density threshold  = 1.00e-08
  Integral threshold = 0.00e+00

  ==> Primary Basis <==

  Basis Set: AUG-CC-PVQZ
    Blend: AUG-CC-PVQZ
    Number of shells: 174
    Number of basis function: 622
    Number of Cartesian functions: 778
    Spherical Harmonics?: true
    Max angular momentum: 4

   => Loading Basis Set <=

    Name: (AUG-CC-PVQZ AUX)
    Role: JKFIT
    Keyword: DF_BASIS_SCF
    atoms 1, 6      entry BR         line  1612 file /home/liuchw/anaconda3/envs/psi4env/share/psi4/basis/aug-cc-pvqz-jkfit.gbs 
    atoms 2, 7      entry C          line   178 file /home/liuchw/anaconda3/envs/psi4env/share/psi4/basis/aug-cc-pvqz-jkfit.gbs 
    atoms 3-5, 8-10 entry H          line    70 file /home/liuchw/anaconda3/envs/psi4env/share/psi4/basis/aug-cc-pvqz-jkfit.gbs 

  ==> Pre-Iterations <==

   -------------------------------------------------------
    Irrep   Nso     Nmo     Nalpha   Nbeta   Ndocc  Nsocc
   -------------------------------------------------------
     A        622     622       0       0       0       0
   -------------------------------------------------------
    Total     622     622      22      22      22       0
   -------------------------------------------------------

  ==> Integral Setup <==

  DFHelper Memory: AOs need 3.120 GiB; user supplied 27.940 GiB. Using in-core AOs.

  ==> MemDFJK: Density-Fitted J/K Matrices <==

    J tasked:                   Yes
    K tasked:                   Yes
    wK tasked:                   No
    OpenMP threads:               6
    Memory [MiB]:             28610
    Algorithm:                 Core
    Schwarz Cutoff:           1E-12
    Mask sparsity (%):      18.8170
    Fitting Condition:        1E-10

   => Auxiliary Basis Set <=

  Basis Set: (AUG-CC-PVQZ AUX)
    Blend: AUG-CC-PVQZ-JKFIT
    Number of shells: 296
    Number of basis function: 1280
    Number of Cartesian functions: 1744
    Spherical Harmonics?: true
    Max angular momentum: 5

  Minimum eigenvalue in the overlap matrix is 1.0132707499E-05.
  Using Symmetric Orthogonalization.

  SCF Guess: Superposition of Atomic Densities via on-the-fly atomic UHF.

  ==> Iterations <==

                           Total Energy        Delta E     RMS |[F,P]|

   @DF-RHF iter SAD: -2609.97985132090071   -2.60998e+03   0.00000e+00 
   @DF-RHF iter   1: -2611.88310878467018   -1.90326e+00   1.95157e-03 DIIS
   @DF-RHF iter   2: -2612.04764755063798   -1.64539e-01   1.03448e-03 DIIS
   @DF-RHF iter   3: -2612.09729144407902   -4.96439e-02   4.34621e-05 DIIS
   @DF-RHF iter   4: -2612.09799368291306   -7.02239e-04   1.36494e-05 DIIS
   @DF-RHF iter   5: -2612.09806379119345   -7.01083e-05   4.64596e-06 DIIS
   @DF-RHF iter   6: -2612.09807004864069   -6.25745e-06   1.09003e-06 DIIS
   @DF-RHF iter   7: -2612.09807043850742   -3.89867e-07   2.53748e-07 DIIS
   @DF-RHF iter   8: -2612.09807047612230   -3.76149e-08   7.99907e-08 DIIS
   @DF-RHF iter   9: -2612.09807048076345   -4.64115e-09   1.55365e-08 DIIS
   @DF-RHF iter  10: -2612.09807048091443   -1.50976e-10   2.21405e-09 DIIS
  Energy and wave function converged.


  ==> Post-Iterations <==

    Orbital Energies [Eh]
    ---------------------

    Doubly Occupied:                                                      

       1A   -490.012576     2A    -65.153022     3A    -58.508428  
       4A    -58.507029     5A    -58.507029     6A    -11.285720  
       7A     -9.826313     8A     -7.437806     9A     -7.431320  
      10A     -7.431320    11A     -3.181381    12A     -3.177953  
      13A     -3.177953    14A     -3.169556    15A     -3.169556  
      16A     -1.064058    17A     -0.897069    18A     -0.612607  
      19A     -0.612607    20A     -0.508629    21A     -0.401875  
      22A     -0.401875  

    Virtual:                                                              

      23A      0.015181    24A      0.033913    25A      0.035097  
      26A      0.035097    27A      0.049223    28A      0.051535  
      29A      0.051535    30A      0.069901    31A      0.083755  
      32A      0.085787    33A      0.085787    34A      0.101935  
      35A      0.101935    36A      0.103743    37A      0.112648  
      38A      0.112648    39A      0.124430    40A      0.124430  
      41A      0.125712    42A      0.149834    43A      0.158239  
      44A      0.167129    45A      0.167129    46A      0.181641  
      47A      0.181641    48A      0.192039    49A      0.214838  
      50A      0.223575    51A      0.233792    52A      0.233792  
      53A      0.241020    54A      0.244669    55A      0.244670  
      56A      0.249494    57A      0.249494    58A      0.265170  
      59A      0.270192    60A      0.271485    61A      0.271485  
      62A      0.273640    63A      0.280665    64A      0.280666  
      65A      0.281006    66A      0.292536    67A      0.293068  
      68A      0.293068    69A      0.305358    70A      0.305358  
      71A      0.321179    72A      0.330427    73A      0.345712  
      74A      0.345712    75A      0.348890    76A      0.348891  
      77A      0.354333    78A      0.366543    79A      0.366543  
      80A      0.390655    81A      0.393546    82A      0.393546  
      83A      0.396591    84A      0.396592    85A      0.403098  
      86A      0.423602    87A      0.423602    88A      0.435680  
      89A      0.435680    90A      0.453152    91A      0.463865  
      92A      0.471459    93A      0.471460    94A      0.503161  
      95A      0.503162    96A      0.515518    97A      0.530750  
      98A      0.530750    99A      0.536574   100A      0.553759  
     101A      0.553760   102A      0.574175   103A      0.574175  
     104A      0.592439   105A      0.598337   106A      0.598337  
     107A      0.604012   108A      0.631365   109A      0.647102  
     110A      0.669132   111A      0.670738   112A      0.683651  
     113A      0.683651   114A      0.691272   115A      0.693787  
     116A      0.693787   117A      0.706178   118A      0.706178  
     119A      0.708243   120A      0.710138   121A      0.713167  
     122A      0.721887   123A      0.721887   124A      0.724348  
     125A      0.732555   126A      0.732556   127A      0.744107  
     128A      0.765078   129A      0.765078   130A      0.772005  
     131A      0.779726   132A      0.779726   133A      0.804220  
     134A      0.804220   135A      0.806093   136A      0.811793  
     137A      0.811793   138A      0.821319   139A      0.834995  
     140A      0.842130   141A      0.842131   142A      0.865301  
     143A      0.871044   144A      0.871044   145A      0.889876  
     146A      0.892524   147A      0.892524   148A      0.894608  
     149A      0.896450   150A      0.896450   151A      0.904949  
     152A      0.904950   153A      0.905816   154A      0.943312  
     155A      0.943312   156A      0.953203   157A      0.953203  
     158A      0.979771   159A      0.979772   160A      0.984872  
     161A      0.991026   162A      0.998481   163A      0.998482  
     164A      1.016018   165A      1.048859   166A      1.048859  
     167A      1.056372   168A      1.065604   169A      1.075320  
     170A      1.075320   171A      1.112235   172A      1.112236  
     173A      1.129137   174A      1.132849   175A      1.141913  
     176A      1.141914   177A      1.143352   178A      1.164232  
     179A      1.164232   180A      1.174331   181A      1.190842  
     182A      1.230070   183A      1.230070   184A      1.237379  
     185A      1.251792   186A      1.251792   187A      1.279186  
     188A      1.312201   189A      1.312202   190A      1.320487  
     191A      1.364855   192A      1.375629   193A      1.375629  
     194A      1.412152   195A      1.412153   196A      1.416485  
     197A      1.429298   198A      1.439707   199A      1.439708  
     200A      1.476627   201A      1.503763   202A      1.503763  
     203A      1.508704   204A      1.515347   205A      1.515347  
     206A      1.541998   207A      1.541998   208A      1.559158  
     209A      1.559158   210A      1.560393   211A      1.609147  
     212A      1.609147   213A      1.614694   214A      1.628114  
     215A      1.628115   216A      1.629474   217A      1.642097  
     218A      1.646956   219A      1.646956   220A      1.679856  
     221A      1.689245   222A      1.689245   223A      1.716595  
     224A      1.728505   225A      1.728506   226A      1.740681  
     227A      1.750676   228A      1.750677   229A      1.756903  
     230A      1.783284   231A      1.783284   232A      1.809521  
     233A      1.818475   234A      1.819913   235A      1.819913  
     236A      1.823641   237A      1.837006   238A      1.837007  
     239A      1.843027   240A      1.876710   241A      1.882249  
     242A      1.882250   243A      1.901022   244A      1.905210  
     245A      1.917053   246A      1.917054   247A      1.932338  
     248A      1.934831   249A      1.934831   250A      1.960592  
     251A      1.960593   252A      1.989187   253A      1.989188  
     254A      1.998333   255A      1.998333   256A      2.002005  
     257A      2.014038   258A      2.014038   259A      2.022150  
     260A      2.022151   261A      2.027874   262A      2.053410  
     263A      2.053411   264A      2.054021   265A      2.055969  
     266A      2.055969   267A      2.076517   268A      2.090475  
     269A      2.092321   270A      2.092322   271A      2.101789  
     272A      2.101790   273A      2.119120   274A      2.130317  
     275A      2.132196   276A      2.134588   277A      2.134590  
     278A      2.139809   279A      2.139811   280A      2.148872  
     281A      2.168340   282A      2.183479   283A      2.224547  
     284A      2.224548   285A      2.225288   286A      2.225288  
     287A      2.243493   288A      2.255371   289A      2.270085  
     290A      2.270085   291A      2.280266   292A      2.286830  
     293A      2.286830   294A      2.317901   295A      2.323686  
     296A      2.327043   297A      2.327043   298A      2.362308  
     299A      2.362310   300A      2.376636   301A      2.393066  
     302A      2.405583   303A      2.405584   304A      2.475171  
     305A      2.482241   306A      2.482242   307A      2.545549  
     308A      2.553544   309A      2.570009   310A      2.570009  
     311A      2.586961   312A      2.588357   313A      2.588359  
     314A      2.672175   315A      2.690628   316A      2.690628  
     317A      2.725610   318A      2.754677   319A      2.762021  
     320A      2.769354   321A      2.769355   322A      2.771723  
     323A      2.803235   324A      2.803235   325A      2.869846  
     326A      2.869846   327A      2.894147   328A      2.927272  
     329A      2.927273   330A      2.955980   331A      2.955980  
     332A      2.994846   333A      2.995253   334A      3.028958  
     335A      3.028959   336A      3.040302   337A      3.040303  
     338A      3.053244   339A      3.098866   340A      3.098867  
     341A      3.142068   342A      3.142069   343A      3.147647  
     344A      3.169637   345A      3.229310   346A      3.244849  
     347A      3.244849   348A      3.264451   349A      3.264451  
     350A      3.288483   351A      3.345025   352A      3.350613  
     353A      3.350614   354A      3.392307   355A      3.392307  
     356A      3.430935   357A      3.438122   358A      3.438122  
     359A      3.455202   360A      3.475730   361A      3.475730  
     362A      3.535836   363A      3.546978   364A      3.546978  
     365A      3.547901   366A      3.567818   367A      3.567818  
     368A      3.575636   369A      3.660541   370A      3.679691  
     371A      3.679692   372A      3.705326   373A      3.705326  
     374A      3.723303   375A      3.739503   376A      3.744167  
     377A      3.744167   378A      3.751152   379A      3.784125  
     380A      3.837040   381A      3.837040   382A      3.855281  
     383A      3.855281   384A      3.882364   385A      3.882364  
     386A      3.894013   387A      3.894013   388A      3.899649  
     389A      3.968241   390A      3.989430   391A      3.998832  
     392A      3.998833   393A      4.015848   394A      4.017086  
     395A      4.035235   396A      4.035236   397A      4.077946  
     398A      4.077946   399A      4.085361   400A      4.085361  
     401A      4.107576   402A      4.175535   403A      4.175535  
     404A      4.233535   405A      4.255347   406A      4.268092  
     407A      4.268092   408A      4.303699   409A      4.303700  
     410A      4.328899   411A      4.335553   412A      4.335553  
     413A      4.378043   414A      4.378044   415A      4.445173  
     416A      4.445173   417A      4.476832   418A      4.549427  
     419A      4.553581   420A      4.553581   421A      4.614685  
     422A      4.647616   423A      4.655678   424A      4.655679  
     425A      4.691461   426A      4.691461   427A      4.743626  
     428A      4.743627   429A      4.771496   430A      4.838492  
     431A      4.838493   432A      4.846069   433A      4.876189  
     434A      4.891816   435A      4.918298   436A      4.931465  
     437A      4.932068   438A      4.932069   439A      4.978137  
     440A      5.002316   441A      5.002318   442A      5.022208  
     443A      5.022208   444A      5.042680   445A      5.101186  
     446A      5.101187   447A      5.203847   448A      5.203847  
     449A      5.255382   450A      5.399644   451A      5.449218  
     452A      5.467161   453A      5.467162   454A      5.653739  
     455A      5.653740   456A      5.683963   457A      5.749808  
     458A      5.749808   459A      6.020054   460A      6.113328  
     461A      6.113328   462A      6.184591   463A      6.265765  
     464A      6.265786   465A      6.265787   466A      6.481588  
     467A      6.481588   468A      6.501009   469A      6.550493  
     470A      6.699792   471A      6.699792   472A      6.713902  
     473A      6.713902   474A      6.727931   475A      6.764169  
     476A      6.801631   477A      6.932685   478A      6.932686  
     479A      6.945239   480A      6.961702   481A      6.961702  
     482A      6.993272   483A      7.015593   484A      7.015594  
     485A      7.028137   486A      7.028138   487A      7.059718  
     488A      7.109845   489A      7.109845   490A      7.146238  
     491A      7.146239   492A      7.203699   493A      7.205219  
     494A      7.205219   495A      7.325966   496A      7.360403  
     497A      7.371502   498A      7.371503   499A      7.439277  
     500A      7.597524   501A      7.597524   502A      7.612878  
     503A      7.656104   504A      7.661262   505A      7.661263  
     506A      7.679665   507A      7.740342   508A      7.740343  
     509A      7.850061   510A      7.850063   511A      7.871336  
     512A      7.871337   513A      7.890735   514A      7.903282  
     515A      7.976553   516A      7.976554   517A      8.007762  
     518A      8.066917   519A      8.104745   520A      8.291943  
     521A      8.291943   522A      8.381726   523A      8.381726  
     524A      8.395413   525A      8.473466   526A      8.488458  
     527A      8.488458   528A      8.504809   529A      8.594360  
     530A      8.594361   531A      8.723776   532A      8.782857  
     533A      8.782859   534A      8.828219   535A      8.828220  
     536A      8.858356   537A      8.858356   538A      8.999946  
     539A      9.050026   540A      9.168572   541A      9.168572  
     542A      9.216206   543A      9.225610   544A      9.273543  
     545A      9.273543   546A      9.428448   547A      9.428449  
     548A      9.455093   549A      9.455093   550A      9.554982  
     551A      9.554983   552A      9.557738   553A      9.606228  
     554A      9.683831   555A      9.692890   556A      9.692891  
     557A      9.701477   558A      9.701477   559A      9.746165  
     560A      9.746165   561A      9.777113   562A      9.850376  
     563A      9.945465   564A      9.982752   565A     10.042439  
     566A     10.042440   567A     10.153450   568A     10.153451  
     569A     10.320923   570A     10.320925   571A     10.338373  
     572A     10.374516   573A     10.374517   574A     10.419620  
     575A     10.460849   576A     10.578275   577A     10.578275  
     578A     10.724987   579A     10.753174   580A     10.753176  
     581A     10.765556   582A     10.845987   583A     10.845989  
     584A     10.876490   585A     10.927416   586A     10.927416  
     587A     11.210069   588A     11.210070   589A     11.301595  
     590A     11.301597   591A     11.503168   592A     12.049089  
     593A     12.049090   594A     12.050295   595A     12.396951  
     596A     13.152671   597A     13.152674   598A     13.194544  
     599A     13.194547   600A     13.241251   601A     13.548608  
     602A     14.574312   603A     14.574312   604A     14.637126  
     605A     14.894976   606A     14.944588   607A     16.453896  
     608A     17.382792   609A     17.382799   610A     20.737270  
     611A     28.347156   612A     30.095113   613A     30.095114  
     614A     30.552043   615A     30.552044   616A     31.036149  
     617A     51.844758   618A     71.266632   619A    139.357532  
     620A    139.357533   621A    139.624009   622A    728.810410  

    Final Occupation by Irrep:
              A 
    DOCC [    22 ]

  @DF-RHF Final Energy: -2612.09807048091443

   => Energetics <=

    Nuclear Repulsion Energy =             89.7150331273491730
    One-Electron Energy =               -3814.6748565381681146
    Two-Electron Energy =                1112.8617529299042417
    Total Energy =                      -2612.0980704809144299

Computation Completed


Properties will be evaluated at   0.000000,   0.000000,   0.000000 [a0]

Properties computed using the SCF density matrix

  Nuclear Dipole Moment: [e a0]
     X:   236.4217      Y:     0.0003      Z:    -0.0001

  Electronic Dipole Moment: [e a0]
     X:  -237.2532      Y:    -0.0003      Z:     0.0001

  Dipole Moment: [e a0]
     X:    -0.8314      Y:     0.0000      Z:     0.0000     Total:     0.8314

  Dipole Moment: [D]
[...]
     153A      0.748356   154A      0.780933   155A      0.780934  
     156A      0.782060   157A      0.797670   158A      0.797671  
     159A      0.798521   160A      0.803489   161A      0.803490  
     162A      0.826187   163A      0.826999   164A      0.844027  
     165A      0.844028   166A      0.858030   167A      0.884401  
     168A      0.885801   169A      0.886283   170A      0.886283  
     171A      0.894715   172A      0.894715   173A      0.905291  
     174A      0.905291   175A      0.918246   176A      0.918247  
     177A      0.924821   178A      0.924821   179A      0.941163  
     180A      0.949356   181A      0.949356   182A      0.972649  
     183A      0.997420   184A      1.025897   185A      1.025899  
     186A      1.054136   187A      1.070228   188A      1.070229  
     189A      1.074855   190A      1.088213   191A      1.088213  
     192A      1.106288   193A      1.110558   194A      1.110558  
     195A      1.119137   196A      1.134987   197A      1.148287  
     198A      1.148288   199A      1.156892   200A      1.163972  
     201A      1.163972   202A      1.177387   203A      1.195223  
     204A      1.219755   205A      1.219755   206A      1.238714  
     207A      1.254253   208A      1.254253   209A      1.261230  
     210A      1.274407   211A      1.274407   212A      1.334843  
     213A      1.334844   214A      1.355839   215A      1.358090  
     216A      1.377511   217A      1.403901   218A      1.403902  
     219A      1.414918   220A      1.414918   221A      1.444447  
     222A      1.444447   223A      1.465744   224A      1.505296  
     225A      1.505297   226A      1.506992   227A      1.506993  
     228A      1.511173   229A      1.514114   230A      1.514115  
     231A      1.524422   232A      1.524422   233A      1.550197  
     234A      1.552860   235A      1.552860   236A      1.565555  
     237A      1.566066   238A      1.566066   239A      1.605700  
     240A      1.609078   241A      1.609079   242A      1.638101  
     243A      1.643510   244A      1.643511   245A      1.645458  
     246A      1.647394   247A      1.670473   248A      1.673874  
     249A      1.673874   250A      1.703066   251A      1.703067  
     252A      1.703562   253A      1.726569   254A      1.734943  
     255A      1.765753   256A      1.765753   257A      1.769860  
     258A      1.770678   259A      1.770678   260A      1.793835  
     261A      1.813678   262A      1.813678   263A      1.822105  
     264A      1.831433   265A      1.831522   266A      1.831523  
     267A      1.854827   268A      1.855009   269A      1.855009  
     270A      1.891428   271A      1.902041   272A      1.902041  
     273A      1.925529   274A      1.925529   275A      1.932809  
     276A      1.932809   277A      1.945740   278A      1.945740  
     279A      1.968807   280A      1.968808   281A      1.979021  
     282A      1.979597   283A      2.000232   284A      2.000233  
     285A      2.003451   286A      2.004277   287A      2.004277  
     288A      2.021336   289A      2.021337   290A      2.032264  
     291A      2.063448   292A      2.063449   293A      2.076970  
     294A      2.081536   295A      2.096563   296A      2.099884  
     297A      2.099885   298A      2.124764   299A      2.124766  
     300A      2.127069   301A      2.127367   302A      2.138367  
     303A      2.138954   304A      2.159421   305A      2.185583  
     306A      2.185583   307A      2.211637   308A      2.211638  
     309A      2.230351   310A      2.246769   311A      2.266038  
     312A      2.273646   313A      2.280016   314A      2.280016  
     315A      2.289060   316A      2.289060   317A      2.306269  
     318A      2.306270   319A      2.331978   320A      2.331979  
     321A      2.333496   322A      2.347450   323A      2.365334  
     324A      2.365336   325A      2.367726   326A      2.367726  
     327A      2.466118   328A      2.499802   329A      2.529300  
     330A      2.542083   331A      2.542084   332A      2.567915  
     333A      2.606500   334A      2.609919   335A      2.609920  
     336A      2.687938   337A      2.687939   338A      2.691800  
     339A      2.699319   340A      2.699319   341A      2.740557  
     342A      2.764593   343A      2.768349   344A      2.777579  
     345A      2.786219   346A      2.786220   347A      2.809336  
     348A      2.809336   349A      2.842057   350A      2.842057  
     351A      2.876538   352A      2.876538   353A      2.934467  
     354A      2.951647   355A      2.951647   356A      2.966759  
     357A      2.966760   358A      3.013273   359A      3.033559  
     360A      3.033559   361A      3.052998   362A      3.052999  
     363A      3.066489   364A      3.081546   365A      3.081547  
     366A      3.085414   367A      3.134074   368A      3.137457  
     369A      3.137457   370A      3.176178   371A      3.248015  
     372A      3.248016   373A      3.305488   374A      3.305490  
     375A      3.324136   376A      3.371014   377A      3.425167  
     378A      3.436445   379A      3.454091   380A      3.464444  
     381A      3.474009   382A      3.474010   383A      3.500408  
     384A      3.500409   385A      3.530909   386A      3.543459  
     387A      3.550888   388A      3.550889   389A      3.571693  
     390A      3.572938   391A      3.575947   392A      3.575947  
     393A      3.601014   394A      3.658613   395A      3.665997  
     396A      3.665997   397A      3.689597   398A      3.689598  
     399A      3.696771   400A      3.696771   401A      3.710724  
     402A      3.710724   403A      3.718870   404A      3.718871  
     405A      3.735793   406A      3.736163   407A      3.746302  
     408A      3.760354   409A      3.760354   410A      3.806297  
     411A      3.855388   412A      3.855388   413A      3.868177  
     414A      3.868178   415A      3.869820   416A      3.869820  
     417A      3.873030   418A      3.882178   419A      3.882179  
     420A      3.898323   421A      3.898323   422A      3.911598  
     423A      3.911600   424A      3.963641   425A      3.984058  
     426A      3.996582   427A      4.016037   428A      4.030525  
     429A      4.034688   430A      4.034688   431A      4.047340  
     432A      4.047340   433A      4.073398   434A      4.073399  
     435A      4.093535   436A      4.093535   437A      4.104380  
     438A      4.137983   439A      4.181041   440A      4.181041  
     441A      4.203818   442A      4.203819   443A      4.261430  
     444A      4.271852   445A      4.271853   446A      4.283293  
     447A      4.286237   448A      4.286237   449A      4.398689  
     450A      4.398689   451A      4.446243   452A      4.446243  
     453A      4.534796   454A      4.534797   455A      4.562092  
     456A      4.562093   457A      4.608526   458A      4.620460  
     459A      4.689948   460A      4.689948   461A      4.703368  
     462A      4.703368   463A      4.720952   464A      4.769419  
     465A      4.921275   466A      4.926324   467A      4.937861  
     468A      4.980749   469A      4.995598   470A      4.995599  
     471A      5.018394   472A      5.018395   473A      5.400923  
     474A      5.468735   475A      6.096922   476A      6.096923  
     477A      6.119474   478A      6.119475   479A      6.174014  
     480A      6.176683   481A      6.191260   482A      6.245904  
     483A      6.245905   484A      6.272050   485A      6.272050  
     486A      6.277348   487A      6.468888   488A      6.468888  
     489A      6.481935   490A      6.486569   491A      6.486569  
     492A      6.523406   493A      6.694682   494A      6.694682  
     495A      6.719196   496A      6.719196   497A      6.719997  
     498A      6.734802   499A      6.789884   500A      6.808470  
     501A      6.920103   502A      6.920103   503A      6.966260  
     504A      6.966261   505A      6.976876   506A      6.976878  
     507A      7.022337   508A      7.022338   509A      7.051056  
     510A      7.072880   511A      7.088088   512A      7.088089  
     513A      7.106514   514A      7.106514   515A      7.144162  
     516A      7.144163   517A      7.161628   518A      7.161629  
     519A      7.189417   520A      7.213584   521A      7.394952  
     522A      7.443418   523A      7.582395   524A      7.582396  
     525A      7.604488   526A      7.604489   527A      7.610151  
     528A      7.619452   529A      7.638804   530A      7.679711  
     531A      7.709258   532A      7.709258   533A      7.746654  
     534A      7.746655   535A      7.854066   536A      7.859715  
     537A      7.859717   538A      7.878065   539A      7.878066  
     540A      7.908962   541A      7.985073   542A      8.092112  
     543A      8.271437   544A      8.271437   545A      8.297360  
     546A      8.297361   547A      8.381370   548A      8.381371  
     549A      8.392139   550A      8.392140   551A      8.442343  
     552A      8.472601   553A      8.585468   554A      8.585469  
     555A      8.601193   556A      8.601193   557A      8.690193  
     558A      8.730191   559A      8.847367   560A      8.847367  
     561A      8.864158   562A      8.864158   563A      8.995717  
     564A      9.006951   565A      9.166590   566A      9.166590  
     567A      9.166628   568A      9.175417   569A      9.175417  
     570A      9.218046   571A      9.219567   572A      9.232685  
     573A      9.415024   574A      9.415025   575A      9.436783  
     576A      9.436784   577A      9.541006   578A      9.541007  
     579A      9.567739   580A      9.567739   581A      9.589020  
     582A      9.613181   583A      9.695559   584A      9.695560  
     585A      9.715654   586A      9.715655   587A      9.941988  
     588A      9.964899   589A      9.977330   590A      9.989494  
     591A     10.144052   592A     10.144052   593A     10.159999  
     594A     10.159999   595A     10.368331   596A     10.368332  
     597A     10.381158   598A     10.381159   599A     10.417580  
     600A     10.426321   601A     10.824358   602A     10.824360  
     603A     10.852506   604A     10.852508   605A     10.880390  
     606A     10.882792   607A     10.917384   608A     10.917386  
     609A     10.934034   610A     10.934035   611A     11.499138  
     612A     11.509943   613A     13.197363   614A     13.197365  
     615A     13.213595   616A     13.213599   617A     13.215562  
     618A     13.281317   619A     14.840061   620A     14.968371  
     621A     28.332895   622A     28.363403  

    Final Occupation by Irrep:
              A 
    DOCC [    44 ]

  @DF-RHF Final Energy: -5224.19649540551563

   => Energetics <=

    Nuclear Repulsion Energy =            360.7037966055254401
    One-Electron Energy =               -7991.7832949993580769
    Two-Electron Energy =                2406.8830029883165480
    Total Energy =                      -5224.1964954055156340

Computation Completed


Properties will be evaluated at   0.000000,   0.000000,   0.000000 [a0]

Properties computed using the SCF density matrix

  Nuclear Dipole Moment: [e a0]
     X:   -16.3134      Y:     0.0001      Z:     0.0000

  Electronic Dipole Moment: [e a0]
     X:    14.5591      Y:    -0.0001      Z:    -0.0000

  Dipole Moment: [e a0]
     X:    -1.7543      Y:     0.0000      Z:     0.0000     Total:     1.7543

  Dipole Moment: [D]
     X:    -4.4591      Y:     0.0000      Z:     0.0000     Total:     4.4591


*** tstop() called on node59.bme.utexas.edu at Sat Apr 11 16:29:39 2020
Module time:
	user time   =     128.88 seconds =       2.15 minutes
	system time =       3.79 seconds =       0.06 minutes
	total time  =         26 seconds =       0.43 minutes
Total time:
	user time   =     774.70 seconds =      12.91 minutes
	system time =      23.40 seconds =       0.39 minutes
	total time  =        174 seconds =       2.90 minutes

*** tstart() called on node59.bme.utexas.edu
*** at Sat Apr 11 16:29:39 2020


  //>>>>>>>>>>>>>>>>>>>>>>>>>>>>>>>>>>>//
  //               DFMP2               //
  //<<<<<<<<<<<<<<<<<<<<<<<<<<<<<<<<<<<//

   => Loading Basis Set <=

    Name: (AUG-CC-PVQZ AUX)
    Role: RIFIT
    Keyword: DF_BASIS_MP2
    atoms 1, 6      entry BR         line  1518 file /home/liuchw/anaconda3/envs/psi4env/share/psi4/basis/aug-cc-pvqz-ri.gbs 
    atoms 2, 7      entry C          line   184 file /home/liuchw/anaconda3/envs/psi4env/share/psi4/basis/aug-cc-pvqz-ri.gbs 
    atoms 3-5, 8-10 entry H          line    30 file /home/liuchw/anaconda3/envs/psi4env/share/psi4/basis/aug-cc-pvqz-ri.gbs 

	 --------------------------------------------------------
	                          DF-MP2                         
	      2nd-Order Density-Fitted Moller-Plesset Theory     
	              RMP2 Wavefunction,   6 Threads             
	                                                         
	        Rob Parrish, Justin Turney, Andy Simmonett,      
	           Ed Hohenstein, and C. David Sherrill          
	 --------------------------------------------------------

   => Auxiliary Basis Set <=

  Basis Set: (AUG-CC-PVQZ AUX)
    Blend: AUG-CC-PVQZ-RI
    Number of shells: 296
    Number of basis function: 1340
    Number of Cartesian functions: 1878
    Spherical Harmonics?: true
    Max angular momentum: 6

	 --------------------------------------------------------
	                 NBF =   622, NAUX =  1340
	 --------------------------------------------------------
	   CLASS    FOCC     OCC    AOCC    AVIR     VIR    FVIR
	   PAIRS       0      44      44     578     578       0
	 --------------------------------------------------------

	-----------------------------------------------------------
	 ==================> DF-MP2 Energies <==================== 
	-----------------------------------------------------------
	 Reference Energy          =   -5224.1964954055156340 [Eh]
	 Singles Energy            =      -0.0000000000000000 [Eh]
	 Same-Spin Energy          =      -0.3235691533591970 [Eh]
	 Opposite-Spin Energy      =      -0.9091110550009773 [Eh]
	 Correlation Energy        =      -1.2326802083601742 [Eh]
	 Total Energy              =   -5225.4291756138754863 [Eh]
	-----------------------------------------------------------
	 ================> DF-SCS-MP2 Energies <================== 
	-----------------------------------------------------------
	 SCS Same-Spin Scale       =       0.3333333333333333 [-]
	 SCS Opposite-Spin Scale   =       1.2000000000000000 [-]
	 SCS Same-Spin Energy      =      -0.1078563844530657 [Eh]
	 SCS Opposite-Spin Energy  =      -1.0909332660011728 [Eh]
	 SCS Correlation Energy    =      -1.1987896504542386 [Eh]
	 SCS Total Energy          =   -5225.3952850559699073 [Eh]
	-----------------------------------------------------------


*** tstop() called on node59.bme.utexas.edu at Sat Apr 11 16:30:00 2020
Module time:
	user time   =      94.50 seconds =       1.57 minutes
	system time =       1.89 seconds =       0.03 minutes
	total time  =         21 seconds =       0.35 minutes
Total time:
	user time   =     869.20 seconds =      14.49 minutes
	system time =      25.29 seconds =       0.42 minutes
	total time  =        195 seconds =       3.25 minutes

  //>>>>>>>>>>>>>>>>>>>>>>>>>>>>>>>>>>>//
  //  CBS Results: mp2/aug-cc-pv[tq]z  //
  //<<<<<<<<<<<<<<<<<<<<<<<<<<<<<<<<<<<//


   ==> HF <==

   HI-zeta (4) Energy:               -5224.196495405516


   ==> Helgaker 2-point correlated extrapolation for method: MP2 <==

   LO-zeta (3) Energy:               -5225.172028099998
   HI-zeta (4) Energy:               -5225.429175613875
   Alpha (exponent) Value:             3.000000000000
   Extrapolated Energy:              -5225.616823799678

   @Extrapolated MP2/(T,Q):          -5225.616823799678



   ==> Helgaker 2-point correlated extrapolation for method: HF <==

   LO-zeta (3) Energy:               -5224.186198314696
   HI-zeta (4) Energy:               -5224.196495405516
   Alpha (exponent) Value:             3.000000000000
   Extrapolated Energy:              -5224.204009498817

   @Extrapolated HF/(T,Q):           -5224.204009498817


   ==> Components <==

  ---------------------------------------------------------------------------------------------------------
                          Method / Basis                      Rqd      Energy [Eh]   Variable
  ---------------------------------------------------------------------------------------------------------
                              hf / aug-cc-pvtz                  *   -5224.18619831   HF TOTAL ENERGY
                             mp2 / aug-cc-pvtz                  *   -5225.17202810   MP2 TOTAL ENERGY
                              hf / aug-cc-pvqz                  *   -5224.19649541   HF TOTAL ENERGY
                             mp2 / aug-cc-pvqz                  *   -5225.42917561   MP2 TOTAL ENERGY
  ---------------------------------------------------------------------------------------------------------

   ==> Stages <==

  ---------------------------------------------------------------------------------------------------------
      Stage               Method / Basis                       Wt      Energy [Eh]   Scheme
  ---------------------------------------------------------------------------------------------------------
        scf                   hf / aug-cc-pvqz                  1   -5224.19649541   xtpl_highest_1
       corl                  mp2 / aug-cc-pv[tq]z               1   -5225.61682380   corl_xtpl_helgaker_2
       corl                   hf / aug-cc-pv[tq]z              -1   -5224.20400950   corl_xtpl_helgaker_2
  ---------------------------------------------------------------------------------------------------------

   ==> CBS <==

  ---------------------------------------------------------------------------------------------------------
      Stage               Method / Basis                               Energy [Eh]   Scheme
  ---------------------------------------------------------------------------------------------------------
        scf                   hf / aug-cc-pvqz                      -5224.19649541   xtpl_highest_1
       corl                  mp2 / aug-cc-pv[tq]z                      -1.41281430   corl_xtpl_helgaker_2
      total                  CBS                                    -5225.60930971   
  ---------------------------------------------------------------------------------------------------------
   => Loading Basis Set <=

    Name: DEF2-SVP
    Role: ORBITAL
    Keyword: BASIS
    atoms 1, 6      entry BR         line  1084 file /home/liuchw/anaconda3/envs/psi4env/share/psi4/basis/def2-svp.gbs 
    atoms 2, 7      entry C          line    90 file /home/liuchw/anaconda3/envs/psi4env/share/psi4/basis/def2-svp.gbs 
    atoms 3-5, 8-10 entry H          line    15 file /home/liuchw/anaconda3/envs/psi4env/share/psi4/basis/def2-svp.gbs 


       N-Body: Complex Energy (fragments = (1, 2), basis = (1, 2): -5225.60930970637673)

   ==> N-Body: Counterpoise Corrected (CP) energies <==

   n-Body     Total Energy [Eh]       I.E. [kcal/mol]      Delta [kcal/mol]
        1    -5225.607089975425        0.000000000000        0.000000000000
        2    -5225.608843259316       -1.100202251854       -1.100202251854

   => Loading Basis Set <=

    Name: DEF2-SVP
    Role: ORBITAL
    Keyword: BASIS
    atoms 1, 6      entry BR         line  1084 file /home/liuchw/anaconda3/envs/psi4env/share/psi4/basis/def2-svp.gbs 
    atoms 2, 7      entry C          line    90 file /home/liuchw/anaconda3/envs/psi4env/share/psi4/basis/def2-svp.gbs 
    atoms 3-5, 8-10 entry H          line    15 file /home/liuchw/anaconda3/envs/psi4env/share/psi4/basis/def2-svp.gbs 


    Psi4 stopped on: Saturday, 11 April 2020 04:30PM
    Psi4 wall time for execution: 0:03:16.23

*** Psi4 exiting successfully. Buy a developer a beer!
