
    -----------------------------------------------------------------------
          Psi4: An Open-Source Ab Initio Electronic Structure Package
                               Psi4 1.4a2.dev224 

                         Git: Rev {master} e453b16 


    R. M. Parrish, L. A. Burns, D. G. A. Smith, A. C. Simmonett,
    A. E. DePrince III, E. G. Hohenstein, U. Bozkaya, A. Yu. Sokolov,
    R. Di Remigio, R. M. Richard, J. F. Gonthier, A. M. James,
    H. R. McAlexander, A. Kumar, M. Saitow, X. Wang, B. P. Pritchard,
    P. Verma, H. F. Schaefer III, K. Patkowski, R. A. King, E. F. Valeev,
    F. A. Evangelista, J. M. Turney, T. D. Crawford, and C. D. Sherrill,
    J. Chem. Theory Comput. 13(7) pp 3185--3197 (2017).
    (doi: 10.1021/acs.jctc.7b00174)


                         Additional Contributions by
    P. Kraus, H. Kruse, M. H. Lechner, M. C. Schieber, R. A. Shaw,
    A. Alenaizan, R. Galvelis, Z. L. Glick, S. Lehtola, and J. P. Misiewicz

    -----------------------------------------------------------------------


    Psi4 started on: Saturday, 11 April 2020 04:57PM

    Process ID: 69371
    Host:       node56.bme.utexas.edu
    PSIDATADIR: /home/liuchw/anaconda3/envs/psi4env/share/psi4
    Memory:     500.0 MiB
    Threads:    6
    
  ==> Input File <==

--------------------------------------------------------------------------
#Generated by lconvert.py for cbs job

memory 40 GB

molecule  {
0 1
  F        1.8654390    -0.0370790    -0.0002270
  C        0.5153080    -0.0220130    -0.0001050
  C       -0.1371250     1.2001480    -0.0001600
  C       -0.1642150    -1.2293140     0.0000630
  C       -1.5303250     1.2070050    -0.0000410
  C       -1.5572190    -1.2050940     0.0001800
  C       -2.2415440     0.0087370     0.0001280
  H        0.4381760     2.1142970    -0.0002860
  H        0.3905970    -2.1560310     0.0000990
  H       -2.0566140     2.1511550    -0.0000790
  H       -2.1044390    -2.1372690     0.0003130
  H       -3.3219480     0.0207840     0.0002210
--
0 1
  O        5.1913530     0.0436550     0.0015320
  H        4.5885220     0.0253270     0.7475590
  H        4.5939730     0.0272300    -0.7489060
units angstrom
no_reorient
symmetry c1
}

set {
scf_type DF
mp2_type DF
e_convergence 7
reference rhf
}

energy('mp2/aug-cc-pv[tq]z', bsse_type='cp')
--------------------------------------------------------------------------

  Memory set to  37.253 GiB by Python driver.

Scratch directory: /scratch//


   ===> N-Body Interaction Abacus <===
        BSSE Treatment:                     cp
        Number of 1-body computations:     4
        Number of 2-body computations:     1

   ==> N-Body: Now computing 1-body complexes <==


       N-Body: Computing complex (1/4) with fragments (2,) in the basis of fragments (2,).


Scratch directory: /scratch//

  //>>>>>>>>>>>>>>>>>>>>>>>>>>>>>>>>>>>//
  //   CBS Setup: mp2/aug-cc-pv[tq]z   //
  //<<<<<<<<<<<<<<<<<<<<<<<<<<<<<<<<<<<//

    Naive listing of computations required.
             hf / aug-cc-pvqz              for  HF TOTAL ENERGY
            mp2 / aug-cc-pvtz              for  MP2 TOTAL ENERGY
            mp2 / aug-cc-pvqz              for  MP2 TOTAL ENERGY
             hf / aug-cc-pvtz              for  HF TOTAL ENERGY
             hf / aug-cc-pvqz              for  HF TOTAL ENERGY

    Enlightened listing of computations required.
            mp2 / aug-cc-pvtz              for  MP2 TOTAL ENERGY
            mp2 / aug-cc-pvqz              for  MP2 TOTAL ENERGY

    Full listing of computations to be obtained (required and bonus).
             hf / aug-cc-pvtz              for  HF TOTAL ENERGY
            mp2 / aug-cc-pvtz              for  MP2 TOTAL ENERGY
             hf / aug-cc-pvqz              for  HF TOTAL ENERGY
            mp2 / aug-cc-pvqz              for  MP2 TOTAL ENERGY

  //>>>>>>>>>>>>>>>>>>>>>>>>>>>>>>>>>>>>//
  // CBS Computation: MP2 / AUG-CC-PVTZ //
  //<<<<<<<<<<<<<<<<<<<<<<<<<<<<<<<<<<<<//


Scratch directory: /scratch//

*** tstart() called on node56.bme.utexas.edu
*** at Sat Apr 11 16:57:57 2020

   => Loading Basis Set <=

    Name: AUG-CC-PVTZ
    Role: ORBITAL
    Keyword: BASIS
    atoms 1   entry O          line   331 file /home/liuchw/anaconda3/envs/psi4env/share/psi4/basis/aug-cc-pvtz.gbs 
    atoms 2-3 entry H          line    40 file /home/liuchw/anaconda3/envs/psi4env/share/psi4/basis/aug-cc-pvtz.gbs 


         ---------------------------------------------------------
                                   SCF
               by Justin Turney, Rob Parrish, Andy Simmonett
                          and Daniel G. A. Smith
                              RHF Reference
                        6 Threads,  38146 MiB Core
         ---------------------------------------------------------

  ==> Geometry <==

    Molecular point group: c1
    Full point group: C1

    Geometry (in Angstrom), charge = 0, multiplicity = 1:

       Center              X                  Y                   Z               Mass       
    ------------   -----------------  -----------------  -----------------  -----------------
         O            4.668396242107     0.047571828394     0.001357651373    15.994914619570
         H            4.065565242107     0.029243828394     0.747384651373     1.007825032230
         H            4.071016242107     0.031146828394    -0.749080348627     1.007825032230

  Running in c1 symmetry.

  Rotational constants: A =     14.93531  B =      0.04413  C =      0.04400 [cm^-1]
  Rotational constants: A = 447749.21741  B =   1323.01280  C =   1319.11667 [MHz]
  Nuclear repulsion =    9.179493301821427

  Charge       = 0
  Multiplicity = 1
  Electrons    = 10
  Nalpha       = 5
  Nbeta        = 5

  ==> Algorithm <==

  SCF Algorithm Type is DF.
  DIIS enabled.
  MOM disabled.
  Fractional occupation disabled.
  Guess Type is SAD.
  Energy threshold   = 1.00e-07
  Density threshold  = 1.00e-08
  Integral threshold = 0.00e+00

  ==> Primary Basis <==

  Basis Set: AUG-CC-PVTZ
    Blend: AUG-CC-PVTZ
    Number of shells: 32
    Number of basis function: 92
    Number of Cartesian functions: 105
    Spherical Harmonics?: true
    Max angular momentum: 3

   => Loading Basis Set <=

    Name: (AUG-CC-PVTZ AUX)
    Role: JKFIT
    Keyword: DF_BASIS_SCF
    atoms 1   entry O          line   286 file /home/liuchw/anaconda3/envs/psi4env/share/psi4/basis/aug-cc-pvtz-jkfit.gbs 
    atoms 2-3 entry H          line    70 file /home/liuchw/anaconda3/envs/psi4env/share/psi4/basis/aug-cc-pvtz-jkfit.gbs 

  ==> Pre-Iterations <==

   -------------------------------------------------------
    Irrep   Nso     Nmo     Nalpha   Nbeta   Ndocc  Nsocc
   -------------------------------------------------------
     A         92      92       0       0       0       0
   -------------------------------------------------------
    Total      92      92       5       5       5       0
   -------------------------------------------------------

  ==> Integral Setup <==

  DFHelper Memory: AOs need 0.015 GiB; user supplied 27.940 GiB. Using in-core AOs.

  ==> MemDFJK: Density-Fitted J/K Matrices <==

    J tasked:                   Yes
    K tasked:                   Yes
    wK tasked:                   No
    OpenMP threads:               6
    Memory [MiB]:             28610
    Algorithm:                 Core
    Schwarz Cutoff:           1E-12
    Mask sparsity (%):       0.0000
    Fitting Condition:        1E-10

   => Auxiliary Basis Set <=

  Basis Set: (AUG-CC-PVTZ AUX)
    Blend: AUG-CC-PVTZ-JKFIT
    Number of shells: 58
    Number of basis function: 196
    Number of Cartesian functions: 241
    Spherical Harmonics?: true
    Max angular momentum: 4

  Minimum eigenvalue in the overlap matrix is 3.8955738346E-04.
  Using Symmetric Orthogonalization.

  SCF Guess: Superposition of Atomic Densities via on-the-fly atomic UHF.

  ==> Iterations <==

                           Total Energy        Delta E     RMS |[F,P]|

   @DF-RHF iter SAD:   -75.47775708110349   -7.54778e+01   0.00000e+00 
   @DF-RHF iter   1:   -75.97568804048944   -4.97931e-01   5.09307e-03 DIIS
   @DF-RHF iter   2:   -76.02824623964140   -5.25582e-02   3.47732e-03 DIIS
   @DF-RHF iter   3:   -76.05981831610531   -3.15721e-02   2.35992e-04 DIIS
   @DF-RHF iter   4:   -76.06020514393245   -3.86828e-04   5.64947e-05 DIIS
   @DF-RHF iter   5:   -76.06022941018414   -2.42663e-05   1.28759e-05 DIIS
   @DF-RHF iter   6:   -76.06023139958772   -1.98940e-06   2.80353e-06 DIIS
   @DF-RHF iter   7:   -76.06023150288368   -1.03296e-07   4.96009e-07 DIIS
   @DF-RHF iter   8:   -76.06023150571730   -2.83362e-09   8.29697e-08 DIIS
   @DF-RHF iter   9:   -76.06023150577855   -6.12488e-11   2.00223e-08 DIIS
   @DF-RHF iter  10:   -76.06023150578226   -3.70903e-12   3.03867e-09 DIIS
  Energy and wave function converged.


  ==> Post-Iterations <==

    Orbital Energies [Eh]
    ---------------------

    Doubly Occupied:                                                      

       1A    -20.568430     2A     -1.353985     3A     -0.712781  
       4A     -0.588474     5A     -0.510772  

    Virtual:                                                              

       6A      0.029281     7A      0.047801     8A      0.135646  
       9A      0.158944    10A      0.175558    11A      0.183465  
      12A      0.226791    13A      0.245243    14A      0.266023  
      15A      0.298482    16A      0.309228    17A      0.366161  
      18A      0.437711    19A      0.466375    20A      0.598305  
      21A      0.660323    22A      0.706848    23A      0.723944  
      24A      0.731455    25A      0.832813    26A      0.848180  
      27A      0.892615    28A      0.912982    29A      0.915971  
      30A      0.923380    31A      0.932530    32A      0.958479  
      33A      1.021447    34A      1.043415    35A      1.082144  
      36A      1.107746    37A      1.178250    38A      1.184896  
      39A      1.260670    40A      1.510426    41A      1.523472  
      42A      1.579781    43A      1.806770    44A      1.835688  
      45A      1.981648    46A      2.122080    47A      2.264381  
      48A      2.316081    49A      2.328360    50A      2.419036  
      51A      2.423203    52A      2.444649    53A      2.483430  
      54A      2.672539    55A      2.696637    56A      2.778035  
      57A      2.801606    58A      2.885551    59A      3.660303  
      60A      3.730712    61A      4.027926    62A      4.083864  
      63A      4.144286    64A      4.259749    65A      4.268418  
      66A      4.364717    67A      4.378087    68A      4.409245  
      69A      4.529070    70A      4.734921    71A      4.858079  
      72A      5.150037    73A      5.172622    74A      5.237423  
      75A      5.329403    76A      5.534935    77A      5.647643  
      78A      6.195566    79A      6.509027    80A      6.715007  
      81A      6.926243    82A      7.135978    83A      7.261368  
      84A      7.280134    85A      7.324311    86A      7.350147  
      87A      7.358665    88A      7.536842    89A      7.882205  
      90A      7.944142    91A      8.827974    92A     15.763941  

    Final Occupation by Irrep:
              A 
    DOCC [     5 ]

  @DF-RHF Final Energy:   -76.06023150578226

   => Energetics <=

    Nuclear Repulsion Energy =              9.1794933018214273
    One-Electron Energy =                -123.0105684457827238
    Two-Electron Energy =                  37.7708436381790449
    Total Energy =                        -76.0602315057822551

Computation Completed


Properties will be evaluated at   0.000000,   0.000000,   0.000000 [a0]

Properties computed using the SCF density matrix

  Nuclear Dipole Moment: [e a0]
     X:    85.9518      Y:     0.8333      Z:     0.0173

  Electronic Dipole Moment: [e a0]
     X:   -86.7450      Y:    -0.8563      Z:    -0.0202

  Dipole Moment: [e a0]
     X:    -0.7932      Y:    -0.0230      Z:    -0.0029     Total:     0.7935

  Dipole Moment: [D]
     X:    -2.0161      Y:    -0.0584      Z:    -0.0074     Total:     2.0169


*** tstop() called on node56.bme.utexas.edu at Sat Apr 11 16:57:59 2020
Module time:
	user time   =       5.35 seconds =       0.09 minutes
	system time =       0.18 seconds =       0.00 minutes
	total time  =          2 seconds =       0.03 minutes
Total time:
	user time   =       5.35 seconds =       0.09 minutes
	system time =       0.18 seconds =       0.00 minutes
	total time  =          2 seconds =       0.03 minutes

*** tstart() called on node56.bme.utexas.edu
*** at Sat Apr 11 16:57:59 2020


  //>>>>>>>>>>>>>>>>>>>>>>>>>>>>>>>>>>>//
  //               DFMP2               //
  //<<<<<<<<<<<<<<<<<<<<<<<<<<<<<<<<<<<//

   => Loading Basis Set <=

    Name: (AUG-CC-PVTZ AUX)
    Role: RIFIT
    Keyword: DF_BASIS_MP2
    atoms 1   entry O          line   264 file /home/liuchw/anaconda3/envs/psi4env/share/psi4/basis/aug-cc-pvtz-ri.gbs 
    atoms 2-3 entry H          line    30 file /home/liuchw/anaconda3/envs/psi4env/share/psi4/basis/aug-cc-pvtz-ri.gbs 

	 --------------------------------------------------------
	                          DF-MP2                         
	      2nd-Order Density-Fitted Moller-Plesset Theory     
	              RMP2 Wavefunction,   6 Threads             
	                                                         
	        Rob Parrish, Justin Turney, Andy Simmonett,      
	           Ed Hohenstein, and C. David Sherrill          
	 --------------------------------------------------------

   => Auxiliary Basis Set <=

  Basis Set: (AUG-CC-PVTZ AUX)
    Blend: AUG-CC-PVTZ-RI
    Number of shells: 56
    Number of basis function: 198
    Number of Cartesian functions: 246
    Spherical Harmonics?: true
    Max angular momentum: 4

	 --------------------------------------------------------
	                 NBF =    92, NAUX =   198
	 --------------------------------------------------------
	   CLASS    FOCC     OCC    AOCC    AVIR     VIR    FVIR
	   PAIRS       0       5       5      87      87       0
	 --------------------------------------------------------

	-----------------------------------------------------------
	 ==================> DF-MP2 Energies <==================== 
	-----------------------------------------------------------
	 Reference Energy          =     -76.0602315057822551 [Eh]
	 Singles Energy            =      -0.0000000000000000 [Eh]
	 Same-Spin Energy          =      -0.0684139156002542 [Eh]
	 Opposite-Spin Energy      =      -0.2153737404310626 [Eh]
	 Correlation Energy        =      -0.2837876560313167 [Eh]
	 Total Energy              =     -76.3440191618135771 [Eh]
	-----------------------------------------------------------
	 ================> DF-SCS-MP2 Energies <================== 
	-----------------------------------------------------------
	 SCS Same-Spin Scale       =       0.3333333333333333 [-]
	 SCS Opposite-Spin Scale   =       1.2000000000000000 [-]
	 SCS Same-Spin Energy      =      -0.0228046385334181 [Eh]
	 SCS Opposite-Spin Energy  =      -0.2584484885172751 [Eh]
	 SCS Correlation Energy    =      -0.2812531270506932 [Eh]
	 SCS Total Energy          =     -76.3414846328329446 [Eh]
	-----------------------------------------------------------


*** tstop() called on node56.bme.utexas.edu at Sat Apr 11 16:57:59 2020
Module time:
	user time   =       2.42 seconds =       0.04 minutes
	system time =       0.09 seconds =       0.00 minutes
	total time  =          0 seconds =       0.00 minutes
Total time:
	user time   =       7.77 seconds =       0.13 minutes
	system time =       0.27 seconds =       0.00 minutes
	total time  =          2 seconds =       0.03 minutes

  //>>>>>>>>>>>>>>>>>>>>>>>>>>>>>>>>>>>>//
  // CBS Computation: MP2 / AUG-CC-PVQZ //
  //<<<<<<<<<<<<<<<<<<<<<<<<<<<<<<<<<<<<//


Scratch directory: /scratch//

*** tstart() called on node56.bme.utexas.edu
*** at Sat Apr 11 16:57:59 2020

   => Loading Basis Set <=

    Name: AUG-CC-PVQZ
    Role: ORBITAL
    Keyword: BASIS
    atoms 1   entry O          line   423 file /home/liuchw/anaconda3/envs/psi4env/share/psi4/basis/aug-cc-pvqz.gbs 
    atoms 2-3 entry H          line    40 file /home/liuchw/anaconda3/envs/psi4env/share/psi4/basis/aug-cc-pvqz.gbs 


         ---------------------------------------------------------
                                   SCF
               by Justin Turney, Rob Parrish, Andy Simmonett
                          and Daniel G. A. Smith
                              RHF Reference
                        6 Threads,  38146 MiB Core
         ---------------------------------------------------------

  ==> Geometry <==

    Molecular point group: c1
    Full point group: C1

    Geometry (in Angstrom), charge = 0, multiplicity = 1:

       Center              X                  Y                   Z               Mass       
    ------------   -----------------  -----------------  -----------------  -----------------
         O            4.668396242107     0.047571828394     0.001357651373    15.994914619570
         H            4.065565242107     0.029243828394     0.747384651373     1.007825032230
         H            4.071016242107     0.031146828394    -0.749080348627     1.007825032230

  Running in c1 symmetry.

  Rotational constants: A =     14.93531  B =      0.04413  C =      0.04400 [cm^-1]
  Rotational constants: A = 447749.21741  B =   1323.01280  C =   1319.11667 [MHz]
  Nuclear repulsion =    9.179493301821427

  Charge       = 0
  Multiplicity = 1
  Electrons    = 10
  Nalpha       = 5
  Nbeta        = 5

  ==> Algorithm <==

  SCF Algorithm Type is DF.
  DIIS enabled.
  MOM disabled.
  Fractional occupation disabled.
  Guess Type is SAD.
  Energy threshold   = 1.00e-07
  Density threshold  = 1.00e-08
  Integral threshold = 0.00e+00

  ==> Primary Basis <==

  Basis Set: AUG-CC-PVQZ
    Blend: AUG-CC-PVQZ
    Number of shells: 48
    Number of basis function: 172
    Number of Cartesian functions: 215
    Spherical Harmonics?: true
    Max angular momentum: 4

   => Loading Basis Set <=

    Name: (AUG-CC-PVQZ AUX)
    Role: JKFIT
    Keyword: DF_BASIS_SCF
    atoms 1   entry O          line   318 file /home/liuchw/anaconda3/envs/psi4env/share/psi4/basis/aug-cc-pvqz-jkfit.gbs 
    atoms 2-3 entry H          line    70 file /home/liuchw/anaconda3/envs/psi4env/share/psi4/basis/aug-cc-pvqz-jkfit.gbs 

  ==> Pre-Iterations <==

   -------------------------------------------------------
    Irrep   Nso     Nmo     Nalpha   Nbeta   Ndocc  Nsocc
   -------------------------------------------------------
     A        172     172       0       0       0       0
   -------------------------------------------------------
    Total     172     172       5       5       5       0
   -------------------------------------------------------

  ==> Integral Setup <==

  DFHelper Memory: AOs need 0.074 GiB; user supplied 27.940 GiB. Using in-core AOs.

  ==> MemDFJK: Density-Fitted J/K Matrices <==

    J tasked:                   Yes
    K tasked:                   Yes
    wK tasked:                   No
    OpenMP threads:               6
    Memory [MiB]:             28610
    Algorithm:                 Core
    Schwarz Cutoff:           1E-12
    Mask sparsity (%):       0.0000
    Fitting Condition:        1E-10

   => Auxiliary Basis Set <=

  Basis Set: (AUG-CC-PVQZ AUX)
    Blend: AUG-CC-PVQZ-JKFIT
    Number of shells: 70
    Number of basis function: 294
    Number of Cartesian functions: 400
    Spherical Harmonics?: true
    Max angular momentum: 5

  Minimum eigenvalue in the overlap matrix is 8.7327201651E-05.
  Using Symmetric Orthogonalization.

  SCF Guess: Superposition of Atomic Densities via on-the-fly atomic UHF.

  ==> Iterations <==

                           Total Energy        Delta E     RMS |[F,P]|

   @DF-RHF iter SAD:   -75.48289578665442   -7.54829e+01   0.00000e+00 
   @DF-RHF iter   1:   -75.98077103476048   -4.97875e-01   2.73004e-03 DIIS
   @DF-RHF iter   2:   -76.03342889991742   -5.26579e-02   1.86817e-03 DIIS
   @DF-RHF iter   3:   -76.06520038410861   -3.17715e-02   1.27193e-04 DIIS
   @DF-RHF iter   4:   -76.06558928786569   -3.88904e-04   3.11191e-05 DIIS
   @DF-RHF iter   5:   -76.06561443924046   -2.51514e-05   7.06918e-06 DIIS
   @DF-RHF iter   6:   -76.06561650984889   -2.07061e-06   1.58204e-06 DIIS
   @DF-RHF iter   7:   -76.06561662454918   -1.14700e-07   2.89786e-07 DIIS
   @DF-RHF iter   8:   -76.06561662791690   -3.36772e-09   4.64756e-08 DIIS
   @DF-RHF iter   9:   -76.06561662798667   -6.97753e-11   1.09766e-08 DIIS
   @DF-RHF iter  10:   -76.06561662799004   -3.36797e-12   1.69602e-09 DIIS
  Energy and wave function converged.


  ==> Post-Iterations <==

    Orbital Energies [Eh]
    ---------------------

    Doubly Occupied:                                                      

       1A    -20.565980     2A     -1.353256     3A     -0.712747  
       4A     -0.588521     5A     -0.510904  

    Virtual:                                                              

       6A      0.026811     7A      0.043183     8A      0.113901  
       9A      0.133673    10A      0.151378    11A      0.158963  
      12A      0.184716    13A      0.197140    14A      0.209725  
      15A      0.236284    16A      0.256494    17A      0.292095  
      18A      0.357784    19A      0.390152    20A      0.469289  
      21A      0.509529    22A      0.541675    23A      0.548403  
      24A      0.556703    25A      0.614974    26A      0.631834  
      27A      0.646773    28A      0.663416    29A      0.665335  
      30A      0.683154    31A      0.706846    32A      0.720659  
      33A      0.770020    34A      0.789936    35A      0.801784  
      36A      0.802042    37A      0.842467    38A      0.853328  
      39A      0.968165    40A      1.117853    41A      1.138090  
      42A      1.207626    43A      1.333361    44A      1.446707  
      45A      1.483805    46A      1.510380    47A      1.511875  
      48A      1.526598    49A      1.553670    50A      1.587873  
      51A      1.621964    52A      1.638776    53A      1.659916  
      54A      1.665543    55A      1.688835    56A      1.702760  
      57A      1.740737    58A      1.749088    59A      1.763894  
      60A      1.771954    61A      1.848846    62A      1.864842  
      63A      1.898287    64A      1.920870    65A      1.992034  
      66A      2.005109    67A      2.035062    68A      2.044711  
      69A      2.099400    70A      2.203949    71A      2.212618  
      72A      2.316208    73A      2.424860    74A      2.623816  
      75A      2.631388    76A      2.888917    77A      2.958600  
      78A      2.991649    79A      3.045236    80A      3.054993  
      81A      3.087185    82A      3.257417    83A      3.318956  
      84A      3.321993    85A      3.480593    86A      3.587208  
      87A      3.640219    88A      3.686473    89A      3.716712  
      90A      3.798411    91A      3.923821    92A      4.080628  
      93A      4.164621    94A      4.168942    95A      4.177869  
      96A      4.179442    97A      4.227018    98A      4.327092  
      99A      4.435025   100A      4.586459   101A      4.742044  
     102A      4.742781   103A      4.764657   104A      4.775339  
     105A      4.818654   106A      4.880600   107A      4.993923  
     108A      5.227547   109A      5.312231   110A      5.519959  
     111A      5.546498   112A      5.853802   113A      5.894274  
     114A      6.075359   115A      6.237586   116A      6.813214  
     117A      6.893180   118A      6.893995   119A      6.907963  
     120A      7.739712   121A      7.762250   122A      7.787266  
     123A      7.819735   124A      7.841193   125A      7.890769  
     126A      7.927363   127A      8.020224   128A      8.134865  
     129A      8.189913   130A      8.534814   131A      8.614028  
     132A      8.673242   133A      8.679016   134A      8.789512  
     135A      8.845093   136A      8.987020   137A      9.040071  
     138A      9.243608   139A      9.691293   140A      9.896200  
     141A      9.944399   142A      9.964113   143A      9.991076  
     144A     10.304090   145A     10.440091   146A     10.684804  
     147A     11.025781   148A     11.066023   149A     11.108829  
     150A     11.272302   151A     11.295910   152A     11.408222  
     153A     11.723232   154A     11.797117   155A     11.828651  
     156A     11.986255   157A     12.205529   158A     12.211650  
     159A     12.642908   160A     12.756831   161A     12.825340  
     162A     12.913867   163A     13.160135   164A     14.002019  
     165A     14.014551   166A     14.522141   167A     14.806142  
     168A     14.927325   169A     15.261082   170A     16.828111  
     171A     17.310152   172A     45.514312  

    Final Occupation by Irrep:
              A 
    DOCC [     5 ]

  @DF-RHF Final Energy:   -76.06561662799004

   => Energetics <=

    Nuclear Repulsion Energy =              9.1794933018214273
    One-Electron Energy =                -123.0274045086975008
    Two-Electron Energy =                  37.7822945788860309
    Total Energy =                        -76.0656166279900390

Computation Completed


Properties will be evaluated at   0.000000,   0.000000,   0.000000 [a0]

Properties computed using the SCF density matrix

  Nuclear Dipole Moment: [e a0]
     X:    85.9518      Y:     0.8333      Z:     0.0173

  Electronic Dipole Moment: [e a0]
     X:   -86.7442      Y:    -0.8562      Z:    -0.0202

  Dipole Moment: [e a0]
     X:    -0.7923      Y:    -0.0229      Z:    -0.0029     Total:     0.7927

  Dipole Moment: [D]
     X:    -2.0139      Y:    -0.0583      Z:    -0.0074     Total:     2.0148


*** tstop() called on node56.bme.utexas.edu at Sat Apr 11 16:58:01 2020
Module time:
	user time   =       8.16 seconds =       0.14 minutes
	system time =       0.30 seconds =       0.01 minutes
	total time  =          2 seconds =       0.03 minutes
Total time:
	user time   =      15.97 seconds =       0.27 minutes
	system time =       0.57 seconds =       0.01 minutes
	total time  =          4 seconds =       0.07 minutes

*** tstart() called on node56.bme.utexas.edu
*** at Sat Apr 11 16:58:01 2020


  //>>>>>>>>>>>>>>>>>>>>>>>>>>>>>>>>>>>//
  //               DFMP2               //
  //<<<<<<<<<<<<<<<<<<<<<<<<<<<<<<<<<<<//

   => Loading Basis Set <=

    Name: (AUG-CC-PVQZ AUX)
    Role: RIFIT
    Keyword: DF_BASIS_MP2
    atoms 1   entry O          line   332 file /home/liuchw/anaconda3/envs/psi4env/share/psi4/basis/aug-cc-pvqz-ri.gbs 
    atoms 2-3 entry H          line    30 file /home/liuchw/anaconda3/envs/psi4env/share/psi4/basis/aug-cc-pvqz-ri.gbs 

	 --------------------------------------------------------
	                          DF-MP2                         
	      2nd-Order Density-Fitted Moller-Plesset Theory     
	              RMP2 Wavefunction,   6 Threads             
	                                                         
	        Rob Parrish, Justin Turney, Andy Simmonett,      
	           Ed Hohenstein, and C. David Sherrill          
	 --------------------------------------------------------

   => Auxiliary Basis Set <=

  Basis Set: (AUG-CC-PVQZ AUX)
    Blend: AUG-CC-PVQZ-RI
    Number of shells: 76
    Number of basis function: 328
    Number of Cartesian functions: 447
    Spherical Harmonics?: true
    Max angular momentum: 5

	 --------------------------------------------------------
	                 NBF =   172, NAUX =   328
	 --------------------------------------------------------
	   CLASS    FOCC     OCC    AOCC    AVIR     VIR    FVIR
	   PAIRS       0       5       5     167     167       0
	 --------------------------------------------------------

	-----------------------------------------------------------
	 ==================> DF-MP2 Energies <==================== 
	-----------------------------------------------------------
	 Reference Energy          =     -76.0656166279900390 [Eh]
	 Singles Energy            =      -0.0000000000000000 [Eh]
	 Same-Spin Energy          =      -0.0727404583155669 [Eh]
	 Opposite-Spin Energy      =      -0.2443067654234405 [Eh]
	 Correlation Energy        =      -0.3170472237390074 [Eh]
	 Total Energy              =     -76.3826638517290490 [Eh]
	-----------------------------------------------------------
	 ================> DF-SCS-MP2 Energies <================== 
	-----------------------------------------------------------
	 SCS Same-Spin Scale       =       0.3333333333333333 [-]
	 SCS Opposite-Spin Scale   =       1.2000000000000000 [-]
	 SCS Same-Spin Energy      =      -0.0242468194385223 [Eh]
	 SCS Opposite-Spin Energy  =      -0.2931681185081286 [Eh]
	 SCS Correlation Energy    =      -0.3174149379466509 [Eh]
	 SCS Total Energy          =     -76.3830315659366903 [Eh]
	-----------------------------------------------------------


*** tstop() called on node56.bme.utexas.edu at Sat Apr 11 16:58:02 2020
Module time:
	user time   =       4.24 seconds =       0.07 minutes
	system time =       0.18 seconds =       0.00 minutes
	total time  =          1 seconds =       0.02 minutes
Total time:
	user time   =      20.21 seconds =       0.34 minutes
	system time =       0.75 seconds =       0.01 minutes
	total time  =          5 seconds =       0.08 minutes

  //>>>>>>>>>>>>>>>>>>>>>>>>>>>>>>>>>>>//
  //  CBS Results: mp2/aug-cc-pv[tq]z  //
  //<<<<<<<<<<<<<<<<<<<<<<<<<<<<<<<<<<<//


   ==> HF <==

   HI-zeta (4) Energy:               -76.065616627990


   ==> Helgaker 2-point correlated extrapolation for method: MP2 <==

   LO-zeta (3) Energy:               -76.344019161814
   HI-zeta (4) Energy:               -76.382663851729
   Alpha (exponent) Value:             3.000000000000
   Extrapolated Energy:              -76.410864030857

   @Extrapolated MP2/(T,Q):          -76.410864030857



   ==> Helgaker 2-point correlated extrapolation for method: HF <==

   LO-zeta (3) Energy:               -76.060231505782
   HI-zeta (4) Energy:               -76.065616627990
   Alpha (exponent) Value:             3.000000000000
   Extrapolated Energy:              -76.069546311763

   @Extrapolated HF/(T,Q):           -76.069546311763


   ==> Components <==

  ---------------------------------------------------------------------------------------------------------
                          Method / Basis                      Rqd      Energy [Eh]   Variable
  ---------------------------------------------------------------------------------------------------------
                              hf / aug-cc-pvtz                  *     -76.06023151   HF TOTAL ENERGY
                             mp2 / aug-cc-pvtz                  *     -76.34401916   MP2 TOTAL ENERGY
                              hf / aug-cc-pvqz                  *     -76.06561663   HF TOTAL ENERGY
                             mp2 / aug-cc-pvqz                  *     -76.38266385   MP2 TOTAL ENERGY
  ---------------------------------------------------------------------------------------------------------

   ==> Stages <==

  ---------------------------------------------------------------------------------------------------------
      Stage               Method / Basis                       Wt      Energy [Eh]   Scheme
  ---------------------------------------------------------------------------------------------------------
        scf                   hf / aug-cc-pvqz                  1     -76.06561663   xtpl_highest_1
       corl                  mp2 / aug-cc-pv[tq]z               1     -76.41086403   corl_xtpl_helgaker_2
       corl                   hf / aug-cc-pv[tq]z              -1     -76.06954631   corl_xtpl_helgaker_2
  ---------------------------------------------------------------------------------------------------------

   ==> CBS <==

  ---------------------------------------------------------------------------------------------------------
      Stage               Method / Basis                               Energy [Eh]   Scheme
  ---------------------------------------------------------------------------------------------------------
        scf                   hf / aug-cc-pvqz                        -76.06561663   xtpl_highest_1
       corl                  mp2 / aug-cc-pv[tq]z                      -0.34131772   corl_xtpl_helgaker_2
      total                  CBS                                      -76.40693435   
  ---------------------------------------------------------------------------------------------------------
   => Loading Basis Set <=

    Name: DEF2-SVP
    Role: ORBITAL
    Keyword: BASIS
    atoms 1   entry O          line   130 file /home/liuchw/anaconda3/envs/psi4env/share/psi4/basis/def2-svp.gbs 
    atoms 2-3 entry H          line    15 file /home/liuchw/anaconda3/envs/psi4env/share/psi4/basis/def2-svp.gbs 


       N-Body: Complex Energy (fragments = (2,), basis = (2,):   -76.40693434708331)

       N-Body: Computing complex (2/4) with fragments (2,) in the basis of fragments (1, 2).


Scratch directory: /scratch//

  //>>>>>>>>>>>>>>>>>>>>>>>>>>>>>>>>>>>//
  //   CBS Setup: mp2/aug-cc-pv[tq]z   //
  //<<<<<<<<<<<<<<<<<<<<<<<<<<<<<<<<<<<//

    Naive listing of computations required.
             hf / aug-cc-pvqz              for  HF TOTAL ENERGY
            mp2 / aug-cc-pvtz              for  MP2 TOTAL ENERGY
            mp2 / aug-cc-pvqz              for  MP2 TOTAL ENERGY
             hf / aug-cc-pvtz              for  HF TOTAL ENERGY
             hf / aug-cc-pvqz              for  HF TOTAL ENERGY

    Enlightened listing of computations required.
            mp2 / aug-cc-pvtz              for  MP2 TOTAL ENERGY
            mp2 / aug-cc-pvqz              for  MP2 TOTAL ENERGY

    Full listing of computations to be obtained (required and bonus).
             hf / aug-cc-pvtz              for  HF TOTAL ENERGY
            mp2 / aug-cc-pvtz              for  MP2 TOTAL ENERGY
             hf / aug-cc-pvqz              for  HF TOTAL ENERGY
            mp2 / aug-cc-pvqz              for  MP2 TOTAL ENERGY

  //>>>>>>>>>>>>>>>>>>>>>>>>>>>>>>>>>>>>//
  // CBS Computation: MP2 / AUG-CC-PVTZ //
  //<<<<<<<<<<<<<<<<<<<<<<<<<<<<<<<<<<<<//


Scratch directory: /scratch//

*** tstart() called on node56.bme.utexas.edu
*** at Sat Apr 11 16:58:03 2020

   => Loading Basis Set <=

    Name: AUG-CC-PVTZ
    Role: ORBITAL
    Keyword: BASIS
    atoms 1           entry F          line   377 file /home/liuchw/anaconda3/envs/psi4env/share/psi4/basis/aug-cc-pvtz.gbs 
    atoms 2-7         entry C          line   239 file /home/liuchw/anaconda3/envs/psi4env/share/psi4/basis/aug-cc-pvtz.gbs 
    atoms 8-12, 14-15 entry H          line    40 file /home/liuchw/anaconda3/envs/psi4env/share/psi4/basis/aug-cc-pvtz.gbs 
    atoms 13          entry O          line   331 file /home/liuchw/anaconda3/envs/psi4env/share/psi4/basis/aug-cc-pvtz.gbs 


         ---------------------------------------------------------
                                   SCF
               by Justin Turney, Rob Parrish, Andy Simmonett
                          and Daniel G. A. Smith
                              RHF Reference
                        6 Threads,  38146 MiB Core
         ---------------------------------------------------------

  ==> Geometry <==

    Molecular point group: c1
    Full point group: C1

    Geometry (in Angstrom), charge = 0, multiplicity = 1:

       Center              X                  Y                   Z               Mass       
    ------------   -----------------  -----------------  -----------------  -----------------
      Gh(F)           1.342482242107    -0.033162171606    -0.000401348627    18.998403162730
      Gh(C)          -0.007648757893    -0.018096171606    -0.000279348627    12.000000000000
      Gh(C)          -0.660081757893     1.204064828394    -0.000334348627    12.000000000000
      Gh(C)          -0.687171757893    -1.225397171606    -0.000111348627    12.000000000000
      Gh(C)          -2.053281757893     1.210921828394    -0.000215348627    12.000000000000
      Gh(C)          -2.080175757893    -1.201177171606     0.000005651373    12.000000000000
      Gh(C)          -2.764500757893     0.012653828394    -0.000046348627    12.000000000000
      Gh(H)          -0.084780757893     2.118213828394    -0.000460348627     1.007825032230
      Gh(H)          -0.132359757893    -2.152114171606    -0.000075348627     1.007825032230
      Gh(H)          -2.579570757893     2.155071828394    -0.000253348627     1.007825032230
      Gh(H)          -2.627395757893    -2.133352171606     0.000138651373     1.007825032230
      Gh(H)          -3.844904757893     0.024700828394     0.000046651373     1.007825032230
         O            4.668396242107     0.047571828394     0.001357651373    15.994914619570
         H            4.065565242107     0.029243828394     0.747384651373     1.007825032230
         H            4.071016242107     0.031146828394    -0.749080348627     1.007825032230

  Running in c1 symmetry.

  Rotational constants: A =      0.18739  B =      0.02589  C =      0.02282 [cm^-1]
  Rotational constants: A =   5617.94461  B =    776.25133  C =    684.09855 [MHz]
  Nuclear repulsion =    9.179493301821427

  Charge       = 0
  Multiplicity = 1
  Electrons    = 10
  Nalpha       = 5
  Nbeta        = 5

  ==> Algorithm <==

  SCF Algorithm Type is DF.
  DIIS enabled.
  MOM disabled.
  Fractional occupation disabled.
  Guess Type is SAD.
  Energy threshold   = 1.00e-07
  Density threshold  = 1.00e-08
  Integral threshold = 0.00e+00

  ==> Primary Basis <==

  Basis Set: AUG-CC-PVTZ
    Blend: AUG-CC-PVTZ
    Number of shells: 175
    Number of basis function: 529
    Number of Cartesian functions: 615
    Spherical Harmonics?: true
    Max angular momentum: 3

   => Loading Basis Set <=

    Name: (AUG-CC-PVTZ AUX)
    Role: JKFIT
    Keyword: DF_BASIS_SCF
    atoms 1           entry F          line   348 file /home/liuchw/anaconda3/envs/psi4env/share/psi4/basis/aug-cc-pvtz-jkfit.gbs 
    atoms 2-7         entry C          line   162 file /home/liuchw/anaconda3/envs/psi4env/share/psi4/basis/aug-cc-pvtz-jkfit.gbs 
    atoms 8-12, 14-15 entry H          line    70 file /home/liuchw/anaconda3/envs/psi4env/share/psi4/basis/aug-cc-pvtz-jkfit.gbs 
    atoms 13          entry O          line   286 file /home/liuchw/anaconda3/envs/psi4env/share/psi4/basis/aug-cc-pvtz-jkfit.gbs 

  ==> Pre-Iterations <==

   -------------------------------------------------------
    Irrep   Nso     Nmo     Nalpha   Nbeta   Ndocc  Nsocc
   -------------------------------------------------------
     A        529     529       0       0       0       0
   -------------------------------------------------------
    Total     529     529       5       5       5       0
   -------------------------------------------------------

  ==> Integral Setup <==

  DFHelper Memory: AOs need 2.237 GiB; user supplied 27.940 GiB. Using in-core AOs.

  ==> MemDFJK: Density-Fitted J/K Matrices <==

    J tasked:                   Yes
    K tasked:                   Yes
    wK tasked:                   No
    OpenMP threads:               6
    Memory [MiB]:             28610
    Algorithm:                 Core
    Schwarz Cutoff:           1E-12
    Mask sparsity (%):      10.2866
    Fitting Condition:        1E-10

   => Auxiliary Basis Set <=

  Basis Set: (AUG-CC-PVTZ AUX)
    Blend: AUG-CC-PVTZ-JKFIT
    Number of shells: 338
    Number of basis function: 1154
    Number of Cartesian functions: 1433
    Spherical Harmonics?: true
    Max angular momentum: 4

  Minimum eigenvalue in the overlap matrix is 9.1613436255E-07.
  Using Symmetric Orthogonalization.

  SCF Guess: Superposition of Atomic Densities via on-the-fly atomic UHF.

  ==> Iterations <==

                           Total Energy        Delta E     RMS |[F,P]|

   @DF-RHF iter SAD:   -75.47775705334267   -7.54778e+01   0.00000e+00 
   @DF-RHF iter   1:   -75.97570741955634   -4.97950e-01   8.85793e-04 DIIS
   @DF-RHF iter   2:   -76.02827240945795   -5.25650e-02   6.04815e-04 DIIS
   @DF-RHF iter   3:   -76.05984799222610   -3.15756e-02   4.10463e-05 DIIS
   @DF-RHF iter   4:   -76.06023489659179   -3.86904e-04   9.82763e-06 DIIS
   @DF-RHF iter   5:   -76.06025917902184   -2.42824e-05   2.23988e-06 DIIS
   @DF-RHF iter   6:   -76.06026117006064   -1.99104e-06   4.87558e-07 DIIS
   @DF-RHF iter   7:   -76.06026127336605   -1.03305e-07   8.63859e-08 DIIS
   @DF-RHF iter   8:   -76.06026127621067   -2.84462e-09   1.44616e-08 DIIS
   @DF-RHF iter   9:   -76.06026127627250   -6.18314e-11   3.48778e-09 DIIS
  Energy and wave function converged.


  ==> Post-Iterations <==

    Orbital Energies [Eh]
    ---------------------

    Doubly Occupied:                                                      

       1A    -20.568401     2A     -1.353963     3A     -0.712758  
       4A     -0.588461     5A     -0.510759  

    Virtual:                                                              

       6A      0.012967     7A      0.027990     8A      0.029162  
       9A      0.044972    10A      0.046956    11A      0.047635  
      12A      0.061324    13A      0.074330    14A      0.074561  
      15A      0.085087    16A      0.091049    17A      0.094868  
      18A      0.098827    19A      0.105671    20A      0.115721  
      21A      0.116628    22A      0.122122    23A      0.128168  
      24A      0.131775    25A      0.133138    26A      0.134297  
      27A      0.143872    28A      0.151631    29A      0.153077  
      30A      0.159283    31A      0.180592    32A      0.191588  
      33A      0.192081    34A      0.194364    35A      0.195706  
      36A      0.208679    37A      0.221047    38A      0.221534  
      39A      0.225761    40A      0.235635    41A      0.238171  
      42A      0.254092    43A      0.262703    44A      0.264048  
      45A      0.271797    46A      0.271914    47A      0.280819  
      48A      0.281498    49A      0.288248    50A      0.298083  
      51A      0.304605    52A      0.314204    53A      0.321044  
      54A      0.323557    55A      0.326953    56A      0.337755  
      57A      0.344795    58A      0.348245    59A      0.352149  
      60A      0.355796    61A      0.358042    62A      0.364482  
      63A      0.375659    64A      0.377294    65A      0.381386  
      66A      0.396496    67A      0.396729    68A      0.401138  
      69A      0.418599    70A      0.422499    71A      0.426101  
      72A      0.426875    73A      0.446383    74A      0.449139  
      75A      0.454047    76A      0.461639    77A      0.466266  
      78A      0.469107    79A      0.489321    80A      0.499928  
      81A      0.508669    82A      0.513801    83A      0.523495  
      84A      0.526282    85A      0.540079    86A      0.542787  
      87A      0.551980    88A      0.571482    89A      0.572131  
      90A      0.587566    91A      0.597869    92A      0.598401  
      93A      0.600026    94A      0.606669    95A      0.619986  
      96A      0.628055    97A      0.636368    98A      0.636720  
      99A      0.649148   100A      0.663672   101A      0.665531  
     102A      0.674155   103A      0.677820   104A      0.678529  
     105A      0.687154   106A      0.700564   107A      0.705636  
     108A      0.706113   109A      0.708760   110A      0.722886  
     111A      0.729123   112A      0.735611   113A      0.741173  
     114A      0.744025   115A      0.746404   116A      0.753840  
     117A      0.761311   118A      0.763063   119A      0.772388  
     120A      0.776785   121A      0.810419   122A      0.813254  
     123A      0.845132   124A      0.868206   125A      0.881348  
     126A      0.882459   127A      0.884290   128A      0.885588  
     129A      0.891101   130A      0.916083   131A      0.923117  
     132A      0.925159   133A      0.929811   134A      0.944591  
     135A      0.953510   136A      0.970261   137A      0.971467  
     138A      0.981295   139A      0.985802   140A      1.000345  
     141A      1.008423   142A      1.011843   143A      1.014126  
     144A      1.031167   145A      1.045072   146A      1.052716  
     147A      1.057620   148A      1.061891   149A      1.062472  
     150A      1.081509   151A      1.084794   152A      1.085895  
     153A      1.092970   154A      1.101812   155A      1.105877  
     156A      1.108858   157A      1.117099   158A      1.125397  
     159A      1.134275   160A      1.144597   161A      1.158154  
     162A      1.166865   163A      1.184947   164A      1.185657  
     165A      1.188021   166A      1.202781   167A      1.207003  
     168A      1.217124   169A      1.220104   170A      1.236698  
     171A      1.241225   172A      1.242719   173A      1.257123  
     174A      1.258457   175A      1.270710   176A      1.274742  
     177A      1.282297   178A      1.287064   179A      1.289597  
     180A      1.292091   181A      1.299506   182A      1.302125  
     183A      1.303411   184A      1.320926   185A      1.324161  
     186A      1.331097   187A      1.336830   188A      1.337035  
     189A      1.350434   190A      1.377357   191A      1.398975  
     192A      1.402603   193A      1.424056   194A      1.433937  
     195A      1.448902   196A      1.456543   197A      1.459315  
     198A      1.471476   199A      1.492627   200A      1.502647  
     201A      1.504103   202A      1.514597   203A      1.524403  
     204A      1.527038   205A      1.528054   206A      1.540011  
     207A      1.551270   208A      1.554754   209A      1.570332  
     210A      1.570491   211A      1.575401   212A      1.611047  
     213A      1.626141   214A      1.633275   215A      1.641038  
     216A      1.655297   217A      1.662506   218A      1.666343  
     219A      1.668401   220A      1.671030   221A      1.714388  
     222A      1.758891   223A      1.786271   224A      1.795767  
     225A      1.810111   226A      1.846142   227A      1.848131  
     228A      1.850410   229A      1.876991   230A      1.878006  
     231A      1.885006   232A      1.888356   233A      1.901235  
     234A      1.945890   235A      1.961423   236A      1.978858  
     237A      1.999038   238A      2.003100   239A      2.033381  
     240A      2.054900   241A      2.103987   242A      2.127571  
     243A      2.133379   244A      2.142747   245A      2.157652  
     246A      2.163732   247A      2.171408   248A      2.182826  
     249A      2.183727   250A      2.200496   251A      2.202657  
     252A      2.208582   253A      2.213438   254A      2.233859  
     255A      2.256641   256A      2.268337   257A      2.285768  
     258A      2.288426   259A      2.312841   260A      2.317454  
     261A      2.327917   262A      2.329188   263A      2.330129  
     264A      2.335630   265A      2.335952   266A      2.341446  
     267A      2.345079   268A      2.347925   269A      2.355699  
     270A      2.412150   271A      2.441426   272A      2.443868  
     273A      2.453051   274A      2.481908   275A      2.498238  
     276A      2.509344   277A      2.515341   278A      2.516509  
     279A      2.539140   280A      2.540366   281A      2.543246  
     282A      2.550101   283A      2.559694   284A      2.567900  
     285A      2.598949   286A      2.630260   287A      2.655323  
     288A      2.687551   289A      2.731335   290A      2.737008  
     291A      2.744243   292A      2.760135   293A      2.775605  
     294A      2.812394   295A      2.825628   296A      2.831558  
     297A      2.868910   298A      2.882358   299A      2.889267  
     300A      2.891846   301A      2.892346   302A      2.913130  
     303A      2.952689   304A      3.079469   305A      3.094819  
     306A      3.145131   307A      3.178224   308A      3.256712  
     309A      3.260548   310A      3.336855   311A      3.363626  
     312A      3.399231   313A      3.469746   314A      3.521340  
     315A      3.627859   316A      3.642223   317A      3.658583  
     318A      3.673704   319A      3.711433   320A      3.720658  
     321A      3.758983   322A      3.772681   323A      3.792184  
     324A      3.794187   325A      3.797332   326A      3.866317  
     327A      3.875467   328A      3.937387   329A      3.953698  
     330A      3.979551   331A      3.997234   332A      4.018351  
     333A      4.025107   334A      4.044975   335A      4.050199  
     336A      4.052480   337A      4.057019   338A      4.065544  
     339A      4.071475   340A      4.092166   341A      4.111804  
     342A      4.130212   343A      4.153412   344A      4.168790  
     345A      4.176960   346A      4.187070   347A      4.218169  
     348A      4.228736   349A      4.235675   350A      4.245218  
     351A      4.257515   352A      4.265355   353A      4.274833  
     354A      4.284352   355A      4.294743   356A      4.297192  
     357A      4.303721   358A      4.323972   359A      4.327968  
     360A      4.335986   361A      4.381409   362A      4.385683  
     363A      4.404208   364A      4.411805   365A      4.424879  
     366A      4.449101   367A      4.458100   368A      4.480189  
     369A      4.490032   370A      4.526567   371A      4.530923  
     372A      4.537559   373A      4.548855   374A      4.556364  
     375A      4.559210   376A      4.570818   377A      4.575477  
     378A      4.592974   379A      4.612409   380A      4.667346  
     381A      4.670911   382A      4.710233   383A      4.726488  
     384A      4.771027   385A      4.782712   386A      4.816835  
     387A      4.818931   388A      4.867241   389A      4.868135  
     390A      4.914288   391A      4.936065   392A      4.960118  
     393A      4.967396   394A      5.020937   395A      5.026554  
     396A      5.071700   397A      5.072210   398A      5.083301  
     399A      5.093668   400A      5.108317   401A      5.150914  
     402A      5.171807   403A      5.172062   404A      5.174105  
     405A      5.186901   406A      5.194283   407A      5.196286  
     408A      5.233277   409A      5.250484   410A      5.253344  
     411A      5.290141   412A      5.310393   413A      5.383337  
     414A      5.397775   415A      5.408679   416A      5.414526  
     417A      5.448338   418A      5.451790   419A      5.477075  
     420A      5.497718   421A      5.512747   422A      5.525635  
     423A      5.539231   424A      5.554682   425A      5.634935  
     426A      5.635887   427A      5.639597   428A      5.651757  
     429A      5.691779   430A      5.704874   431A      5.717279  
     432A      5.737145   433A      5.746530   434A      5.773199  
     435A      5.776709   436A      5.791053   437A      5.796413  
     438A      5.837713   439A      5.932009   440A      5.947077  
     441A      5.949595   442A      6.002636   443A      6.062069  
     444A      6.068231   445A      6.135648   446A      6.173654  
     447A      6.186078   448A      6.192875   449A      6.246962  
     450A      6.286742   451A      6.288515   452A      6.362846  
     453A      6.369582   454A      6.489570   455A      6.520004  
     456A      6.619494   457A      6.657581   458A      6.688954  
     459A      6.777130   460A      6.796978   461A      6.869013  
     462A      6.958577   463A      7.000639   464A      7.055777  
     465A      7.085019   466A      7.094115   467A      7.100293  
     468A      7.123762   469A      7.128854   470A      7.146822  
     471A      7.245506   472A      7.278532   473A      7.326637  
     474A      7.337710   475A      7.361808   476A      7.386627  
     477A      7.438429   478A      7.515804   479A      7.518040  
     480A      7.570388   481A      7.597714   482A      7.626576  
     483A      7.732203   484A      7.894856   485A      7.915405  
     486A      7.970478   487A      8.023873   488A      8.139843  
     489A      8.176858   490A      8.236586   491A      8.303131  
     492A      8.375154   493A      8.829062   494A      8.840297  
     495A      8.942866   496A      9.262433   497A      9.356278  
     498A      9.358805   499A     10.030289   500A     10.060065  
     501A     10.285339   502A     10.356870   503A     10.579674  
     504A     10.633985   505A     10.840049   506A     10.868645  
     507A     10.963352   508A     10.969544   509A     11.072573  
     510A     11.203656   511A     11.267776   512A     11.364341  
     513A     12.635859   514A     13.072515   515A     13.201029  
     516A     13.298908   517A     13.519521   518A     14.175382  
     519A     14.597191   520A     15.103784   521A     15.858690  
     522A     16.535588   523A     49.670106   524A     49.895850  
     525A     50.901768   526A     54.993018   527A     55.847343  
     528A     56.653694   529A     77.766804  

    Final Occupation by Irrep:
              A 
    DOCC [     5 ]

  @DF-RHF Final Energy:   -76.06026127627250

   => Energetics <=

    Nuclear Repulsion Energy =              9.1794933018214273
    One-Electron Energy =                -123.0108223061198487
    Two-Electron Energy =                  37.7710677280259262
    Total Energy =                        -76.0602612762724988

Computation Completed


Properties will be evaluated at   0.000000,   0.000000,   0.000000 [a0]

Properties computed using the SCF density matrix

  Nuclear Dipole Moment: [e a0]
     X:    85.9518      Y:     0.8333      Z:     0.0173

  Electronic Dipole Moment: [e a0]
     X:   -86.7449      Y:    -0.8563      Z:    -0.0202

  Dipole Moment: [e a0]
     X:    -0.7931      Y:    -0.0230      Z:    -0.0029     Total:     0.7934

  Dipole Moment: [D]
     X:    -2.0159      Y:    -0.0583      Z:    -0.0074     Total:     2.0167


*** tstop() called on node56.bme.utexas.edu at Sat Apr 11 16:58:14 2020
Module time:
	user time   =      58.11 seconds =       0.97 minutes
	system time =       1.22 seconds =       0.02 minutes
	total time  =         11 seconds =       0.18 minutes
Total time:
	user time   =      79.38 seconds =       1.32 minutes
	system time =       1.97 seconds =       0.03 minutes
	total time  =         17 seconds =       0.28 minutes

*** tstart() called on node56.bme.utexas.edu
*** at Sat Apr 11 16:58:14 2020


  //>>>>>>>>>>>>>>>>>>>>>>>>>>>>>>>>>>>//
  //               DFMP2               //
  //<<<<<<<<<<<<<<<<<<<<<<<<<<<<<<<<<<<//

   => Loading Basis Set <=

    Name: (AUG-CC-PVTZ AUX)
    Role: RIFIT
    Keyword: DF_BASIS_MP2
    atoms 1           entry F          line   322 file /home/liuchw/anaconda3/envs/psi4env/share/psi4/basis/aug-cc-pvtz-ri.gbs 
    atoms 2-7         entry C          line   148 file /home/liuchw/anaconda3/envs/psi4env/share/psi4/basis/aug-cc-pvtz-ri.gbs 
    atoms 8-12, 14-15 entry H          line    30 file /home/liuchw/anaconda3/envs/psi4env/share/psi4/basis/aug-cc-pvtz-ri.gbs 
    atoms 13          entry O          line   264 file /home/liuchw/anaconda3/envs/psi4env/share/psi4/basis/aug-cc-pvtz-ri.gbs 

	 --------------------------------------------------------
	                          DF-MP2                         
	      2nd-Order Density-Fitted Moller-Plesset Theory     
	              RMP2 Wavefunction,   6 Threads             
	                                                         
	        Rob Parrish, Justin Turney, Andy Simmonett,      
	           Ed Hohenstein, and C. David Sherrill          
	 --------------------------------------------------------

   => Auxiliary Basis Set <=

  Basis Set: (AUG-CC-PVTZ AUX)
    Blend: AUG-CC-PVTZ-RI
    Number of shells: 322
    Number of basis function: 1170
    Number of Cartesian functions: 1473
    Spherical Harmonics?: true
    Max angular momentum: 4

	 --------------------------------------------------------
	                 NBF =   529, NAUX =  1170
	 --------------------------------------------------------
	   CLASS    FOCC     OCC    AOCC    AVIR     VIR    FVIR
	   PAIRS       0       5       5     524     524       0
	 --------------------------------------------------------

	-----------------------------------------------------------
	 ==================> DF-MP2 Energies <==================== 
	-----------------------------------------------------------
	 Reference Energy          =     -76.0602612762724988 [Eh]
	 Singles Energy            =      -0.0000000000000000 [Eh]
	 Same-Spin Energy          =      -0.0684324704623191 [Eh]
	 Opposite-Spin Energy      =      -0.2155322142409339 [Eh]
	 Correlation Energy        =      -0.2839646847032530 [Eh]
	 Total Energy              =     -76.3442259609757485 [Eh]
	-----------------------------------------------------------
	 ================> DF-SCS-MP2 Energies <================== 
	-----------------------------------------------------------
	 SCS Same-Spin Scale       =       0.3333333333333333 [-]
	 SCS Opposite-Spin Scale   =       1.2000000000000000 [-]
	 SCS Same-Spin Energy      =      -0.0228108234874397 [Eh]
	 SCS Opposite-Spin Energy  =      -0.2586386570891207 [Eh]
	 SCS Correlation Energy    =      -0.2814494805765604 [Eh]
	 SCS Total Energy          =     -76.3417107568490536 [Eh]
	-----------------------------------------------------------


*** tstop() called on node56.bme.utexas.edu at Sat Apr 11 16:58:20 2020
Module time:
	user time   =      26.86 seconds =       0.45 minutes
	system time =       0.60 seconds =       0.01 minutes
	total time  =          6 seconds =       0.10 minutes
Total time:
	user time   =     106.25 seconds =       1.77 minutes
	system time =       2.57 seconds =       0.04 minutes
	total time  =         23 seconds =       0.38 minutes

  //>>>>>>>>>>>>>>>>>>>>>>>>>>>>>>>>>>>>//
  // CBS Computation: MP2 / AUG-CC-PVQZ //
  //<<<<<<<<<<<<<<<<<<<<<<<<<<<<<<<<<<<<//


Scratch directory: /scratch//

*** tstart() called on node56.bme.utexas.edu
*** at Sat Apr 11 16:58:20 2020

   => Loading Basis Set <=

    Name: AUG-CC-PVQZ
    Role: ORBITAL
    Keyword: BASIS
    atoms 1           entry F          line   483 file /home/liuchw/anaconda3/envs/psi4env/share/psi4/basis/aug-cc-pvqz.gbs 
    atoms 2-7         entry C          line   303 file /home/liuchw/anaconda3/envs/psi4env/share/psi4/basis/aug-cc-pvqz.gbs 
    atoms 8-12, 14-15 entry H          line    40 file /home/liuchw/anaconda3/envs/psi4env/share/psi4/basis/aug-cc-pvqz.gbs 
    atoms 13          entry O          line   423 file /home/liuchw/anaconda3/envs/psi4env/share/psi4/basis/aug-cc-pvqz.gbs 


         ---------------------------------------------------------
                                   SCF
               by Justin Turney, Rob Parrish, Andy Simmonett
                          and Daniel G. A. Smith
                              RHF Reference
                        6 Threads,  38146 MiB Core
         ---------------------------------------------------------

  ==> Geometry <==

    Molecular point group: c1
    Full point group: C1

    Geometry (in Angstrom), charge = 0, multiplicity = 1:

       Center              X                  Y                   Z               Mass       
    ------------   -----------------  -----------------  -----------------  -----------------
      Gh(F)           1.342482242107    -0.033162171606    -0.000401348627    18.998403162730
      Gh(C)          -0.007648757893    -0.018096171606    -0.000279348627    12.000000000000
      Gh(C)          -0.660081757893     1.204064828394    -0.000334348627    12.000000000000
      Gh(C)          -0.687171757893    -1.225397171606    -0.000111348627    12.000000000000
      Gh(C)          -2.053281757893     1.210921828394    -0.000215348627    12.000000000000
      Gh(C)          -2.080175757893    -1.201177171606     0.000005651373    12.000000000000
      Gh(C)          -2.764500757893     0.012653828394    -0.000046348627    12.000000000000
      Gh(H)          -0.084780757893     2.118213828394    -0.000460348627     1.007825032230
      Gh(H)          -0.132359757893    -2.152114171606    -0.000075348627     1.007825032230
      Gh(H)          -2.579570757893     2.155071828394    -0.000253348627     1.007825032230
      Gh(H)          -2.627395757893    -2.133352171606     0.000138651373     1.007825032230
      Gh(H)          -3.844904757893     0.024700828394     0.000046651373     1.007825032230
         O            4.668396242107     0.047571828394     0.001357651373    15.994914619570
         H            4.065565242107     0.029243828394     0.747384651373     1.007825032230
         H            4.071016242107     0.031146828394    -0.749080348627     1.007825032230

  Running in c1 symmetry.

  Rotational constants: A =      0.18739  B =      0.02589  C =      0.02282 [cm^-1]
  Rotational constants: A =   5617.94461  B =    776.25133  C =    684.09855 [MHz]
  Nuclear repulsion =    9.179493301821427

  Charge       = 0
  Multiplicity = 1
  Electrons    = 10
  Nalpha       = 5
  Nbeta        = 5

  ==> Algorithm <==

  SCF Algorithm Type is DF.
  DIIS enabled.
  MOM disabled.
  Fractional occupation disabled.
  Guess Type is SAD.
  Energy threshold   = 1.00e-07
  Density threshold  = 1.00e-08
  Integral threshold = 0.00e+00

  ==> Primary Basis <==

  Basis Set: AUG-CC-PVQZ
    Blend: AUG-CC-PVQZ
    Number of shells: 258
    Number of basis function: 962
    Number of Cartesian functions: 1225
    Spherical Harmonics?: true
    Max angular momentum: 4

   => Loading Basis Set <=

    Name: (AUG-CC-PVQZ AUX)
    Role: JKFIT
    Keyword: DF_BASIS_SCF
    atoms 1           entry F          line   388 file /home/liuchw/anaconda3/envs/psi4env/share/psi4/basis/aug-cc-pvqz-jkfit.gbs 
    atoms 2-7         entry C          line   178 file /home/liuchw/anaconda3/envs/psi4env/share/psi4/basis/aug-cc-pvqz-jkfit.gbs 
    atoms 8-12, 14-15 entry H          line    70 file /home/liuchw/anaconda3/envs/psi4env/share/psi4/basis/aug-cc-pvqz-jkfit.gbs 
    atoms 13          entry O          line   318 file /home/liuchw/anaconda3/envs/psi4env/share/psi4/basis/aug-cc-pvqz-jkfit.gbs 

  ==> Pre-Iterations <==

   -------------------------------------------------------
    Irrep   Nso     Nmo     Nalpha   Nbeta   Ndocc  Nsocc
   -------------------------------------------------------
     A        962     962       0       0       0       0
   -------------------------------------------------------
    Total     962     962       5       5       5       0
   -------------------------------------------------------

  ==> Integral Setup <==

  DFHelper Memory: AOs need 10.035 GiB; user supplied 27.940 GiB. Using in-core AOs.

  ==> MemDFJK: Density-Fitted J/K Matrices <==

    J tasked:                   Yes
    K tasked:                   Yes
    wK tasked:                   No
    OpenMP threads:               6
    Memory [MiB]:             28610
    Algorithm:                 Core
    Schwarz Cutoff:           1E-12
    Mask sparsity (%):      15.2616
    Fitting Condition:        1E-10

   => Auxiliary Basis Set <=

  Basis Set: (AUG-CC-PVQZ AUX)
    Blend: AUG-CC-PVQZ-JKFIT
    Number of shells: 398
    Number of basis function: 1668
    Number of Cartesian functions: 2291
    Spherical Harmonics?: true
    Max angular momentum: 5

  Minimum eigenvalue in the overlap matrix is 2.9187150316E-07.
  Using Symmetric Orthogonalization.

  SCF Guess: Superposition of Atomic Densities via on-the-fly atomic UHF.

  ==> Iterations <==

                           Total Energy        Delta E     RMS |[F,P]|

   @DF-RHF iter SAD:   -75.48289577904966   -7.54829e+01   0.00000e+00 
   @DF-RHF iter   1:   -75.98078082455393   -4.97885e-01   4.88125e-04 DIIS
   @DF-RHF iter   2:   -76.03344098179177   -5.26602e-02   3.34030e-04 DIIS
   @DF-RHF iter   3:   -76.06521340030588   -3.17724e-02   2.27422e-05 DIIS
   @DF-RHF iter   4:   -76.06560232170020   -3.88921e-04   5.56397e-06 DIIS
   @DF-RHF iter   5:   -76.06562747341096   -2.51517e-05   1.26394e-06 DIIS
   @DF-RHF iter   6:   -76.06562954427437   -2.07086e-06   2.82899e-07 DIIS
   @DF-RHF iter   7:   -76.06562965903117   -1.14757e-07   5.18545e-08 DIIS
   @DF-RHF iter   8:   -76.06562966240718   -3.37600e-09   8.32172e-09 DIIS
  Energy and wave function converged.


  ==> Post-Iterations <==

    Orbital Energies [Eh]
    ---------------------

    Doubly Occupied:                                                      

       1A    -20.565964     2A     -1.353240     3A     -0.712731  
       4A     -0.588511     5A     -0.510897  

    Virtual:                                                              

       6A      0.011730     7A      0.025301     8A      0.025755  
       9A      0.040042    10A      0.041671    11A      0.043089  
      12A      0.055847    13A      0.064988    14A      0.066236  
      15A      0.075826    16A      0.079285    17A      0.079672  
      18A      0.085056    19A      0.090874    20A      0.100341  
      21A      0.103213    22A      0.107106    23A      0.108023  
      24A      0.113109    25A      0.118571    26A      0.119621  
      27A      0.128743    28A      0.130267    29A      0.133889  
      30A      0.137551    31A      0.157665    32A      0.165372  
      33A      0.165666    34A      0.167196    35A      0.168058  
      36A      0.180111    37A      0.192184    38A      0.197516  
      39A      0.199036    40A      0.204387    41A      0.206953  
      42A      0.212876    43A      0.217069    44A      0.217821  
      45A      0.223266    46A      0.226986    47A      0.231385  
      48A      0.242060    49A      0.246807    50A      0.248937  
      51A      0.249727    52A      0.270526    53A      0.275041  
      54A      0.276635    55A      0.279635    56A      0.280195  
      57A      0.280966    58A      0.291793    59A      0.292577  
      60A      0.300514    61A      0.301728    62A      0.304261  
      63A      0.313234    64A      0.321200    65A      0.324018  
      66A      0.324226    67A      0.334225    68A      0.339610  
      69A      0.347265    70A      0.348347    71A      0.352338  
      72A      0.355857    73A      0.361909    74A      0.367084  
      75A      0.367398    76A      0.377501    77A      0.392602  
      78A      0.394479    79A      0.401061    80A      0.412952  
      81A      0.417919    82A      0.422665    83A      0.425397  
      84A      0.426653    85A      0.433095    86A      0.435729  
      87A      0.437709    88A      0.448741    89A      0.457567  
      90A      0.460545    91A      0.462049    92A      0.473313  
      93A      0.476793    94A      0.483900    95A      0.491604  
      96A      0.498764    97A      0.503437    98A      0.503541  
      99A      0.516531   100A      0.521737   101A      0.522348  
     102A      0.523497   103A      0.527587   104A      0.530552  
     105A      0.533146   106A      0.537168   107A      0.545756  
     108A      0.552112   109A      0.559100   110A      0.560864  
     111A      0.568321   112A      0.569896   113A      0.571183  
     114A      0.577166   115A      0.584187   116A      0.586291  
     117A      0.588226   118A      0.597966   119A      0.609215  
     120A      0.626098   121A      0.626881   122A      0.642659  
     123A      0.646298   124A      0.666924   125A      0.672675  
     126A      0.673509   127A      0.675615   128A      0.675977  
     129A      0.695613   130A      0.699399   131A      0.705581  
     132A      0.712558   133A      0.717537   134A      0.718352  
     135A      0.738623   136A      0.748666   137A      0.752170  
     138A      0.764955   139A      0.767677   140A      0.773747  
     141A      0.775720   142A      0.780016   143A      0.780079  
     144A      0.780911   145A      0.782919   146A      0.790272  
     147A      0.799240   148A      0.802598   149A      0.807296  
     150A      0.813548   151A      0.823578   152A      0.824819  
     153A      0.825720   154A      0.842847   155A      0.864226  
     156A      0.868038   157A      0.869328   158A      0.872366  
     159A      0.874010   160A      0.879581   161A      0.901276  
     162A      0.902473   163A      0.903508   164A      0.913957  
     165A      0.918449   166A      0.921651   167A      0.929864  
     168A      0.931971   169A      0.938800   170A      0.942826  
     171A      0.943726   172A      0.947048   173A      0.951145  
     174A      0.955380   175A      0.959827   176A      0.960077  
     177A      0.968316   178A      0.984946   179A      0.987851  
     180A      0.988595   181A      0.998022   182A      1.000423  
     183A      1.011526   184A      1.023714   185A      1.034760  
     186A      1.037595   187A      1.039460   188A      1.041943  
     189A      1.048731   190A      1.063364   191A      1.070514  
     192A      1.073244   193A      1.073469   194A      1.077781  
     195A      1.079575   196A      1.088229   197A      1.089868  
     198A      1.093467   199A      1.093605   200A      1.106796  
     201A      1.110849   202A      1.126856   203A      1.140895  
     204A      1.142319   205A      1.149530   206A      1.153394  
     207A      1.176010   208A      1.189372   209A      1.198484  
     210A      1.214834   211A      1.218481   212A      1.230655  
     213A      1.246367   214A      1.256655   215A      1.259273  
     216A      1.276427   217A      1.291400   218A      1.296874  
     219A      1.313754   220A      1.322757   221A      1.330519  
     222A      1.332331   223A      1.340869   224A      1.342179  
     225A      1.348722   226A      1.356060   227A      1.371976  
     228A      1.381418   229A      1.401251   230A      1.423443  
     231A      1.440045   232A      1.441445   233A      1.443207  
     234A      1.471604   235A      1.475210   236A      1.482093  
     237A      1.485814   238A      1.502499   239A      1.507740  
     240A      1.521244   241A      1.537998   242A      1.538762  
     243A      1.544215   244A      1.550502   245A      1.551592  
     246A      1.564364   247A      1.566607   248A      1.578502  
     249A      1.584877   250A      1.588287   251A      1.593384  
     252A      1.598021   253A      1.606556   254A      1.608670  
     255A      1.623386   256A      1.631217   257A      1.633810  
     258A      1.644330   259A      1.654240   260A      1.661084  
     261A      1.668806   262A      1.679759   263A      1.682636  
     264A      1.695568   265A      1.698078   266A      1.698535  
     267A      1.705517   268A      1.708985   269A      1.717190  
     270A      1.723762   271A      1.737778   272A      1.741368  
     273A      1.751208   274A      1.763839   275A      1.766501  
     276A      1.767456   277A      1.776357   278A      1.780746  
     279A      1.789162   280A      1.790130   281A      1.798139  
     282A      1.798840   283A      1.811737   284A      1.814603  
     285A      1.826479   286A      1.827401   287A      1.833737  
     288A      1.840332   289A      1.857636   290A      1.862079  
     291A      1.865286   292A      1.887654   293A      1.889433  
     294A      1.893974   295A      1.901523   296A      1.908007  
     297A      1.915909   298A      1.919064   299A      1.928869  
     300A      1.934028   301A      1.943395   302A      1.943818  
     303A      1.961557   304A      1.963842   305A      1.964538  
     306A      1.968110   307A      1.984373   308A      1.986322  
     309A      2.000924   310A      2.010428   311A      2.012823  
     312A      2.016594   313A      2.023471   314A      2.030081  
     315A      2.037976   316A      2.041933   317A      2.049490  
     318A      2.061683   319A      2.073332   320A      2.081698  
     321A      2.086707   322A      2.099479   323A      2.124952  
     324A      2.128845   325A      2.133907   326A      2.137705  
     327A      2.144637   328A      2.155852   329A      2.156228  
     330A      2.160273   331A      2.167371   332A      2.168959  
     333A      2.191592   334A      2.207128   335A      2.222372  
     336A      2.222826   337A      2.225706   338A      2.225901  
     339A      2.234859   340A      2.238212   341A      2.252466  
     342A      2.258541   343A      2.266685   344A      2.277745  
     345A      2.288583   346A      2.290745   347A      2.294747  
     348A      2.311831   349A      2.327901   350A      2.334546  
     351A      2.342492   352A      2.363024   353A      2.369329  
     354A      2.406355   355A      2.420269   356A      2.425290  
     357A      2.427867   358A      2.452386   359A      2.472199  
     360A      2.475321   361A      2.476687   362A      2.478872  
     363A      2.480603   364A      2.500369   365A      2.506685  
     366A      2.513276   367A      2.519189   368A      2.522126  
     369A      2.531659   370A      2.542507   371A      2.555115  
     372A      2.565555   373A      2.574876   374A      2.575402  
     375A      2.581402   376A      2.606318   377A      2.615615  
     378A      2.621378   379A      2.629997   380A      2.646962  
     381A      2.661392   382A      2.674598   383A      2.676430  
     384A      2.679357   385A      2.685473   386A      2.704283  
     387A      2.711457   388A      2.730835   389A      2.745559  
     390A      2.746180   391A      2.753667   392A      2.768208  
     393A      2.777930   394A      2.791093   395A      2.794831  
     396A      2.803413   397A      2.811462   398A      2.816358  
     399A      2.839928   400A      2.848853   401A      2.858346  
     402A      2.874689   403A      2.880945   404A      2.898700  
     405A      2.910001   406A      2.915566   407A      2.923149  
     408A      2.931485   409A      2.941392   410A      2.947259  
     411A      2.955380   412A      2.973438   413A      2.974199  
     414A      2.980164   415A      3.005995   416A      3.016362  
     417A      3.032000   418A      3.037233   419A      3.045578  
     420A      3.052153   421A      3.059298   422A      3.062830  
     423A      3.074231   424A      3.074560   425A      3.075643  
     426A      3.092291   427A      3.101934   428A      3.111929  
     429A      3.134035   430A      3.142619   431A      3.151249  
     432A      3.162697   433A      3.164701   434A      3.176105  
     435A      3.190648   436A      3.193172   437A      3.204037  
     438A      3.217370   439A      3.220422   440A      3.230421  
     441A      3.256860   442A      3.267247   443A      3.268890  
     444A      3.274484   445A      3.277151   446A      3.286906  
     447A      3.297351   448A      3.298678   449A      3.318373  
     450A      3.329697   451A      3.332269   452A      3.343562  
     453A      3.374468   454A      3.377371   455A      3.381811  
     456A      3.398507   457A      3.405750   458A      3.414699  
     459A      3.427274   460A      3.430689   461A      3.433780  
     462A      3.475674   463A      3.481228   464A      3.489035  
     465A      3.501992   466A      3.517434   467A      3.518876  
     468A      3.537247   469A      3.594043   470A      3.619918  
     471A      3.620465   472A      3.627799   473A      3.630187  
     474A      3.639755   475A      3.645171   476A      3.656365  
     477A      3.672118   478A      3.677285   479A      3.702748  
     480A      3.710704   481A      3.727254   482A      3.730216  
     483A      3.737187   484A      3.769494   485A      3.793545  
     486A      3.806543   487A      3.818070   488A      3.830050  
     489A      3.836430   490A      3.855618   491A      3.869756  
     492A      3.895519   493A      3.909438   494A      3.912982  
     495A      3.921953   496A      3.963942   497A      3.987667  
     498A      4.000861   499A      4.009920   500A      4.011158  
     501A      4.024684   502A      4.050500   503A      4.055862  
     504A      4.075240   505A      4.101956   506A      4.129095  
     507A      4.139713   508A      4.151748   509A      4.167388  
     510A      4.172088   511A      4.175563   512A      4.191595  
     513A      4.211441   514A      4.215540   515A      4.215937  
     516A      4.224305   517A      4.231680   518A      4.253031  
     519A      4.253986   520A      4.289259   521A      4.307224  
     522A      4.312454   523A      4.328522   524A      4.335525  
     525A      4.344219   526A      4.357742   527A      4.360758  
     528A      4.364861   529A      4.388896   530A      4.390797  
     531A      4.408293   532A      4.409172   533A      4.449855  
     534A      4.458042   535A      4.480059   536A      4.497869  
     537A      4.498041   538A      4.517665   539A      4.525215  
     540A      4.555727   541A      4.594743   542A      4.603256  
     543A      4.604267   544A      4.684046   545A      4.695950  
     546A      4.714522   547A      4.749678   548A      4.753815  
     549A      4.754773   550A      4.763399   551A      4.799684  
     552A      4.807608   553A      4.820092   554A      4.843842  
     555A      4.851703   556A      4.877349   557A      4.883110  
     558A      4.886433   559A      4.886741   560A      4.892008  
     561A      4.896981   562A      4.905107   563A      4.919821  
     564A      4.922430   565A      4.967353   566A      4.978732  
     567A      5.002258   568A      5.009997   569A      5.010273  
     570A      5.022101   571A      5.030781   572A      5.071146  
     573A      5.076882   574A      5.086043   575A      5.123745  
     576A      5.161409   577A      5.170038   578A      5.172751  
     579A      5.177013   580A      5.227956   581A      5.248193  
     582A      5.260955   583A      5.261887   584A      5.270593  
     585A      5.324654   586A      5.331267   587A      5.337421  
     588A      5.350809   589A      5.383213   590A      5.401647  
     591A      5.405898   592A      5.450533   593A      5.482659  
     594A      5.511743   595A      5.539070   596A      5.573190  
     597A      5.592404   598A      5.636470   599A      5.643368  
     600A      5.648397   601A      5.684675   602A      5.703397  
     603A      5.800687   604A      5.801332   605A      5.854550  
     606A      5.871249   607A      5.905727   608A      5.941844  
     609A      5.978236   610A      5.998286   611A      6.061196  
     612A      6.105865   613A      6.106924   614A      6.129780  
     615A      6.134026   616A      6.169156   617A      6.202738  
     618A      6.217452   619A      6.220870   620A      6.263559  
     621A      6.271653   622A      6.323605   623A      6.326310  
     624A      6.393611   625A      6.405841   626A      6.431710  
     627A      6.434951   628A      6.453248   629A      6.473136  
     630A      6.482363   631A      6.485190   632A      6.495580  
     633A      6.538689   634A      6.553268   635A      6.558053  
     636A      6.575646   637A      6.599524   638A      6.612578  
     639A      6.639024   640A      6.668309   641A      6.707384  
     642A      6.724628   643A      6.754114   644A      6.819672  
     645A      6.832334   646A      6.842511   647A      6.868049  
     648A      6.877451   649A      6.910308   650A      6.926700  
     651A      6.940250   652A      6.944089   653A      6.954805  
     654A      6.967963   655A      6.988390   656A      6.996551  
     657A      7.040065   658A      7.087663   659A      7.098120  
     660A      7.100557   661A      7.107570   662A      7.123985  
     663A      7.125707   664A      7.141466   665A      7.175341  
     666A      7.179058   667A      7.182876   668A      7.194927  
     669A      7.282354   670A      7.305931   671A      7.329394  
     672A      7.333884   673A      7.338842   674A      7.346326  
     675A      7.353140   676A      7.384706   677A      7.399725  
     678A      7.415577   679A      7.421105   680A      7.429348  
     681A      7.436679   682A      7.500074   683A      7.515368  
[...]
     511A      3.689503   512A      3.719041   513A      3.746336  
     514A      3.755003   515A      3.762345   516A      3.788241  
     517A      3.801214   518A      3.815653   519A      3.831220  
     520A      3.838255   521A      3.883208   522A      3.886111  
     523A      3.894032   524A      3.895117   525A      3.896003  
     526A      3.899105   527A      3.936700   528A      3.938098  
     529A      3.957724   530A      3.962476   531A      3.965157  
     532A      4.009226   533A      4.013105   534A      4.026070  
     535A      4.030335   536A      4.038372   537A      4.061033  
     538A      4.077195   539A      4.098327   540A      4.107309  
     541A      4.162934   542A      4.204872   543A      4.209067  
     544A      4.215334   545A      4.220946   546A      4.228797  
     547A      4.245003   548A      4.256373   549A      4.268690  
     550A      4.274860   551A      4.291710   552A      4.301021  
     553A      4.310072   554A      4.321594   555A      4.323605  
     556A      4.328767   557A      4.338500   558A      4.352703  
     559A      4.365239   560A      4.366252   561A      4.377082  
     562A      4.384704   563A      4.387937   564A      4.409567  
     565A      4.415767   566A      4.416330   567A      4.431578  
     568A      4.436256   569A      4.437624   570A      4.486495  
     571A      4.495196   572A      4.512133   573A      4.514428  
     574A      4.556607   575A      4.562807   576A      4.570879  
     577A      4.577770   578A      4.594351   579A      4.607075  
     580A      4.613164   581A      4.683884   582A      4.703025  
     583A      4.722811   584A      4.766132   585A      4.782626  
     586A      4.786800   587A      4.817502   588A      4.839903  
     589A      4.855351   590A      4.856294   591A      4.872768  
     592A      4.897928   593A      4.900941   594A      4.906087  
     595A      4.917738   596A      4.922486   597A      4.957949  
     598A      4.961793   599A      4.968155   600A      4.973345  
     601A      5.006683   602A      5.011487   603A      5.047692  
     604A      5.070651   605A      5.080060   606A      5.087829  
     607A      5.089400   608A      5.105545   609A      5.152288  
     610A      5.282346   611A      5.317565   612A      5.329163  
     613A      5.340500   614A      5.353369   615A      5.362264  
     616A      5.396189   617A      5.424796   618A      5.460771  
     619A      5.465878   620A      5.487025   621A      5.522417  
     622A      5.543787   623A      5.572495   624A      5.589292  
     625A      5.595551   626A      5.619101   627A      5.653516  
     628A      5.656858   629A      5.658557   630A      5.677736  
     631A      5.742922   632A      5.747358   633A      5.789714  
     634A      5.819091   635A      5.825558   636A      5.866389  
     637A      5.873570   638A      5.882822   639A      5.901156  
     640A      5.919078   641A      5.923225   642A      5.971628  
     643A      5.993113   644A      5.999277   645A      6.012382  
     646A      6.019834   647A      6.047145   648A      6.053133  
     649A      6.075448   650A      6.078522   651A      6.102548  
     652A      6.140785   653A      6.147696   654A      6.156954  
     655A      6.167677   656A      6.212782   657A      6.237939  
     658A      6.240982   659A      6.275198   660A      6.280602  
     661A      6.296171   662A      6.297188   663A      6.306604  
     664A      6.321131   665A      6.330934   666A      6.340692  
     667A      6.389239   668A      6.395718   669A      6.408781  
     670A      6.436487   671A      6.446148   672A      6.456596  
     673A      6.466379   674A      6.493422   675A      6.504259  
     676A      6.552972   677A      6.569989   678A      6.573887  
     679A      6.597516   680A      6.639533   681A      6.640964  
     682A      6.645271   683A      6.654767   684A      6.680641  
     685A      6.684984   686A      6.692751   687A      6.697070  
     688A      6.718122   689A      6.726627   690A      6.755726  
     691A      6.776987   692A      6.787931   693A      6.789975  
     694A      6.790434   695A      6.826135   696A      6.859338  
     697A      6.877367   698A      6.880076   699A      6.910178  
     700A      6.916522   701A      6.928385   702A      6.931991  
     703A      6.934509   704A      6.948580   705A      6.965852  
     706A      6.971373   707A      6.976487   708A      7.011271  
     709A      7.038659   710A      7.040122   711A      7.043806  
     712A      7.061013   713A      7.081379   714A      7.087616  
     715A      7.094388   716A      7.099766   717A      7.112772  
     718A      7.114181   719A      7.164638   720A      7.168592  
     721A      7.171661   722A      7.176693   723A      7.182507  
     724A      7.211232   725A      7.229009   726A      7.243228  
     727A      7.272486   728A      7.276348   729A      7.279030  
     730A      7.301708   731A      7.319699   732A      7.323437  
     733A      7.373272   734A      7.376655   735A      7.383512  
     736A      7.387358   737A      7.430391   738A      7.448982  
     739A      7.483106   740A      7.502397   741A      7.518991  
     742A      7.542965   743A      7.567661   744A      7.568719  
     745A      7.573837   746A      7.596479   747A      7.662028  
     748A      7.662516   749A      7.667350   750A      7.671631  
     751A      7.714951   752A      7.751719   753A      7.755745  
     754A      7.766155   755A      7.771520   756A      7.777369  
     757A      7.826604   758A      7.828931   759A      7.833028  
     760A      7.840716   761A      7.865432   762A      7.869862  
     763A      7.878081   764A      7.928704   765A      7.937657  
     766A      7.939163   767A      7.949223   768A      7.961948  
     769A      7.977420   770A      7.994484   771A      7.995489  
     772A      8.013235   773A      8.017705   774A      8.071273  
     775A      8.078704   776A      8.093367   777A      8.105907  
     778A      8.130293   779A      8.172934   780A      8.185801  
     781A      8.202431   782A      8.211131   783A      8.217256  
     784A      8.239335   785A      8.247338   786A      8.286682  
     787A      8.311338   788A      8.311766   789A      8.361134  
     790A      8.363800   791A      8.378394   792A      8.446559  
     793A      8.477350   794A      8.534078   795A      8.564946  
     796A      8.600471   797A      8.620501   798A      8.642355  
     799A      8.646470   800A      8.652962   801A      8.695294  
     802A      8.699461   803A      8.710581   804A      8.722421  
     805A      8.727478   806A      8.740624   807A      8.741624  
     808A      8.779271   809A      8.797676   810A      8.824822  
     811A      8.843428   812A      8.855796   813A      8.873811  
     814A      8.884863   815A      8.909603   816A      8.915276  
     817A      8.930270   818A      8.950636   819A      8.975636  
     820A      8.981882   821A      9.001285   822A      9.007828  
     823A      9.049344   824A      9.058825   825A      9.083315  
     826A      9.085532   827A      9.095739   828A      9.146826  
     829A      9.202463   830A      9.269041   831A      9.286559  
     832A      9.354099   833A      9.384661   834A      9.387917  
     835A      9.405445   836A      9.472381   837A      9.484364  
     838A      9.505281   839A      9.527167   840A      9.545234  
     841A      9.546825   842A      9.583491   843A      9.588443  
     844A      9.610439   845A      9.613565   846A      9.682225  
     847A      9.696630   848A      9.721556   849A      9.729608  
     850A      9.805077   851A      9.829708   852A      9.853110  
     853A      9.911211   854A      9.955438   855A      9.989345  
     856A      9.989655   857A     10.002365   858A     10.005686  
     859A     10.009142   860A     10.018301   861A     10.022836  
     862A     10.030694   863A     10.076756   864A     10.235683  
     865A     10.249205   866A     10.250996   867A     10.254523  
     868A     10.364254   869A     10.377543   870A     10.383557  
     871A     10.391961   872A     10.405872   873A     10.421722  
     874A     10.479447   875A     10.485734   876A     10.498161  
     877A     10.558665   878A     10.561876   879A     10.648553  
     880A     10.758146   881A     10.759148   882A     10.769918  
     883A     10.799132   884A     10.824581   885A     10.852647  
     886A     10.857949   887A     10.912596   888A     10.944956  
     889A     11.050295   890A     11.055079   891A     11.093843  
     892A     11.105765   893A     11.108580   894A     11.214748  
     895A     11.276075   896A     11.316322   897A     11.328525  
     898A     11.407881   899A     11.465814   900A     11.476102  
     901A     11.487016   902A     11.657077   903A     11.715910  
     904A     11.739387   905A     11.745072   906A     11.766247  
     907A     11.856808   908A     11.905954   909A     12.046181  
     910A     12.226761   911A     12.257083   912A     12.334050  
     913A     12.733992   914A     12.839042   915A     12.851589  
     916A     12.930989   917A     13.172721   918A     13.190415  
     919A     13.316040   920A     13.387562   921A     13.440335  
     922A     13.633389   923A     13.751492   924A     13.795142  
     925A     13.964144   926A     14.018433   927A     14.059018  
     928A     14.077741   929A     14.149877   930A     14.263029  
     931A     14.289363   932A     14.295874   933A     14.451126  
     934A     14.540775   935A     14.551382   936A     14.821214  
     937A     14.933881   938A     14.960447   939A     15.288098  
     940A     15.321389   941A     15.982197   942A     16.113298  
     943A     16.210921   944A     16.385650   945A     16.572982  
     946A     16.886772   947A     16.921122   948A     16.993303  
     949A     17.243771   950A     17.333395   951A     17.384085  
     952A     17.544930   953A     17.818386   954A     18.342619  
     955A     25.882699   956A     26.257877   957A     26.507254  
     958A     26.762233   959A     27.143098   960A     27.245664  
     961A     45.632379   962A     57.782845  

    Final Occupation by Irrep:
              A 
    DOCC [    30 ]

  @DF-RHF Final Energy:  -405.76024686900405

   => Energetics <=

    Nuclear Repulsion Energy =            330.3180495256075915
    One-Electron Energy =               -1209.7915938189782992
    Two-Electron Energy =                 473.7132974243666013
    Total Energy =                       -405.7602468690040496

Computation Completed


Properties will be evaluated at   0.000000,   0.000000,   0.000000 [a0]

Properties computed using the SCF density matrix

  Nuclear Dipole Moment: [e a0]
     X:    -2.3056      Y:     0.0999      Z:    -0.0018

  Electronic Dipole Moment: [e a0]
     X:     0.6709      Y:    -0.1155      Z:    -0.0011

  Dipole Moment: [e a0]
     X:    -1.6347      Y:    -0.0156      Z:    -0.0028     Total:     1.6348

  Dipole Moment: [D]
     X:    -4.1549      Y:    -0.0397      Z:    -0.0072     Total:     4.1551


*** tstop() called on node56.bme.utexas.edu at Sat Apr 11 17:04:19 2020
Module time:
	user time   =     353.30 seconds =       5.89 minutes
	system time =       5.42 seconds =       0.09 minutes
	total time  =         65 seconds =       1.08 minutes
Total time:
	user time   =    1961.45 seconds =      32.69 minutes
	system time =      36.62 seconds =       0.61 minutes
	total time  =        382 seconds =       6.37 minutes

*** tstart() called on node56.bme.utexas.edu
*** at Sat Apr 11 17:04:19 2020


  //>>>>>>>>>>>>>>>>>>>>>>>>>>>>>>>>>>>//
  //               DFMP2               //
  //<<<<<<<<<<<<<<<<<<<<<<<<<<<<<<<<<<<//

   => Loading Basis Set <=

    Name: (AUG-CC-PVQZ AUX)
    Role: RIFIT
    Keyword: DF_BASIS_MP2
    atoms 1           entry F          line   406 file /home/liuchw/anaconda3/envs/psi4env/share/psi4/basis/aug-cc-pvqz-ri.gbs 
    atoms 2-7         entry C          line   184 file /home/liuchw/anaconda3/envs/psi4env/share/psi4/basis/aug-cc-pvqz-ri.gbs 
    atoms 8-12, 14-15 entry H          line    30 file /home/liuchw/anaconda3/envs/psi4env/share/psi4/basis/aug-cc-pvqz-ri.gbs 
    atoms 13          entry O          line   332 file /home/liuchw/anaconda3/envs/psi4env/share/psi4/basis/aug-cc-pvqz-ri.gbs 

	 --------------------------------------------------------
	                          DF-MP2                         
	      2nd-Order Density-Fitted Moller-Plesset Theory     
	              RMP2 Wavefunction,   6 Threads             
	                                                         
	        Rob Parrish, Justin Turney, Andy Simmonett,      
	           Ed Hohenstein, and C. David Sherrill          
	 --------------------------------------------------------

   => Auxiliary Basis Set <=

  Basis Set: (AUG-CC-PVQZ AUX)
    Blend: AUG-CC-PVQZ-RI
    Number of shells: 428
    Number of basis function: 1904
    Number of Cartesian functions: 2631
    Spherical Harmonics?: true
    Max angular momentum: 5

	 --------------------------------------------------------
	                 NBF =   962, NAUX =  1904
	 --------------------------------------------------------
	   CLASS    FOCC     OCC    AOCC    AVIR     VIR    FVIR
	   PAIRS       0      30      30     932     932       0
	 --------------------------------------------------------

	-----------------------------------------------------------
	 ==================> DF-MP2 Energies <==================== 
	-----------------------------------------------------------
	 Reference Energy          =    -405.7602468690040496 [Eh]
	 Singles Energy            =      -0.0000000000000000 [Eh]
	 Same-Spin Energy          =      -0.4214236365575793 [Eh]
	 Opposite-Spin Energy      =      -1.3829230243040405 [Eh]
	 Correlation Energy        =      -1.8043466608616199 [Eh]
	 Total Energy              =    -407.5645935298656468 [Eh]
	-----------------------------------------------------------
	 ================> DF-SCS-MP2 Energies <================== 
	-----------------------------------------------------------
	 SCS Same-Spin Scale       =       0.3333333333333333 [-]
	 SCS Opposite-Spin Scale   =       1.2000000000000000 [-]
	 SCS Same-Spin Energy      =      -0.1404745455191931 [Eh]
	 SCS Opposite-Spin Energy  =      -1.6595076291648485 [Eh]
	 SCS Correlation Energy    =      -1.7999821746840416 [Eh]
	 SCS Total Energy          =    -407.5602290436880821 [Eh]
	-----------------------------------------------------------


*** tstop() called on node56.bme.utexas.edu at Sat Apr 11 17:05:00 2020
Module time:
	user time   =     201.22 seconds =       3.35 minutes
	system time =       3.66 seconds =       0.06 minutes
	total time  =         41 seconds =       0.68 minutes
Total time:
	user time   =    2162.68 seconds =      36.04 minutes
	system time =      40.28 seconds =       0.67 minutes
	total time  =        423 seconds =       7.05 minutes

  //>>>>>>>>>>>>>>>>>>>>>>>>>>>>>>>>>>>//
  //  CBS Results: mp2/aug-cc-pv[tq]z  //
  //<<<<<<<<<<<<<<<<<<<<<<<<<<<<<<<<<<<//


   ==> HF <==

   HI-zeta (4) Energy:               -405.760246869004


   ==> Helgaker 2-point correlated extrapolation for method: MP2 <==

   LO-zeta (3) Energy:               -407.354938795626
   HI-zeta (4) Energy:               -407.564593529866
   Alpha (exponent) Value:             3.000000000000
   Extrapolated Energy:              -407.717584822419

   @Extrapolated MP2/(T,Q):          -407.717584822419



   ==> Helgaker 2-point correlated extrapolation for method: HF <==

   LO-zeta (3) Energy:               -405.734855968560
   HI-zeta (4) Energy:               -405.760246869004
   Alpha (exponent) Value:             3.000000000000
   Extrapolated Energy:              -405.778775363922

   @Extrapolated HF/(T,Q):           -405.778775363922


   ==> Components <==

  ---------------------------------------------------------------------------------------------------------
                          Method / Basis                      Rqd      Energy [Eh]   Variable
  ---------------------------------------------------------------------------------------------------------
                              hf / aug-cc-pvtz                  *    -405.73485597   HF TOTAL ENERGY
                             mp2 / aug-cc-pvtz                  *    -407.35493880   MP2 TOTAL ENERGY
                              hf / aug-cc-pvqz                  *    -405.76024687   HF TOTAL ENERGY
                             mp2 / aug-cc-pvqz                  *    -407.56459353   MP2 TOTAL ENERGY
  ---------------------------------------------------------------------------------------------------------

   ==> Stages <==

  ---------------------------------------------------------------------------------------------------------
      Stage               Method / Basis                       Wt      Energy [Eh]   Scheme
  ---------------------------------------------------------------------------------------------------------
        scf                   hf / aug-cc-pvqz                  1    -405.76024687   xtpl_highest_1
       corl                  mp2 / aug-cc-pv[tq]z               1    -407.71758482   corl_xtpl_helgaker_2
       corl                   hf / aug-cc-pv[tq]z              -1    -405.77877536   corl_xtpl_helgaker_2
  ---------------------------------------------------------------------------------------------------------

   ==> CBS <==

  ---------------------------------------------------------------------------------------------------------
      Stage               Method / Basis                               Energy [Eh]   Scheme
  ---------------------------------------------------------------------------------------------------------
        scf                   hf / aug-cc-pvqz                       -405.76024687   xtpl_highest_1
       corl                  mp2 / aug-cc-pv[tq]z                      -1.93880946   corl_xtpl_helgaker_2
      total                  CBS                                     -407.69905633   
  ---------------------------------------------------------------------------------------------------------
   => Loading Basis Set <=

    Name: DEF2-SVP
    Role: ORBITAL
    Keyword: BASIS
    atoms 1           entry F          line   150 file /home/liuchw/anaconda3/envs/psi4env/share/psi4/basis/def2-svp.gbs 
    atoms 2-7         entry C          line    90 file /home/liuchw/anaconda3/envs/psi4env/share/psi4/basis/def2-svp.gbs 
    atoms 8-12, 14-15 entry H          line    15 file /home/liuchw/anaconda3/envs/psi4env/share/psi4/basis/def2-svp.gbs 
    atoms 13          entry O          line   130 file /home/liuchw/anaconda3/envs/psi4env/share/psi4/basis/def2-svp.gbs 


       N-Body: Complex Energy (fragments = (1, 2), basis = (1, 2):  -407.69905632750067)

   ==> N-Body: Counterpoise Corrected (CP) energies <==

   n-Body     Total Energy [Eh]       I.E. [kcal/mol]      Delta [kcal/mol]
        1     -407.696624524839        0.000000000000        0.000000000000
        2     -407.699101436398       -1.554285469285       -1.554285469285

   => Loading Basis Set <=

    Name: DEF2-SVP
    Role: ORBITAL
    Keyword: BASIS
    atoms 1           entry F          line   150 file /home/liuchw/anaconda3/envs/psi4env/share/psi4/basis/def2-svp.gbs 
    atoms 2-7         entry C          line    90 file /home/liuchw/anaconda3/envs/psi4env/share/psi4/basis/def2-svp.gbs 
    atoms 8-12, 14-15 entry H          line    15 file /home/liuchw/anaconda3/envs/psi4env/share/psi4/basis/def2-svp.gbs 
    atoms 13          entry O          line   130 file /home/liuchw/anaconda3/envs/psi4env/share/psi4/basis/def2-svp.gbs 


    Psi4 stopped on: Saturday, 11 April 2020 05:05PM
    Psi4 wall time for execution: 0:07:03.39

*** Psi4 exiting successfully. Buy a developer a beer!
