
    -----------------------------------------------------------------------
          Psi4: An Open-Source Ab Initio Electronic Structure Package
                               Psi4 1.4a2.dev224 

                         Git: Rev {master} e453b16 


    R. M. Parrish, L. A. Burns, D. G. A. Smith, A. C. Simmonett,
    A. E. DePrince III, E. G. Hohenstein, U. Bozkaya, A. Yu. Sokolov,
    R. Di Remigio, R. M. Richard, J. F. Gonthier, A. M. James,
    H. R. McAlexander, A. Kumar, M. Saitow, X. Wang, B. P. Pritchard,
    P. Verma, H. F. Schaefer III, K. Patkowski, R. A. King, E. F. Valeev,
    F. A. Evangelista, J. M. Turney, T. D. Crawford, and C. D. Sherrill,
    J. Chem. Theory Comput. 13(7) pp 3185--3197 (2017).
    (doi: 10.1021/acs.jctc.7b00174)


                         Additional Contributions by
    P. Kraus, H. Kruse, M. H. Lechner, M. C. Schieber, R. A. Shaw,
    A. Alenaizan, R. Galvelis, Z. L. Glick, S. Lehtola, and J. P. Misiewicz

    -----------------------------------------------------------------------


    Psi4 started on: Thursday, 23 April 2020 06:48PM

    Process ID: 83344
    Host:       node92.bme.utexas.edu
    PSIDATADIR: /home/liuchw/anaconda3/envs/psi4env/share/psi4
    Memory:     500.0 MiB
    Threads:    8
    
  ==> Input File <==

--------------------------------------------------------------------------
#Generated by lconvert.py for cbs job

memory 20 GB

molecule  {
0 1
 Cl       2.012920   -0.141110    0.000050
  C       0.280810   -0.072100    0.000010
  C      -0.357850    1.165540   -0.000030
  C      -0.451000   -1.257040    0.000010
  C      -1.749820    1.212160   -0.000060
  C      -1.842360   -1.196210   -0.000020
  C      -2.494930    0.034880   -0.000050
  H       0.231200    2.071140   -0.000030
  H       0.067210   -2.204960    0.000040
  H      -2.250000    2.170870   -0.000090
  H      -2.414680   -2.113650   -0.000020
  H      -3.575010    0.076430   -0.000080
--
0 1
  O       7.335510   -0.347980    0.000140
  H       7.595370    0.184660    0.754200
  H       7.595360    0.184650   -0.753940
units angstrom
no_reorient
symmetry c1
}

set {
scf_type DF
mp2_type DF
e_convergence 7
reference rhf
}

energy('mp2/aug-cc-pv[tq]z', bsse_type='cp')
--------------------------------------------------------------------------

  Memory set to  18.626 GiB by Python driver.

Scratch directory: /scratch/liuchw/


   ===> N-Body Interaction Abacus <===
        BSSE Treatment:                     cp
        Number of 1-body computations:     4
        Number of 2-body computations:     1

   ==> N-Body: Now computing 1-body complexes <==


       N-Body: Computing complex (1/4) with fragments (2,) in the basis of fragments (2,).


Scratch directory: /scratch/liuchw/

  //>>>>>>>>>>>>>>>>>>>>>>>>>>>>>>>>>>>//
  //   CBS Setup: mp2/aug-cc-pv[tq]z   //
  //<<<<<<<<<<<<<<<<<<<<<<<<<<<<<<<<<<<//

    Naive listing of computations required.
             hf / aug-cc-pvqz              for  HF TOTAL ENERGY
            mp2 / aug-cc-pvtz              for  MP2 TOTAL ENERGY
            mp2 / aug-cc-pvqz              for  MP2 TOTAL ENERGY
             hf / aug-cc-pvtz              for  HF TOTAL ENERGY
             hf / aug-cc-pvqz              for  HF TOTAL ENERGY

    Enlightened listing of computations required.
            mp2 / aug-cc-pvtz              for  MP2 TOTAL ENERGY
            mp2 / aug-cc-pvqz              for  MP2 TOTAL ENERGY

    Full listing of computations to be obtained (required and bonus).
             hf / aug-cc-pvtz              for  HF TOTAL ENERGY
            mp2 / aug-cc-pvtz              for  MP2 TOTAL ENERGY
             hf / aug-cc-pvqz              for  HF TOTAL ENERGY
            mp2 / aug-cc-pvqz              for  MP2 TOTAL ENERGY

  //>>>>>>>>>>>>>>>>>>>>>>>>>>>>>>>>>>>>//
  // CBS Computation: MP2 / AUG-CC-PVTZ //
  //<<<<<<<<<<<<<<<<<<<<<<<<<<<<<<<<<<<<//


Scratch directory: /scratch/liuchw/

*** tstart() called on node92.bme.utexas.edu
*** at Thu Apr 23 18:48:19 2020

   => Loading Basis Set <=

    Name: AUG-CC-PVTZ
    Role: ORBITAL
    Keyword: BASIS
    atoms 1   entry O          line   331 file /home/liuchw/anaconda3/envs/psi4env/share/psi4/basis/aug-cc-pvtz.gbs 
    atoms 2-3 entry H          line    40 file /home/liuchw/anaconda3/envs/psi4env/share/psi4/basis/aug-cc-pvtz.gbs 


         ---------------------------------------------------------
                                   SCF
               by Justin Turney, Rob Parrish, Andy Simmonett
                          and Daniel G. A. Smith
                              RHF Reference
                        8 Threads,  19073 MiB Core
         ---------------------------------------------------------

  ==> Geometry <==

    Molecular point group: c1
    Full point group: C1

    Geometry (in Angstrom), charge = 0, multiplicity = 1:

       Center              X                  Y                   Z               Mass       
    ------------   -----------------  -----------------  -----------------  -----------------
         O            6.446061971944    -0.259672775233     0.000121630646    15.994914619570
         H            6.705921971944     0.272967224767     0.754181630646     1.007825032230
         H            6.705911971944     0.272957224767    -0.753958369354     1.007825032230

  Running in c1 symmetry.

  Rotational constants: A =     10.10142  B =      0.02228  C =      0.02227 [cm^-1]
  Rotational constants: A = 302832.90742  B =    668.06016  C =    667.51005 [MHz]
  Nuclear repulsion =    9.178904573848243

  Charge       = 0
  Multiplicity = 1
  Electrons    = 10
  Nalpha       = 5
  Nbeta        = 5

  ==> Algorithm <==

  SCF Algorithm Type is DF.
  DIIS enabled.
  MOM disabled.
  Fractional occupation disabled.
  Guess Type is SAD.
  Energy threshold   = 1.00e-07
  Density threshold  = 1.00e-08
  Integral threshold = 0.00e+00

  ==> Primary Basis <==

  Basis Set: AUG-CC-PVTZ
    Blend: AUG-CC-PVTZ
    Number of shells: 32
    Number of basis function: 92
    Number of Cartesian functions: 105
    Spherical Harmonics?: true
    Max angular momentum: 3

   => Loading Basis Set <=

    Name: (AUG-CC-PVTZ AUX)
    Role: JKFIT
    Keyword: DF_BASIS_SCF
    atoms 1   entry O          line   286 file /home/liuchw/anaconda3/envs/psi4env/share/psi4/basis/aug-cc-pvtz-jkfit.gbs 
    atoms 2-3 entry H          line    70 file /home/liuchw/anaconda3/envs/psi4env/share/psi4/basis/aug-cc-pvtz-jkfit.gbs 

  ==> Pre-Iterations <==

   -------------------------------------------------------
    Irrep   Nso     Nmo     Nalpha   Nbeta   Ndocc  Nsocc
   -------------------------------------------------------
     A         92      92       0       0       0       0
   -------------------------------------------------------
    Total      92      92       5       5       5       0
   -------------------------------------------------------

  ==> Integral Setup <==

  DFHelper Memory: AOs need 0.015 GiB; user supplied 13.970 GiB. Using in-core AOs.

  ==> MemDFJK: Density-Fitted J/K Matrices <==

    J tasked:                   Yes
    K tasked:                   Yes
    wK tasked:                   No
    OpenMP threads:               8
    Memory [MiB]:             14305
    Algorithm:                 Core
    Schwarz Cutoff:           1E-12
    Mask sparsity (%):       0.0000
    Fitting Condition:        1E-10

   => Auxiliary Basis Set <=

  Basis Set: (AUG-CC-PVTZ AUX)
    Blend: AUG-CC-PVTZ-JKFIT
    Number of shells: 58
    Number of basis function: 196
    Number of Cartesian functions: 241
    Spherical Harmonics?: true
    Max angular momentum: 4

  Minimum eigenvalue in the overlap matrix is 3.8755570801E-04.
  Using Symmetric Orthogonalization.

  SCF Guess: Superposition of Atomic Densities via on-the-fly atomic UHF.

  ==> Iterations <==

                           Total Energy        Delta E     RMS |[F,P]|

   @DF-RHF iter SAD:   -75.47680370845642   -7.54768e+01   0.00000e+00 
   @DF-RHF iter   1:   -75.97600010772589   -4.99196e-01   5.09281e-03 DIIS
   @DF-RHF iter   2:   -76.02853067416709   -5.25306e-02   3.47218e-03 DIIS
   @DF-RHF iter   3:   -76.05999270232938   -3.14620e-02   2.35784e-04 DIIS
   @DF-RHF iter   4:   -76.06038037308009   -3.87671e-04   5.63846e-05 DIIS
   @DF-RHF iter   5:   -76.06040455423282   -2.41812e-05   1.28042e-05 DIIS
   @DF-RHF iter   6:   -76.06040653026797   -1.97604e-06   2.79889e-06 DIIS
   @DF-RHF iter   7:   -76.06040663405717   -1.03789e-07   5.02327e-07 DIIS
   @DF-RHF iter   8:   -76.06040663699619   -2.93902e-09   8.41168e-08 DIIS
   @DF-RHF iter   9:   -76.06040663706041   -6.42189e-11   2.05260e-08 DIIS
   @DF-RHF iter  10:   -76.06040663706393   -3.52429e-12   3.03992e-09 DIIS
  Energy and wave function converged.


  ==> Post-Iterations <==

    Orbital Energies [Eh]
    ---------------------

    Doubly Occupied:                                                      

       1A    -20.567892     2A     -1.353262     3A     -0.715190  
       4A     -0.586246     5A     -0.510455  

    Virtual:                                                              

       6A      0.029360     7A      0.047729     8A      0.135822  
       9A      0.158743    10A      0.175326    11A      0.183178  
      12A      0.227185    13A      0.245093    14A      0.265590  
      15A      0.299676    16A      0.309942    17A      0.365954  
      18A      0.437815    19A      0.466463    20A      0.599049  
      21A      0.659169    22A      0.707753    23A      0.723011  
      24A      0.731616    25A      0.831723    26A      0.847040  
      27A      0.892028    28A      0.913018    29A      0.917501  
      30A      0.922908    31A      0.931446    32A      0.960814  
      33A      1.021731    34A      1.043788    35A      1.082693  
      36A      1.108609    37A      1.177243    38A      1.183261  
      39A      1.260320    40A      1.510788    41A      1.531706  
      42A      1.582907    43A      1.804942    44A      1.826063  
      45A      1.985386    46A      2.120224    47A      2.263552  
      48A      2.316384    49A      2.326980    50A      2.419076  
      51A      2.421982    52A      2.443640    53A      2.480813  
      54A      2.674906    55A      2.697413    56A      2.774554  
      57A      2.812095    58A      2.885491    59A      3.657240  
      60A      3.740779    61A      4.022266    62A      4.085139  
      63A      4.159801    64A      4.253510    65A      4.283245  
      66A      4.371234    67A      4.378350    68A      4.407833  
      69A      4.522204    70A      4.729924    71A      4.851968  
      72A      5.153677    73A      5.157669    74A      5.249705  
      75A      5.331534    76A      5.530522    77A      5.661403  
      78A      6.185931    79A      6.514119    80A      6.715234  
      81A      6.912304    82A      7.137645    83A      7.260516  
      84A      7.300469    85A      7.321860    86A      7.339703  
      87A      7.361206    88A      7.540233    89A      7.898809  
      90A      7.935765    91A      8.820015    92A     15.774677  

    Final Occupation by Irrep:
              A 
    DOCC [     5 ]

  @DF-RHF Final Energy:   -76.06040663706393

   => Energetics <=

    Nuclear Repulsion Energy =              9.1789045738482429
    One-Electron Energy =                -123.0125320946946630
    Two-Electron Energy =                  37.7732208837824786
    Total Energy =                        -76.0604066370639487

Computation Completed


Properties will be evaluated at   0.000000,   0.000000,   0.000000 [a0]

Properties computed using the SCF density matrix

  Nuclear Dipole Moment: [e a0]
     X:   122.7950      Y:    -2.8940      Z:     0.0023

  Electronic Dipole Moment: [e a0]
     X:  -122.4504      Y:     3.6005      Z:    -0.0023

  Dipole Moment: [e a0]
     X:     0.3447      Y:     0.7065      Z:    -0.0000     Total:     0.7861

  Dipole Moment: [D]
     X:     0.8760      Y:     1.7957      Z:    -0.0000     Total:     1.9980


*** tstop() called on node92.bme.utexas.edu at Thu Apr 23 18:48:20 2020
Module time:
	user time   =       7.71 seconds =       0.13 minutes
	system time =       0.29 seconds =       0.00 minutes
	total time  =          1 seconds =       0.02 minutes
Total time:
	user time   =       7.71 seconds =       0.13 minutes
	system time =       0.29 seconds =       0.00 minutes
	total time  =          1 seconds =       0.02 minutes

*** tstart() called on node92.bme.utexas.edu
*** at Thu Apr 23 18:48:20 2020


  //>>>>>>>>>>>>>>>>>>>>>>>>>>>>>>>>>>>//
  //               DFMP2               //
  //<<<<<<<<<<<<<<<<<<<<<<<<<<<<<<<<<<<//

   => Loading Basis Set <=

    Name: (AUG-CC-PVTZ AUX)
    Role: RIFIT
    Keyword: DF_BASIS_MP2
    atoms 1   entry O          line   264 file /home/liuchw/anaconda3/envs/psi4env/share/psi4/basis/aug-cc-pvtz-ri.gbs 
    atoms 2-3 entry H          line    30 file /home/liuchw/anaconda3/envs/psi4env/share/psi4/basis/aug-cc-pvtz-ri.gbs 

	 --------------------------------------------------------
	                          DF-MP2                         
	      2nd-Order Density-Fitted Moller-Plesset Theory     
	              RMP2 Wavefunction,   8 Threads             
	                                                         
	        Rob Parrish, Justin Turney, Andy Simmonett,      
	           Ed Hohenstein, and C. David Sherrill          
	 --------------------------------------------------------

   => Auxiliary Basis Set <=

  Basis Set: (AUG-CC-PVTZ AUX)
    Blend: AUG-CC-PVTZ-RI
    Number of shells: 56
    Number of basis function: 198
    Number of Cartesian functions: 246
    Spherical Harmonics?: true
    Max angular momentum: 4

	 --------------------------------------------------------
	                 NBF =    92, NAUX =   198
	 --------------------------------------------------------
	   CLASS    FOCC     OCC    AOCC    AVIR     VIR    FVIR
	   PAIRS       0       5       5      87      87       0
	 --------------------------------------------------------

	-----------------------------------------------------------
	 ==================> DF-MP2 Energies <==================== 
	-----------------------------------------------------------
	 Reference Energy          =     -76.0604066370639345 [Eh]
	 Singles Energy            =      -0.0000000000000000 [Eh]
	 Same-Spin Energy          =      -0.0683838160419109 [Eh]
	 Opposite-Spin Energy      =      -0.2152929998478732 [Eh]
	 Correlation Energy        =      -0.2836768158897841 [Eh]
	 Total Energy              =     -76.3440834529537256 [Eh]
	-----------------------------------------------------------
	 ================> DF-SCS-MP2 Energies <================== 
	-----------------------------------------------------------
	 SCS Same-Spin Scale       =       0.3333333333333333 [-]
	 SCS Opposite-Spin Scale   =       1.2000000000000000 [-]
	 SCS Same-Spin Energy      =      -0.0227946053473036 [Eh]
	 SCS Opposite-Spin Energy  =      -0.2583515998174479 [Eh]
	 SCS Correlation Energy    =      -0.2811462051647515 [Eh]
	 SCS Total Energy          =     -76.3415528422286798 [Eh]
	-----------------------------------------------------------


*** tstop() called on node92.bme.utexas.edu at Thu Apr 23 18:48:21 2020
Module time:
	user time   =       3.62 seconds =       0.06 minutes
	system time =       0.12 seconds =       0.00 minutes
	total time  =          1 seconds =       0.02 minutes
Total time:
	user time   =      11.34 seconds =       0.19 minutes
	system time =       0.41 seconds =       0.01 minutes
	total time  =          2 seconds =       0.03 minutes

  //>>>>>>>>>>>>>>>>>>>>>>>>>>>>>>>>>>>>//
  // CBS Computation: MP2 / AUG-CC-PVQZ //
  //<<<<<<<<<<<<<<<<<<<<<<<<<<<<<<<<<<<<//


Scratch directory: /scratch/liuchw/

*** tstart() called on node92.bme.utexas.edu
*** at Thu Apr 23 18:48:21 2020

   => Loading Basis Set <=

    Name: AUG-CC-PVQZ
    Role: ORBITAL
    Keyword: BASIS
    atoms 1   entry O          line   423 file /home/liuchw/anaconda3/envs/psi4env/share/psi4/basis/aug-cc-pvqz.gbs 
    atoms 2-3 entry H          line    40 file /home/liuchw/anaconda3/envs/psi4env/share/psi4/basis/aug-cc-pvqz.gbs 


         ---------------------------------------------------------
                                   SCF
               by Justin Turney, Rob Parrish, Andy Simmonett
                          and Daniel G. A. Smith
                              RHF Reference
                        8 Threads,  19073 MiB Core
         ---------------------------------------------------------

  ==> Geometry <==

    Molecular point group: c1
    Full point group: C1

    Geometry (in Angstrom), charge = 0, multiplicity = 1:

       Center              X                  Y                   Z               Mass       
    ------------   -----------------  -----------------  -----------------  -----------------
         O            6.446061971944    -0.259672775233     0.000121630646    15.994914619570
         H            6.705921971944     0.272967224767     0.754181630646     1.007825032230
         H            6.705911971944     0.272957224767    -0.753958369354     1.007825032230

  Running in c1 symmetry.

  Rotational constants: A =     10.10142  B =      0.02228  C =      0.02227 [cm^-1]
  Rotational constants: A = 302832.90742  B =    668.06016  C =    667.51005 [MHz]
  Nuclear repulsion =    9.178904573848243

  Charge       = 0
  Multiplicity = 1
  Electrons    = 10
  Nalpha       = 5
  Nbeta        = 5

  ==> Algorithm <==

  SCF Algorithm Type is DF.
  DIIS enabled.
  MOM disabled.
  Fractional occupation disabled.
  Guess Type is SAD.
  Energy threshold   = 1.00e-07
  Density threshold  = 1.00e-08
  Integral threshold = 0.00e+00

  ==> Primary Basis <==

  Basis Set: AUG-CC-PVQZ
    Blend: AUG-CC-PVQZ
    Number of shells: 48
    Number of basis function: 172
    Number of Cartesian functions: 215
    Spherical Harmonics?: true
    Max angular momentum: 4

   => Loading Basis Set <=

    Name: (AUG-CC-PVQZ AUX)
    Role: JKFIT
    Keyword: DF_BASIS_SCF
    atoms 1   entry O          line   318 file /home/liuchw/anaconda3/envs/psi4env/share/psi4/basis/aug-cc-pvqz-jkfit.gbs 
    atoms 2-3 entry H          line    70 file /home/liuchw/anaconda3/envs/psi4env/share/psi4/basis/aug-cc-pvqz-jkfit.gbs 

  ==> Pre-Iterations <==

   -------------------------------------------------------
    Irrep   Nso     Nmo     Nalpha   Nbeta   Ndocc  Nsocc
   -------------------------------------------------------
     A        172     172       0       0       0       0
   -------------------------------------------------------
    Total     172     172       5       5       5       0
   -------------------------------------------------------

  ==> Integral Setup <==

  DFHelper Memory: AOs need 0.074 GiB; user supplied 13.970 GiB. Using in-core AOs.

  ==> MemDFJK: Density-Fitted J/K Matrices <==

    J tasked:                   Yes
    K tasked:                   Yes
    wK tasked:                   No
    OpenMP threads:               8
    Memory [MiB]:             14305
    Algorithm:                 Core
    Schwarz Cutoff:           1E-12
    Mask sparsity (%):       0.0000
    Fitting Condition:        1E-10

   => Auxiliary Basis Set <=

  Basis Set: (AUG-CC-PVQZ AUX)
    Blend: AUG-CC-PVQZ-JKFIT
    Number of shells: 70
    Number of basis function: 294
    Number of Cartesian functions: 400
    Spherical Harmonics?: true
    Max angular momentum: 5

  Minimum eigenvalue in the overlap matrix is 8.7048477700E-05.
  Using Symmetric Orthogonalization.

  SCF Guess: Superposition of Atomic Densities via on-the-fly atomic UHF.

  ==> Iterations <==

                           Total Energy        Delta E     RMS |[F,P]|

   @DF-RHF iter SAD:   -75.48194600380563   -7.54819e+01   0.00000e+00 
   @DF-RHF iter   1:   -75.98108214469967   -4.99136e-01   2.72989e-03 DIIS
   @DF-RHF iter   2:   -76.03371329866259   -5.26312e-02   1.86543e-03 DIIS
   @DF-RHF iter   3:   -76.06537448210916   -3.16612e-02   1.27072e-04 DIIS
   @DF-RHF iter   4:   -76.06576422793573   -3.89746e-04   3.10647e-05 DIIS
   @DF-RHF iter   5:   -76.06578929790825   -2.50700e-05   7.03055e-06 DIIS
   @DF-RHF iter   6:   -76.06579135518670   -2.05728e-06   1.57919e-06 DIIS
   @DF-RHF iter   7:   -76.06579147031204   -1.15125e-07   2.93236e-07 DIIS
   @DF-RHF iter   8:   -76.06579147379844   -3.48641e-09   4.71437e-08 DIIS
   @DF-RHF iter   9:   -76.06579147387136   -7.29159e-11   1.12441e-08 DIIS
   @DF-RHF iter  10:   -76.06579147387539   -4.03588e-12   1.69603e-09 DIIS
  Energy and wave function converged.


  ==> Post-Iterations <==

    Orbital Energies [Eh]
    ---------------------

    Doubly Occupied:                                                      

       1A    -20.565441     2A     -1.352533     3A     -0.715156  
       4A     -0.586294     5A     -0.510587  

    Virtual:                                                              

       6A      0.026880     7A      0.043122     8A      0.114068  
       9A      0.133477    10A      0.151198    11A      0.158744  
      12A      0.184961    13A      0.197124    14A      0.209429  
      15A      0.237239    16A      0.256946    17A      0.291756  
      18A      0.357896    19A      0.390236    20A      0.469720  
      21A      0.508977    22A      0.542023    23A      0.547836  
      24A      0.556335    25A      0.614503    26A      0.632268  
      27A      0.647189    28A      0.663366    29A      0.665586  
      30A      0.684510    31A      0.706496    32A      0.719507  
      33A      0.769894    34A      0.789711    35A      0.802307  
      36A      0.803135    37A      0.843033    38A      0.853933  
      39A      0.967906    40A      1.122457    41A      1.136987  
      42A      1.209348    43A      1.332569    44A      1.441492  
      45A      1.482946    46A      1.509610    47A      1.513649  
      48A      1.526260    49A      1.554037    50A      1.589536  
      51A      1.621299    52A      1.638530    53A      1.662223  
      54A      1.664272    55A      1.688427    56A      1.702843  
      57A      1.736888    58A      1.751743    59A      1.766338  
      60A      1.775734    61A      1.844355    62A      1.864524  
      63A      1.895023    64A      1.916644    65A      1.984335  
      66A      2.007714    67A      2.033837    68A      2.039926  
      69A      2.099282    70A      2.206102    71A      2.216275  
      72A      2.314603    73A      2.436488    74A      2.627861  
      75A      2.633378    76A      2.888573    77A      2.960351  
      78A      2.995389    79A      3.041467    80A      3.056646  
      81A      3.086847    82A      3.268088    83A      3.307152  
      84A      3.310788    85A      3.489626    86A      3.588413  
      87A      3.643538    88A      3.688017    89A      3.720830  
      90A      3.782569    91A      3.923164    92A      4.078759  
      93A      4.166062    94A      4.167414    95A      4.178236  
      96A      4.178713    97A      4.231738    98A      4.330089  
      99A      4.432774   100A      4.582379   101A      4.731299  
     102A      4.746066   103A      4.778805   104A      4.781329  
     105A      4.810649   106A      4.879694   107A      4.995903  
     108A      5.236158   109A      5.313884   110A      5.524857  
     111A      5.537994   112A      5.860352   113A      5.891184  
     114A      6.075346   115A      6.237418   116A      6.824455  
     117A      6.887698   118A      6.891869   119A      6.907819  
     120A      7.733561   121A      7.780215   122A      7.785580  
     123A      7.822986   124A      7.841493   125A      7.900939  
     126A      7.925137   127A      8.022982   128A      8.166376  
     129A      8.202447   130A      8.533914   131A      8.625818  
     132A      8.654623   133A      8.692993   134A      8.791598  
     135A      8.848387   136A      8.985993   137A      9.042798  
     138A      9.225442   139A      9.674109   140A      9.908476  
     141A      9.922189   142A      9.946966   143A      9.994814  
     144A     10.328847   145A     10.452904   146A     10.675431  
     147A     11.019268   148A     11.071595   149A     11.093743  
     150A     11.269586   151A     11.310288   152A     11.414421  
     153A     11.717893   154A     11.797042   155A     11.830534  
     156A     11.990746   157A     12.205010   158A     12.209280  
     159A     12.630251   160A     12.744531   161A     12.834202  
     162A     12.910208   163A     13.174965   164A     14.008032  
     165A     14.019020   166A     14.515037   167A     14.813250  
     168A     14.912121   169A     15.264923   170A     16.846241  
     171A     17.300486   172A     45.511027  

    Final Occupation by Irrep:
              A 
    DOCC [     5 ]

  @DF-RHF Final Energy:   -76.06579147387539

   => Energetics <=

    Nuclear Repulsion Energy =              9.1789045738482429
    One-Electron Energy =                -123.0293683222674588
    Two-Electron Energy =                  37.7846722745438228
    Total Energy =                        -76.0657914738753931

Computation Completed


Properties will be evaluated at   0.000000,   0.000000,   0.000000 [a0]

Properties computed using the SCF density matrix

  Nuclear Dipole Moment: [e a0]
     X:   122.7950      Y:    -2.8940      Z:     0.0023

  Electronic Dipole Moment: [e a0]
     X:  -122.4507      Y:     3.5997      Z:    -0.0023

  Dipole Moment: [e a0]
     X:     0.3443      Y:     0.7057      Z:    -0.0000     Total:     0.7852

  Dipole Moment: [D]
     X:     0.8751      Y:     1.7937      Z:    -0.0000     Total:     1.9958


*** tstop() called on node92.bme.utexas.edu at Thu Apr 23 18:48:23 2020
Module time:
	user time   =      11.59 seconds =       0.19 minutes
	system time =       0.34 seconds =       0.01 minutes
	total time  =          2 seconds =       0.03 minutes
Total time:
	user time   =      22.97 seconds =       0.38 minutes
	system time =       0.75 seconds =       0.01 minutes
	total time  =          4 seconds =       0.07 minutes

*** tstart() called on node92.bme.utexas.edu
*** at Thu Apr 23 18:48:23 2020


  //>>>>>>>>>>>>>>>>>>>>>>>>>>>>>>>>>>>//
  //               DFMP2               //
  //<<<<<<<<<<<<<<<<<<<<<<<<<<<<<<<<<<<//

   => Loading Basis Set <=

    Name: (AUG-CC-PVQZ AUX)
    Role: RIFIT
    Keyword: DF_BASIS_MP2
    atoms 1   entry O          line   332 file /home/liuchw/anaconda3/envs/psi4env/share/psi4/basis/aug-cc-pvqz-ri.gbs 
    atoms 2-3 entry H          line    30 file /home/liuchw/anaconda3/envs/psi4env/share/psi4/basis/aug-cc-pvqz-ri.gbs 

	 --------------------------------------------------------
	                          DF-MP2                         
	      2nd-Order Density-Fitted Moller-Plesset Theory     
	              RMP2 Wavefunction,   8 Threads             
	                                                         
	        Rob Parrish, Justin Turney, Andy Simmonett,      
	           Ed Hohenstein, and C. David Sherrill          
	 --------------------------------------------------------

   => Auxiliary Basis Set <=

  Basis Set: (AUG-CC-PVQZ AUX)
    Blend: AUG-CC-PVQZ-RI
    Number of shells: 76
    Number of basis function: 328
    Number of Cartesian functions: 447
    Spherical Harmonics?: true
    Max angular momentum: 5

	 --------------------------------------------------------
	                 NBF =   172, NAUX =   328
	 --------------------------------------------------------
	   CLASS    FOCC     OCC    AOCC    AVIR     VIR    FVIR
	   PAIRS       0       5       5     167     167       0
	 --------------------------------------------------------

	-----------------------------------------------------------
	 ==================> DF-MP2 Energies <==================== 
	-----------------------------------------------------------
	 Reference Energy          =     -76.0657914738753931 [Eh]
	 Singles Energy            =      -0.0000000000000000 [Eh]
	 Same-Spin Energy          =      -0.0727120239437631 [Eh]
	 Opposite-Spin Energy      =      -0.2442301322235656 [Eh]
	 Correlation Energy        =      -0.3169421561673287 [Eh]
	 Total Energy              =     -76.3827336300427220 [Eh]
	-----------------------------------------------------------
	 ================> DF-SCS-MP2 Energies <================== 
	-----------------------------------------------------------
	 SCS Same-Spin Scale       =       0.3333333333333333 [-]
	 SCS Opposite-Spin Scale   =       1.2000000000000000 [-]
	 SCS Same-Spin Energy      =      -0.0242373413145877 [Eh]
	 SCS Opposite-Spin Energy  =      -0.2930761586682787 [Eh]
	 SCS Correlation Energy    =      -0.3173134999828665 [Eh]
	 SCS Total Energy          =     -76.3831049738582664 [Eh]
	-----------------------------------------------------------


*** tstop() called on node92.bme.utexas.edu at Thu Apr 23 18:48:24 2020
Module time:
	user time   =       4.48 seconds =       0.07 minutes
	system time =       0.15 seconds =       0.00 minutes
	total time  =          1 seconds =       0.02 minutes
Total time:
	user time   =      27.46 seconds =       0.46 minutes
	system time =       0.90 seconds =       0.02 minutes
	total time  =          5 seconds =       0.08 minutes

  //>>>>>>>>>>>>>>>>>>>>>>>>>>>>>>>>>>>//
  //  CBS Results: mp2/aug-cc-pv[tq]z  //
  //<<<<<<<<<<<<<<<<<<<<<<<<<<<<<<<<<<<//


   ==> HF <==

   HI-zeta (4) Energy:               -76.065791473875


   ==> Helgaker 2-point correlated extrapolation for method: MP2 <==

   LO-zeta (3) Energy:               -76.344083452954
   HI-zeta (4) Energy:               -76.382733630043
   Alpha (exponent) Value:             3.000000000000
   Extrapolated Energy:              -76.410937813324

   @Extrapolated MP2/(T,Q):          -76.410937813324



   ==> Helgaker 2-point correlated extrapolation for method: HF <==

   LO-zeta (3) Energy:               -76.060406637064
   HI-zeta (4) Energy:               -76.065791473875
   Alpha (exponent) Value:             3.000000000000
   Extrapolated Energy:              -76.069720949386

   @Extrapolated HF/(T,Q):           -76.069720949386


   ==> Components <==

  ---------------------------------------------------------------------------------------------------------
                          Method / Basis                      Rqd      Energy [Eh]   Variable
  ---------------------------------------------------------------------------------------------------------
                              hf / aug-cc-pvtz                  *     -76.06040664   HF TOTAL ENERGY
                             mp2 / aug-cc-pvtz                  *     -76.34408345   MP2 TOTAL ENERGY
                              hf / aug-cc-pvqz                  *     -76.06579147   HF TOTAL ENERGY
                             mp2 / aug-cc-pvqz                  *     -76.38273363   MP2 TOTAL ENERGY
  ---------------------------------------------------------------------------------------------------------

   ==> Stages <==

  ---------------------------------------------------------------------------------------------------------
      Stage               Method / Basis                       Wt      Energy [Eh]   Scheme
  ---------------------------------------------------------------------------------------------------------
        scf                   hf / aug-cc-pvqz                  1     -76.06579147   xtpl_highest_1
       corl                  mp2 / aug-cc-pv[tq]z               1     -76.41093781   corl_xtpl_helgaker_2
       corl                   hf / aug-cc-pv[tq]z              -1     -76.06972095   corl_xtpl_helgaker_2
  ---------------------------------------------------------------------------------------------------------

   ==> CBS <==

  ---------------------------------------------------------------------------------------------------------
      Stage               Method / Basis                               Energy [Eh]   Scheme
  ---------------------------------------------------------------------------------------------------------
        scf                   hf / aug-cc-pvqz                        -76.06579147   xtpl_highest_1
       corl                  mp2 / aug-cc-pv[tq]z                      -0.34121686   corl_xtpl_helgaker_2
      total                  CBS                                      -76.40700834   
  ---------------------------------------------------------------------------------------------------------
   => Loading Basis Set <=

    Name: DEF2-SVP
    Role: ORBITAL
    Keyword: BASIS
    atoms 1   entry O          line   130 file /home/liuchw/anaconda3/envs/psi4env/share/psi4/basis/def2-svp.gbs 
    atoms 2-3 entry H          line    15 file /home/liuchw/anaconda3/envs/psi4env/share/psi4/basis/def2-svp.gbs 


       N-Body: Complex Energy (fragments = (2,), basis = (2,):   -76.40700833781283)

       N-Body: Computing complex (2/4) with fragments (2,) in the basis of fragments (1, 2).


Scratch directory: /scratch/liuchw/

  //>>>>>>>>>>>>>>>>>>>>>>>>>>>>>>>>>>>//
  //   CBS Setup: mp2/aug-cc-pv[tq]z   //
  //<<<<<<<<<<<<<<<<<<<<<<<<<<<<<<<<<<<//

    Naive listing of computations required.
             hf / aug-cc-pvqz              for  HF TOTAL ENERGY
            mp2 / aug-cc-pvtz              for  MP2 TOTAL ENERGY
            mp2 / aug-cc-pvqz              for  MP2 TOTAL ENERGY
             hf / aug-cc-pvtz              for  HF TOTAL ENERGY
             hf / aug-cc-pvqz              for  HF TOTAL ENERGY

    Enlightened listing of computations required.
            mp2 / aug-cc-pvtz              for  MP2 TOTAL ENERGY
            mp2 / aug-cc-pvqz              for  MP2 TOTAL ENERGY

    Full listing of computations to be obtained (required and bonus).
             hf / aug-cc-pvtz              for  HF TOTAL ENERGY
            mp2 / aug-cc-pvtz              for  MP2 TOTAL ENERGY
             hf / aug-cc-pvqz              for  HF TOTAL ENERGY
            mp2 / aug-cc-pvqz              for  MP2 TOTAL ENERGY

  //>>>>>>>>>>>>>>>>>>>>>>>>>>>>>>>>>>>>//
  // CBS Computation: MP2 / AUG-CC-PVTZ //
  //<<<<<<<<<<<<<<<<<<<<<<<<<<<<<<<<<<<<//


Scratch directory: /scratch/liuchw/

*** tstart() called on node92.bme.utexas.edu
*** at Thu Apr 23 18:48:25 2020

   => Loading Basis Set <=

    Name: AUG-CC-PVTZ
    Role: ORBITAL
    Keyword: BASIS
    atoms 1           entry CL         line   988 file /home/liuchw/anaconda3/envs/psi4env/share/psi4/basis/aug-cc-pvtz.gbs 
    atoms 2-7         entry C          line   239 file /home/liuchw/anaconda3/envs/psi4env/share/psi4/basis/aug-cc-pvtz.gbs 
    atoms 8-12, 14-15 entry H          line    40 file /home/liuchw/anaconda3/envs/psi4env/share/psi4/basis/aug-cc-pvtz.gbs 
    atoms 13          entry O          line   331 file /home/liuchw/anaconda3/envs/psi4env/share/psi4/basis/aug-cc-pvtz.gbs 


         ---------------------------------------------------------
                                   SCF
               by Justin Turney, Rob Parrish, Andy Simmonett
                          and Daniel G. A. Smith
                              RHF Reference
                        8 Threads,  19073 MiB Core
         ---------------------------------------------------------

  ==> Geometry <==

    Molecular point group: c1
    Full point group: C1

    Geometry (in Angstrom), charge = 0, multiplicity = 1:

       Center              X                  Y                   Z               Mass       
    ------------   -----------------  -----------------  -----------------  -----------------
      Gh(CL)          1.123471971944    -0.052802775233     0.000031630646    34.968852682000
      Gh(C)          -0.608638028056     0.016207224767    -0.000008369354    12.000000000000
      Gh(C)          -1.247298028056     1.253847224767    -0.000048369354    12.000000000000
      Gh(C)          -1.340448028056    -1.168732775233    -0.000008369354    12.000000000000
      Gh(C)          -2.639268028056     1.300467224767    -0.000078369354    12.000000000000
      Gh(C)          -2.731808028056    -1.107902775233    -0.000038369354    12.000000000000
      Gh(C)          -3.384378028056     0.123187224767    -0.000068369354    12.000000000000
      Gh(H)          -0.658248028056     2.159447224767    -0.000048369354     1.007825032230
      Gh(H)          -0.822238028056    -2.116652775233     0.000021630646     1.007825032230
      Gh(H)          -3.139448028056     2.259177224767    -0.000108369354     1.007825032230
      Gh(H)          -3.304128028056    -2.025342775233    -0.000038369354     1.007825032230
      Gh(H)          -4.464458028056     0.164737224767    -0.000098369354     1.007825032230
         O            6.446061971944    -0.259672775233     0.000121630646    15.994914619570
         H            6.705921971944     0.272967224767     0.754181630646     1.007825032230
         H            6.705911971944     0.272957224767    -0.753958369354     1.007825032230

  Running in c1 symmetry.

  Rotational constants: A =      0.18670  B =      0.01406  C =      0.01310 [cm^-1]
  Rotational constants: A =   5597.12614  B =    421.45977  C =    392.64451 [MHz]
  Nuclear repulsion =    9.178904573848243

  Charge       = 0
  Multiplicity = 1
  Electrons    = 10
  Nalpha       = 5
  Nbeta        = 5

  ==> Algorithm <==

  SCF Algorithm Type is DF.
  DIIS enabled.
  MOM disabled.
  Fractional occupation disabled.
  Guess Type is SAD.
  Energy threshold   = 1.00e-07
  Density threshold  = 1.00e-08
  Integral threshold = 0.00e+00

  ==> Primary Basis <==

  Basis Set: AUG-CC-PVTZ
    Blend: AUG-CC-PVTZ
    Number of shells: 177
    Number of basis function: 533
    Number of Cartesian functions: 619
    Spherical Harmonics?: true
    Max angular momentum: 3

   => Loading Basis Set <=

    Name: (AUG-CC-PVTZ AUX)
    Role: JKFIT
    Keyword: DF_BASIS_SCF
    atoms 1           entry CL         line   816 file /home/liuchw/anaconda3/envs/psi4env/share/psi4/basis/aug-cc-pvtz-jkfit.gbs 
    atoms 2-7         entry C          line   162 file /home/liuchw/anaconda3/envs/psi4env/share/psi4/basis/aug-cc-pvtz-jkfit.gbs 
    atoms 8-12, 14-15 entry H          line    70 file /home/liuchw/anaconda3/envs/psi4env/share/psi4/basis/aug-cc-pvtz-jkfit.gbs 
    atoms 13          entry O          line   286 file /home/liuchw/anaconda3/envs/psi4env/share/psi4/basis/aug-cc-pvtz-jkfit.gbs 

  ==> Pre-Iterations <==

   -------------------------------------------------------
    Irrep   Nso     Nmo     Nalpha   Nbeta   Ndocc  Nsocc
   -------------------------------------------------------
     A        533     533       0       0       0       0
   -------------------------------------------------------
    Total     533     533       5       5       5       0
   -------------------------------------------------------

  ==> Integral Setup <==

  DFHelper Memory: AOs need 2.152 GiB; user supplied 13.970 GiB. Using in-core AOs.

  ==> MemDFJK: Density-Fitted J/K Matrices <==

    J tasked:                   Yes
    K tasked:                   Yes
    wK tasked:                   No
    OpenMP threads:               8
    Memory [MiB]:             14305
    Algorithm:                 Core
    Schwarz Cutoff:           1E-12
    Mask sparsity (%):      18.3231
    Fitting Condition:        1E-10

   => Auxiliary Basis Set <=

  Basis Set: (AUG-CC-PVTZ AUX)
    Blend: AUG-CC-PVTZ-JKFIT
    Number of shells: 350
    Number of basis function: 1196
    Number of Cartesian functions: 1482
    Spherical Harmonics?: true
    Max angular momentum: 4

  Minimum eigenvalue in the overlap matrix is 8.7963058269E-07.
  Using Symmetric Orthogonalization.

  SCF Guess: Superposition of Atomic Densities via on-the-fly atomic UHF.

  ==> Iterations <==

                           Total Energy        Delta E     RMS |[F,P]|

   @DF-RHF iter SAD:   -75.47680369413332   -7.54768e+01   0.00000e+00 
   @DF-RHF iter   1:   -75.97599968890516   -4.99196e-01   8.79066e-04 DIIS
   @DF-RHF iter   2:   -76.02853154545429   -5.25319e-02   5.99345e-04 DIIS
   @DF-RHF iter   3:   -76.05999513316243   -3.14636e-02   4.06985e-05 DIIS
   @DF-RHF iter   4:   -76.06038281478740   -3.87682e-04   9.73284e-06 DIIS
   @DF-RHF iter   5:   -76.06040699849100   -2.41837e-05   2.21009e-06 DIIS
   @DF-RHF iter   6:   -76.06040897457895   -1.97609e-06   4.83023e-07 DIIS
   @DF-RHF iter   7:   -76.06040907833953   -1.03761e-07   8.67123e-08 DIIS
   @DF-RHF iter   8:   -76.06040908128064   -2.94111e-09   1.45299e-08 DIIS
   @DF-RHF iter   9:   -76.06040908134520   -6.45599e-11   3.54427e-09 DIIS
  Energy and wave function converged.


  ==> Post-Iterations <==

    Orbital Energies [Eh]
    ---------------------

    Doubly Occupied:                                                      

       1A    -20.567897     2A     -1.353264     3A     -0.715193  
       4A     -0.586248     5A     -0.510458  

    Virtual:                                                              

       6A      0.018700     7A      0.026944     8A      0.033016  
       9A      0.038860    10A      0.047253    11A      0.050153  
      12A      0.055630    13A      0.071263    14A      0.079558  
      15A      0.082950    16A      0.095291    17A      0.099188  
      18A      0.099716    19A      0.101709    20A      0.105899  
      21A      0.118991    22A      0.126530    23A      0.133336  
      24A      0.133958    25A      0.135710    26A      0.137858  
      27A      0.138346    28A      0.140624    29A      0.155195  
      30A      0.159621    31A      0.163009    32A      0.165353  
      33A      0.177991    34A      0.184591    35A      0.185049  
      36A      0.193271    37A      0.198661    38A      0.203396  
      39A      0.204295    40A      0.215139    41A      0.232264  
      42A      0.232632    43A      0.237603    44A      0.242389  
      45A      0.254271    46A      0.259263    47A      0.263332  
      48A      0.274436    49A      0.278634    50A      0.286532  
      51A      0.291533    52A      0.301283    53A      0.304495  
      54A      0.308811    55A      0.312440    56A      0.324858  
      57A      0.336161    58A      0.340412    59A      0.348835  
      60A      0.351121    61A      0.354333    62A      0.354859  
      63A      0.363122    64A      0.366839    65A      0.372179  
      66A      0.372222    67A      0.376537    68A      0.378553  
      69A      0.391427    70A      0.403518    71A      0.407591  
      72A      0.411394    73A      0.412715    74A      0.423437  
      75A      0.424234    76A      0.429198    77A      0.436367  
      78A      0.443358    79A      0.452446    80A      0.463146  
      81A      0.469450    82A      0.471375    83A      0.474221  
      84A      0.497633    85A      0.503687    86A      0.525682  
      87A      0.532438    88A      0.534873    89A      0.547211  
      90A      0.548408    91A      0.549061    92A      0.551619  
      93A      0.572407    94A      0.595285    95A      0.595385  
      96A      0.600686    97A      0.602917    98A      0.604830  
      99A      0.613377   100A      0.625376   101A      0.626699  
     102A      0.629128   103A      0.646541   104A      0.659795  
     105A      0.663555   106A      0.665319   107A      0.671990  
     108A      0.677094   109A      0.681295   110A      0.682026  
     111A      0.692252   112A      0.701357   113A      0.703543  
     114A      0.721164   115A      0.724253   116A      0.726749  
     117A      0.729502   118A      0.741637   119A      0.745098  
     120A      0.750049   121A      0.758826   122A      0.760011  
     123A      0.761262   124A      0.766590   125A      0.768597  
     126A      0.776420   127A      0.777167   128A      0.784085  
     129A      0.829038   130A      0.830039   131A      0.837043  
     132A      0.844846   133A      0.858657   134A      0.875902  
     135A      0.890941   136A      0.902488   137A      0.908344  
     138A      0.913368   139A      0.913800   140A      0.919777  
     141A      0.923087   142A      0.925486   143A      0.933580  
     144A      0.934925   145A      0.965995   146A      0.971949  
     147A      0.982817   148A      0.995762   149A      1.003353  
     150A      1.017305   151A      1.027277   152A      1.031775  
     153A      1.042508   154A      1.048044   155A      1.048572  
     156A      1.053310   157A      1.062528   158A      1.067721  
     159A      1.081018   160A      1.086869   161A      1.087837  
     162A      1.095417   163A      1.097473   164A      1.105735  
     165A      1.108661   166A      1.128307   167A      1.147200  
     168A      1.160618   169A      1.169832   170A      1.176733  
     171A      1.178258   172A      1.181410   173A      1.186181  
     174A      1.189301   175A      1.197697   176A      1.212490  
     177A      1.222938   178A      1.226757   179A      1.248903  
     180A      1.261022   181A      1.266311   182A      1.268645  
     183A      1.278590   184A      1.286190   185A      1.292736  
     186A      1.297545   187A      1.309729   188A      1.312219  
     189A      1.313918   190A      1.315068   191A      1.315320  
     192A      1.322466   193A      1.338534   194A      1.354772  
     195A      1.368065   196A      1.389064   197A      1.399872  
     198A      1.405273   199A      1.412233   200A      1.426718  
     201A      1.446289   202A      1.446524   203A      1.452128  
     204A      1.468704   205A      1.474497   206A      1.491510  
     207A      1.497987   208A      1.510691   209A      1.512951  
     210A      1.518908   211A      1.523885   212A      1.534952  
     213A      1.539888   214A      1.547438   215A      1.548773  
     216A      1.550594   217A      1.553780   218A      1.571369  
     219A      1.573411   220A      1.585518   221A      1.594454  
     222A      1.602291   223A      1.604529   224A      1.624757  
     225A      1.640302   226A      1.642064   227A      1.648792  
     228A      1.659455   229A      1.660147   230A      1.681370  
     231A      1.684322   232A      1.685257   233A      1.725792  
     234A      1.727210   235A      1.744862   236A      1.763425  
     237A      1.765005   238A      1.817502   239A      1.827921  
     240A      1.864434   241A      1.867163   242A      1.878466  
     243A      1.886484   244A      1.888458   245A      1.919195  
     246A      1.921755   247A      1.943759   248A      1.947857  
     249A      1.986313   250A      1.997414   251A      2.016546  
     252A      2.040267   253A      2.044745   254A      2.058122  
     255A      2.113903   256A      2.121659   257A      2.134080  
     258A      2.145808   259A      2.164290   260A      2.173906  
     261A      2.179121   262A      2.192085   263A      2.198270  
     264A      2.228174   265A      2.235438   266A      2.245185  
     267A      2.248906   268A      2.249010   269A      2.272566  
     270A      2.277989   271A      2.309608   272A      2.316322  
     273A      2.319578   274A      2.325098   275A      2.331963  
     276A      2.332701   277A      2.335622   278A      2.336777  
     279A      2.352420   280A      2.373273   281A      2.381453  
     282A      2.385509   283A      2.394816   284A      2.399338  
     285A      2.410855   286A      2.421120   287A      2.430708  
     288A      2.439330   289A      2.446885   290A      2.466979  
     291A      2.484318   292A      2.490679   293A      2.523720  
     294A      2.533409   295A      2.541867   296A      2.552186  
     297A      2.587911   298A      2.592010   299A      2.592921  
     300A      2.604876   301A      2.628911   302A      2.637210  
     303A      2.670644   304A      2.675489   305A      2.708183  
     306A      2.761538   307A      2.764197   308A      2.783170  
     309A      2.798226   310A      2.812168   311A      2.828082  
     312A      2.866473   313A      2.880587   314A      2.888542  
     315A      2.895482   316A      2.907940   317A      2.967340  
     318A      3.028712   319A      3.029405   320A      3.110883  
     321A      3.164042   322A      3.232734   323A      3.284575  
     324A      3.286302   325A      3.455663   326A      3.496160  
     327A      3.594234   328A      3.657412   329A      3.762213  
     330A      3.784729   331A      3.788192   332A      3.824772  
     333A      3.829129   334A      3.831966   335A      3.923220  
     336A      3.948244   337A      3.956167   338A      3.957219  
     339A      3.979349   340A      4.009352   341A      4.022296  
     342A      4.027184   343A      4.041231   344A      4.043507  
     345A      4.058884   346A      4.061330   347A      4.078629  
     348A      4.080810   349A      4.085547   350A      4.095044  
     351A      4.124516   352A      4.144929   353A      4.153531  
     354A      4.160434   355A      4.163517   356A      4.166368  
     357A      4.186259   358A      4.213889   359A      4.231900  
     360A      4.241741   361A      4.254496   362A      4.263957  
     363A      4.270059   364A      4.284181   365A      4.292711  
     366A      4.294078   367A      4.294739   368A      4.297386  
     369A      4.338609   370A      4.345738   371A      4.371422  
     372A      4.376022   373A      4.378374   374A      4.379321  
     375A      4.401759   376A      4.409434   377A      4.429958  
     378A      4.444832   379A      4.484731   380A      4.514582  
     381A      4.514731   382A      4.520922   383A      4.524471  
     384A      4.526784   385A      4.560939   386A      4.574561  
     387A      4.585154   388A      4.588981   389A      4.594308  
     390A      4.615602   391A      4.647921   392A      4.706340  
     393A      4.714531   394A      4.736462   395A      4.740158  
     396A      4.759110   397A      4.788856   398A      4.811397  
     399A      4.818117   400A      4.849964   401A      4.849982  
     402A      4.853959   403A      4.892488   404A      4.915803  
     405A      4.942766   406A      4.970516   407A      4.981782  
     408A      5.008770   409A      5.033284   410A      5.042033  
     411A      5.061337   412A      5.062161   413A      5.074932  
     414A      5.144727   415A      5.153693   416A      5.157717  
     417A      5.158164   418A      5.164383   419A      5.166439  
     420A      5.189490   421A      5.212133   422A      5.214459  
     423A      5.215979   424A      5.228435   425A      5.250720  
     426A      5.262384   427A      5.300058   428A      5.326742  
     429A      5.334805   430A      5.375429   431A      5.378417  
     432A      5.417420   433A      5.445313   434A      5.449389  
     435A      5.490133   436A      5.500184   437A      5.514079  
     438A      5.531403   439A      5.544677   440A      5.572397  
     441A      5.609773   442A      5.637415   443A      5.646261  
     444A      5.648424   445A      5.663396   446A      5.680857  
     447A      5.703794   448A      5.728296   449A      5.734647  
     450A      5.750158   451A      5.773242   452A      5.792273  
     453A      5.796806   454A      5.855058   455A      5.898891  
     456A      5.935023   457A      5.972878   458A      5.998096  
     459A      6.034496   460A      6.063102   461A      6.139297  
     462A      6.160320   463A      6.184272   464A      6.189075  
     465A      6.198714   466A      6.264181   467A      6.278096  
     468A      6.353412   469A      6.354093   470A      6.441131  
     471A      6.464541   472A      6.514557   473A      6.656682  
     474A      6.685182   475A      6.716059   476A      6.791063  
     477A      6.876939   478A      6.914360   479A      6.931192  
     480A      6.980742   481A      7.066333   482A      7.072523  
     483A      7.081540   484A      7.125895   485A      7.138711  
     486A      7.146217   487A      7.257973   488A      7.265114  
     489A      7.300754   490A      7.322336   491A      7.350237  
     492A      7.362414   493A      7.407342   494A      7.433543  
     495A      7.503049   496A      7.542660   497A      7.564709  
     498A      7.622467   499A      7.736301   500A      7.891566  
     501A      7.899955   502A      7.935925   503A      8.042766  
     504A      8.077894   505A      8.147495   506A      8.211896  
     507A      8.306290   508A      8.354689   509A      8.703386  
     510A      8.820312   511A      8.941243   512A      9.271340  
     513A      9.336979   514A      9.366820   515A      9.994800  
     516A     10.054686   517A     10.859306   518A     11.064402  
     519A     11.151643   520A     11.276031   521A     11.386086  
     522A     15.788205   523A     17.435742   524A     28.233425  
     525A     28.839484   526A     29.590524   527A     49.300202  
     528A     49.642265   529A     50.742865   530A     54.841476  
     531A     55.956993   532A     56.311631   533A    161.124349  

    Final Occupation by Irrep:
              A 
    DOCC [     5 ]

  @DF-RHF Final Energy:   -76.06040908134520

   => Energetics <=

    Nuclear Repulsion Energy =              9.1789045738482429
    One-Electron Energy =                -123.0125038314646986
    Two-Electron Energy =                  37.7731901762712567
    Total Energy =                        -76.0604090813451990

Computation Completed


Properties will be evaluated at   0.000000,   0.000000,   0.000000 [a0]

Properties computed using the SCF density matrix

  Nuclear Dipole Moment: [e a0]
     X:   122.7950      Y:    -2.8940      Z:     0.0023

  Electronic Dipole Moment: [e a0]
     X:  -122.4503      Y:     3.6006      Z:    -0.0023

  Dipole Moment: [e a0]
     X:     0.3447      Y:     0.7066      Z:    -0.0000     Total:     0.7862

  Dipole Moment: [D]
     X:     0.8763      Y:     1.7960      Z:    -0.0000     Total:     1.9984


*** tstop() called on node92.bme.utexas.edu at Thu Apr 23 18:48:35 2020
Module time:
	user time   =      66.29 seconds =       1.10 minutes
	system time =       1.38 seconds =       0.02 minutes
	total time  =         10 seconds =       0.17 minutes
Total time:
	user time   =      96.11 seconds =       1.60 minutes
	system time =       2.33 seconds =       0.04 minutes
	total time  =         16 seconds =       0.27 minutes

*** tstart() called on node92.bme.utexas.edu
*** at Thu Apr 23 18:48:35 2020


  //>>>>>>>>>>>>>>>>>>>>>>>>>>>>>>>>>>>//
  //               DFMP2               //
  //<<<<<<<<<<<<<<<<<<<<<<<<<<<<<<<<<<<//

   => Loading Basis Set <=

    Name: (AUG-CC-PVTZ AUX)
    Role: RIFIT
    Keyword: DF_BASIS_MP2
    atoms 1           entry CL         line   742 file /home/liuchw/anaconda3/envs/psi4env/share/psi4/basis/aug-cc-pvtz-ri.gbs 
    atoms 2-7         entry C          line   148 file /home/liuchw/anaconda3/envs/psi4env/share/psi4/basis/aug-cc-pvtz-ri.gbs 
    atoms 8-12, 14-15 entry H          line    30 file /home/liuchw/anaconda3/envs/psi4env/share/psi4/basis/aug-cc-pvtz-ri.gbs 
    atoms 13          entry O          line   264 file /home/liuchw/anaconda3/envs/psi4env/share/psi4/basis/aug-cc-pvtz-ri.gbs 

	 --------------------------------------------------------
	                          DF-MP2                         
	      2nd-Order Density-Fitted Moller-Plesset Theory     
	              RMP2 Wavefunction,   8 Threads             
	                                                         
	        Rob Parrish, Justin Turney, Andy Simmonett,      
	           Ed Hohenstein, and C. David Sherrill          
	 --------------------------------------------------------

   => Auxiliary Basis Set <=

  Basis Set: (AUG-CC-PVTZ AUX)
    Blend: AUG-CC-PVTZ-RI
    Number of shells: 331
    Number of basis function: 1211
    Number of Cartesian functions: 1528
    Spherical Harmonics?: true
    Max angular momentum: 4

	 --------------------------------------------------------
	                 NBF =   533, NAUX =  1211
	 --------------------------------------------------------
	   CLASS    FOCC     OCC    AOCC    AVIR     VIR    FVIR
	   PAIRS       0       5       5     528     528       0
	 --------------------------------------------------------

	-----------------------------------------------------------
	 ==================> DF-MP2 Energies <==================== 
	-----------------------------------------------------------
	 Reference Energy          =     -76.0604090813451990 [Eh]
	 Singles Energy            =      -0.0000000000000000 [Eh]
	 Same-Spin Energy          =      -0.0683863735424458 [Eh]
	 Opposite-Spin Energy      =      -0.2153114202490112 [Eh]
	 Correlation Energy        =      -0.2836977937914569 [Eh]
	 Total Energy              =     -76.3441068751366601 [Eh]
	-----------------------------------------------------------
	 ================> DF-SCS-MP2 Energies <================== 
	-----------------------------------------------------------
	 SCS Same-Spin Scale       =       0.3333333333333333 [-]
	 SCS Opposite-Spin Scale   =       1.2000000000000000 [-]
	 SCS Same-Spin Energy      =      -0.0227954578474819 [Eh]
	 SCS Opposite-Spin Energy  =      -0.2583737042988134 [Eh]
	 SCS Correlation Energy    =      -0.2811691621462953 [Eh]
	 SCS Total Energy          =     -76.3415782434914973 [Eh]
	-----------------------------------------------------------


*** tstop() called on node92.bme.utexas.edu at Thu Apr 23 18:48:41 2020
Module time:
	user time   =      33.08 seconds =       0.55 minutes
	system time =       0.75 seconds =       0.01 minutes
	total time  =          6 seconds =       0.10 minutes
Total time:
	user time   =     129.20 seconds =       2.15 minutes
	system time =       3.08 seconds =       0.05 minutes
	total time  =         22 seconds =       0.37 minutes

  //>>>>>>>>>>>>>>>>>>>>>>>>>>>>>>>>>>>>//
  // CBS Computation: MP2 / AUG-CC-PVQZ //
  //<<<<<<<<<<<<<<<<<<<<<<<<<<<<<<<<<<<<//


Scratch directory: /scratch/liuchw/

*** tstart() called on node92.bme.utexas.edu
*** at Thu Apr 23 18:48:41 2020

   => Loading Basis Set <=

    Name: AUG-CC-PVQZ
    Role: ORBITAL
    Keyword: BASIS
    atoms 1           entry CL         line  1222 file /home/liuchw/anaconda3/envs/psi4env/share/psi4/basis/aug-cc-pvqz.gbs 
    atoms 2-7         entry C          line   303 file /home/liuchw/anaconda3/envs/psi4env/share/psi4/basis/aug-cc-pvqz.gbs 
    atoms 8-12, 14-15 entry H          line    40 file /home/liuchw/anaconda3/envs/psi4env/share/psi4/basis/aug-cc-pvqz.gbs 
    atoms 13          entry O          line   423 file /home/liuchw/anaconda3/envs/psi4env/share/psi4/basis/aug-cc-pvqz.gbs 


         ---------------------------------------------------------
                                   SCF
               by Justin Turney, Rob Parrish, Andy Simmonett
                          and Daniel G. A. Smith
                              RHF Reference
                        8 Threads,  19073 MiB Core
         ---------------------------------------------------------

  ==> Geometry <==

    Molecular point group: c1
    Full point group: C1

    Geometry (in Angstrom), charge = 0, multiplicity = 1:

       Center              X                  Y                   Z               Mass       
    ------------   -----------------  -----------------  -----------------  -----------------
      Gh(CL)          1.123471971944    -0.052802775233     0.000031630646    34.968852682000
      Gh(C)          -0.608638028056     0.016207224767    -0.000008369354    12.000000000000
      Gh(C)          -1.247298028056     1.253847224767    -0.000048369354    12.000000000000
      Gh(C)          -1.340448028056    -1.168732775233    -0.000008369354    12.000000000000
      Gh(C)          -2.639268028056     1.300467224767    -0.000078369354    12.000000000000
      Gh(C)          -2.731808028056    -1.107902775233    -0.000038369354    12.000000000000
      Gh(C)          -3.384378028056     0.123187224767    -0.000068369354    12.000000000000
      Gh(H)          -0.658248028056     2.159447224767    -0.000048369354     1.007825032230
      Gh(H)          -0.822238028056    -2.116652775233     0.000021630646     1.007825032230
      Gh(H)          -3.139448028056     2.259177224767    -0.000108369354     1.007825032230
      Gh(H)          -3.304128028056    -2.025342775233    -0.000038369354     1.007825032230
      Gh(H)          -4.464458028056     0.164737224767    -0.000098369354     1.007825032230
         O            6.446061971944    -0.259672775233     0.000121630646    15.994914619570
         H            6.705921971944     0.272967224767     0.754181630646     1.007825032230
         H            6.705911971944     0.272957224767    -0.753958369354     1.007825032230

  Running in c1 symmetry.

  Rotational constants: A =      0.18670  B =      0.01406  C =      0.01310 [cm^-1]
  Rotational constants: A =   5597.12614  B =    421.45977  C =    392.64451 [MHz]
  Nuclear repulsion =    9.178904573848243

  Charge       = 0
  Multiplicity = 1
  Electrons    = 10
  Nalpha       = 5
  Nbeta        = 5

  ==> Algorithm <==

  SCF Algorithm Type is DF.
  DIIS enabled.
  MOM disabled.
  Fractional occupation disabled.
  Guess Type is SAD.
  Energy threshold   = 1.00e-07
  Density threshold  = 1.00e-08
  Integral threshold = 0.00e+00

  ==> Primary Basis <==

  Basis Set: AUG-CC-PVQZ
    Blend: AUG-CC-PVQZ
    Number of shells: 260
    Number of basis function: 966
    Number of Cartesian functions: 1229
    Spherical Harmonics?: true
    Max angular momentum: 4

   => Loading Basis Set <=

    Name: (AUG-CC-PVQZ AUX)
    Role: JKFIT
    Keyword: DF_BASIS_SCF
    atoms 1           entry CL         line   904 file /home/liuchw/anaconda3/envs/psi4env/share/psi4/basis/aug-cc-pvqz-jkfit.gbs 
    atoms 2-7         entry C          line   178 file /home/liuchw/anaconda3/envs/psi4env/share/psi4/basis/aug-cc-pvqz-jkfit.gbs 
    atoms 8-12, 14-15 entry H          line    70 file /home/liuchw/anaconda3/envs/psi4env/share/psi4/basis/aug-cc-pvqz-jkfit.gbs 
    atoms 13          entry O          line   318 file /home/liuchw/anaconda3/envs/psi4env/share/psi4/basis/aug-cc-pvqz-jkfit.gbs 

  ==> Pre-Iterations <==

   -------------------------------------------------------
    Irrep   Nso     Nmo     Nalpha   Nbeta   Ndocc  Nsocc
   -------------------------------------------------------
     A        966     966       0       0       0       0
   -------------------------------------------------------
    Total     966     966       5       5       5       0
   -------------------------------------------------------

  ==> Integral Setup <==

  DFHelper Memory: AOs need 9.433 GiB; user supplied 13.970 GiB. Using in-core AOs.

  ==> MemDFJK: Density-Fitted J/K Matrices <==

    J tasked:                   Yes
    K tasked:                   Yes
    wK tasked:                   No
    OpenMP threads:               8
    Memory [MiB]:             14305
    Algorithm:                 Core
    Schwarz Cutoff:           1E-12
    Mask sparsity (%):      23.2347
    Fitting Condition:        1E-10

   => Auxiliary Basis Set <=

  Basis Set: (AUG-CC-PVQZ AUX)
    Blend: AUG-CC-PVQZ-JKFIT
    Number of shells: 410
    Number of basis function: 1710
    Number of Cartesian functions: 2340
    Spherical Harmonics?: true
    Max angular momentum: 5

  Minimum eigenvalue in the overlap matrix is 2.6761757626E-07.
  Using Symmetric Orthogonalization.

  SCF Guess: Superposition of Atomic Densities via on-the-fly atomic UHF.

  ==> Iterations <==

                           Total Energy        Delta E     RMS |[F,P]|

   @DF-RHF iter SAD:   -75.48194599806075   -7.54819e+01   0.00000e+00 
   @DF-RHF iter   1:   -75.98108255410081   -4.99137e-01   4.86070e-04 DIIS
   @DF-RHF iter   2:   -76.03371453062661   -5.26320e-02   3.32155e-04 DIIS
   @DF-RHF iter   3:   -76.06537682995412   -3.16623e-02   2.26256e-05 DIIS
   @DF-RHF iter   4:   -76.06576657214282   -3.89742e-04   5.53109e-06 DIIS
   @DF-RHF iter   5:   -76.06579163999592   -2.50679e-05   1.25167e-06 DIIS
   @DF-RHF iter   6:   -76.06579369671901   -2.05672e-06   2.81123e-07 DIIS
   @DF-RHF iter   7:   -76.06579381179370   -1.15075e-07   5.22157e-08 DIIS
   @DF-RHF iter   8:   -76.06579381528218   -3.48848e-09   8.39685e-09 DIIS
  Energy and wave function converged.


  ==> Post-Iterations <==

    Orbital Energies [Eh]
    ---------------------

    Doubly Occupied:                                                      

       1A    -20.565443     2A     -1.352534     3A     -0.715157  
       4A     -0.586297     5A     -0.510586  

    Virtual:                                                              

       6A      0.016872     7A      0.024246     8A      0.029213  
       9A      0.035147    10A      0.042497    11A      0.044500  
      12A      0.050240    13A      0.061710    14A      0.070830  
      15A      0.074320    16A      0.083495    17A      0.083709  
      18A      0.084608    19A      0.086845    20A      0.093725  
      21A      0.101739    22A      0.111370    23A      0.112789  
      24A      0.113247    25A      0.119016    26A      0.121520  
      27A      0.122603    28A      0.123740    29A      0.134569  
      30A      0.136804    31A      0.141338    32A      0.141925  
      33A      0.153884    34A      0.160989    35A      0.161270  
      36A      0.167325    37A      0.171994    38A      0.172146  
      39A      0.177701    40A      0.183173    41A      0.189894  
      42A      0.200254    43A      0.205005    44A      0.211136  
      45A      0.213466    46A      0.214880    47A      0.219155  
      48A      0.221770    49A      0.231892    50A      0.235718  
      51A      0.241336    52A      0.248921    53A      0.251563  
      54A      0.260455    55A      0.265601    56A      0.275198  
      57A      0.279429    58A      0.281789    59A      0.285853  
      60A      0.288253    61A      0.294783    62A      0.295874  
      63A      0.297646    64A      0.301727    65A      0.306618  
      66A      0.313822    67A      0.316480    68A      0.322228  
      69A      0.325192    70A      0.332242    71A      0.334191  
      72A      0.335777    73A      0.341218    74A      0.347462  
      75A      0.347728    76A      0.356046    77A      0.356610  
      78A      0.361839    79A      0.366692    80A      0.371104  
      81A      0.374701    82A      0.391921    83A      0.391939  
      84A      0.395998    85A      0.403432    86A      0.410101  
      87A      0.420610    88A      0.423267    89A      0.426106  
      90A      0.434809    91A      0.435717    92A      0.441019  
      93A      0.442573    94A      0.455064    95A      0.467223  
      96A      0.468683    97A      0.471724    98A      0.476040  
      99A      0.480048   100A      0.481083   101A      0.485722  
     102A      0.498440   103A      0.498492   104A      0.509624  
     105A      0.514029   106A      0.514952   107A      0.518001  
     108A      0.522577   109A      0.533069   110A      0.540372  
     111A      0.541129   112A      0.544611   113A      0.547312  
     114A      0.551432   115A      0.552952   116A      0.567882  
     117A      0.568061   118A      0.569332   119A      0.570633  
     120A      0.570788   121A      0.578637   122A      0.582858  
     123A      0.591441   124A      0.595637   125A      0.600528  
     126A      0.615694   127A      0.617998   128A      0.621431  
     129A      0.624285   130A      0.635201   131A      0.638966  
     132A      0.644601   133A      0.663931   134A      0.667489  
     135A      0.672132   136A      0.681344   137A      0.681663  
     138A      0.685421   139A      0.687415   140A      0.711412  
     141A      0.712184   142A      0.722505   143A      0.725554  
     144A      0.726126   145A      0.746366   146A      0.750393  
     147A      0.752837   148A      0.757212   149A      0.759885  
     150A      0.769921   151A      0.770588   152A      0.778562  
     153A      0.778921   154A      0.783591   155A      0.787521  
     156A      0.794858   157A      0.796192   158A      0.806935  
     159A      0.807296   160A      0.809459   161A      0.812134  
     162A      0.820006   163A      0.831407   164A      0.832433  
     165A      0.848431   166A      0.857516   167A      0.860058  
     168A      0.867409   169A      0.874667   170A      0.876717  
     171A      0.887207   172A      0.889037   173A      0.905309  
     174A      0.923203   175A      0.931584   176A      0.933801  
     177A      0.937689   178A      0.942141   179A      0.943490  
     180A      0.945472   181A      0.948325   182A      0.960241  
     183A      0.964891   184A      0.968442   185A      0.969560  
     186A      0.978147   187A      0.981065   188A      0.987480  
     189A      0.990548   190A      1.006487   191A      1.019263  
     192A      1.021893   193A      1.025066   194A      1.028248  
     195A      1.028910   196A      1.037706   197A      1.040221  
     198A      1.053931   199A      1.058501   200A      1.061195  
     201A      1.063254   202A      1.065658   203A      1.072867  
     204A      1.083571   205A      1.089752   206A      1.090767  
     207A      1.096891   208A      1.097197   209A      1.101746  
     210A      1.103297   211A      1.115228   212A      1.124744  
     213A      1.126850   214A      1.132474   215A      1.142351  
     216A      1.153594   217A      1.167233   218A      1.182024  
     219A      1.188902   220A      1.189293   221A      1.195834  
     222A      1.204893   223A      1.206425   224A      1.210425  
     225A      1.222401   226A      1.228974   227A      1.232973  
     228A      1.260525   229A      1.269256   230A      1.285087  
     231A      1.287714   232A      1.293543   233A      1.311096  
     234A      1.318756   235A      1.330995   236A      1.345566  
     237A      1.351285   238A      1.357298   239A      1.360969  
     240A      1.362293   241A      1.422890   242A      1.428489  
     243A      1.439010   244A      1.441054   245A      1.445117  
     246A      1.446455   247A      1.453691   248A      1.459615  
     249A      1.465927   250A      1.494823   251A      1.504961  
     252A      1.507308   253A      1.507539   254A      1.514240  
     255A      1.514964   256A      1.526085   257A      1.535752  
     258A      1.554421   259A      1.555433   260A      1.556808  
     261A      1.568027   262A      1.571181   263A      1.572232  
     264A      1.586592   265A      1.589583   266A      1.594756  
     267A      1.595098   268A      1.598333   269A      1.603833  
     270A      1.626502   271A      1.633961   272A      1.639876  
     273A      1.649962   274A      1.651620   275A      1.664084  
     276A      1.666148   277A      1.672052   278A      1.674844  
     279A      1.679507   280A      1.683143   281A      1.691049  
     282A      1.699559   283A      1.700124   284A      1.701495  
     285A      1.705823   286A      1.725187   287A      1.738844  
     288A      1.750676   289A      1.752466   290A      1.760833  
     291A      1.767493   292A      1.776199   293A      1.776247  
     294A      1.779281   295A      1.782186   296A      1.788414  
     297A      1.792509   298A      1.793743   299A      1.801299  
     300A      1.806998   301A      1.809007   302A      1.814283  
     303A      1.833261   304A      1.839388   305A      1.844270  
     306A      1.845830   307A      1.856439   308A      1.857358  
     309A      1.879550   310A      1.888548   311A      1.896895  
     312A      1.903690   313A      1.905751   314A      1.909992  
     315A      1.913481   316A      1.917184   317A      1.921652  
     318A      1.924754   319A      1.936082   320A      1.952674  
     321A      1.956136   322A      1.956475   323A      1.976025  
     324A      1.986427   325A      1.989134   326A      1.991283  
     327A      2.007419   328A      2.008521   329A      2.010602  
     330A      2.013343   331A      2.023373   332A      2.035639  
     333A      2.046985   334A      2.047424   335A      2.053173  
     336A      2.063298   337A      2.069116   338A      2.078871  
     339A      2.106077   340A      2.107948   341A      2.108393  
     342A      2.119963   343A      2.135765   344A      2.139253  
     345A      2.151484   346A      2.157591   347A      2.162142  
     348A      2.170904   349A      2.181642   350A      2.182835  
     351A      2.195701   352A      2.209657   353A      2.215626  
     354A      2.218923   355A      2.222365   356A      2.223019  
     357A      2.231294   358A      2.237566   359A      2.263249  
     360A      2.264416   361A      2.264962   362A      2.287466  
     363A      2.305874   364A      2.314730   365A      2.315608  
     366A      2.317002   367A      2.332071   368A      2.337095  
     369A      2.342775   370A      2.352469   371A      2.383793  
     372A      2.398151   373A      2.407610   374A      2.413513  
     375A      2.416739   376A      2.440104   377A      2.443568  
     378A      2.464633   379A      2.478082   380A      2.479213  
     381A      2.483341   382A      2.490909   383A      2.499319  
     384A      2.511374   385A      2.515384   386A      2.522131  
     387A      2.522341   388A      2.545658   389A      2.550002  
     390A      2.560623   391A      2.564075   392A      2.568939  
     393A      2.573404   394A      2.577210   395A      2.583121  
     396A      2.599663   397A      2.614576   398A      2.626626  
     399A      2.628604   400A      2.632742   401A      2.648230  
     402A      2.654127   403A      2.660411   404A      2.679413  
     405A      2.680419   406A      2.686754   407A      2.687928  
     408A      2.702338   409A      2.735213   410A      2.740085  
     411A      2.745575   412A      2.762501   413A      2.778254  
     414A      2.778840   415A      2.792589   416A      2.799677  
     417A      2.812796   418A      2.834018   419A      2.845138  
     420A      2.852588   421A      2.869852   422A      2.875926  
     423A      2.892013   424A      2.893645   425A      2.904721  
     426A      2.923169   427A      2.938320   428A      2.939535  
     429A      2.944469   430A      2.944542   431A      2.963679  
     432A      2.971791   433A      2.973142   434A      2.992777  
     435A      2.994251   436A      3.003103   437A      3.005085  
     438A      3.019701   439A      3.024761   440A      3.045194  
     441A      3.047827   442A      3.056369   443A      3.067972  
     444A      3.079508   445A      3.082158   446A      3.084072  
     447A      3.086823   448A      3.089521   449A      3.091103  
     450A      3.092100   451A      3.124315   452A      3.127777  
     453A      3.129923   454A      3.151717   455A      3.153572  
     456A      3.199430   457A      3.212505   458A      3.224023  
     459A      3.228994   460A      3.238845   461A      3.248609  
     462A      3.248670   463A      3.259068   464A      3.269402  
     465A      3.271076   466A      3.275897   467A      3.279215  
     468A      3.285595   469A      3.297440   470A      3.299242  
     471A      3.302685   472A      3.313023   473A      3.313110  
     474A      3.315877   475A      3.321879   476A      3.338087  
     477A      3.360456   478A      3.382417   479A      3.430187  
     480A      3.431556   481A      3.433279   482A      3.434276  
     483A      3.437298   484A      3.480992   485A      3.490053  
     486A      3.502758   487A      3.509173   488A      3.515625  
     489A      3.523556   490A      3.531609   491A      3.537141  
     492A      3.558673   493A      3.579920   494A      3.585622  
     495A      3.601056   496A      3.612704   497A      3.637617  
     498A      3.646153   499A      3.646681   500A      3.674143  
     501A      3.689162   502A      3.697426   503A      3.698137  
     504A      3.706756   505A      3.713237   506A      3.727374  
     507A      3.727591   508A      3.743601   509A      3.756374  
     510A      3.765100   511A      3.782843   512A      3.788370  
     513A      3.799318   514A      3.833729   515A      3.853654  
     516A      3.856085   517A      3.892410   518A      3.893204  
     519A      3.906385   520A      3.939580   521A      3.967319  
     522A      3.971208   523A      3.978969   524A      3.999043  
     525A      4.033471   526A      4.046484   527A      4.059831  
     528A      4.061262   529A      4.067080   530A      4.088979  
     531A      4.089437   532A      4.108137   533A      4.139080  
     534A      4.165628   535A      4.166701   536A      4.170149  
     537A      4.175656   538A      4.179338   539A      4.180027  
     540A      4.188855   541A      4.209996   542A      4.213217  
     543A      4.215625   544A      4.227082   545A      4.234490  
     546A      4.249290   547A      4.269407   548A      4.291913  
     549A      4.314857   550A      4.340035   551A      4.347178  
     552A      4.353588   553A      4.379195   554A      4.380823  
     555A      4.402371   556A      4.411789   557A      4.420440  
     558A      4.435342   559A      4.435446   560A      4.463945  
     561A      4.476031   562A      4.500492   563A      4.541247  
     564A      4.554688   565A      4.561601   566A      4.584108  
     567A      4.628516   568A      4.630035   569A      4.668643  
     570A      4.694073   571A      4.725467   572A      4.733510  
     573A      4.756774   574A      4.767738   575A      4.769895  
     576A      4.779175   577A      4.782041   578A      4.790180  
     579A      4.801423   580A      4.806502   581A      4.809194  
     582A      4.819844   583A      4.881867   584A      4.892971  
     585A      4.901025   586A      4.915361   587A      4.926172  
     588A      4.928345   589A      4.973833   590A      5.002533  
     591A      5.002737   592A      5.011001   593A      5.011776  
     594A      5.018123   595A      5.029405   596A      5.049995  
     597A      5.055535   598A      5.061039   599A      5.099838  
     600A      5.161739   601A      5.163523   602A      5.185424  
     603A      5.252339   604A      5.262905   605A      5.270948  
     606A      5.273326   607A      5.299951   608A      5.299987  
     609A      5.301269   610A      5.308083   611A      5.316588  
     612A      5.374932   613A      5.416536   614A      5.466488  
     615A      5.496756   616A      5.502539   617A      5.507052  
     618A      5.524037   619A      5.529069   620A      5.536840  
     621A      5.543509   622A      5.548639   623A      5.617664  
     624A      5.622500   625A      5.680265   626A      5.693187  
     627A      5.702511   628A      5.722839   629A      5.776067  
     630A      5.800407   631A      5.861638   632A      5.883936  
     633A      5.896688   634A      5.915925   635A      5.925859  
     636A      5.934573   637A      5.958856   638A      6.002809  
     639A      6.075450   640A      6.098878   641A      6.157569  
     642A      6.210019   643A      6.244325   644A      6.260950  
     645A      6.270883   646A      6.283285   647A      6.331398  
     648A      6.352760   649A      6.414416   650A      6.416832  
     651A      6.432362   652A      6.440952   653A      6.452622  
     654A      6.475309   655A      6.483910   656A      6.488056  
     657A      6.499596   658A      6.532237   659A      6.537981  
     660A      6.538369   661A      6.559636   662A      6.619177  
     663A      6.631226   664A      6.638192   665A      6.686787  
     666A      6.700186   667A      6.729847   668A      6.781901  
     669A      6.782961   670A      6.804767   671A      6.825746  
     672A      6.838059   673A      6.875742   674A      6.887827  
     675A      6.889436   676A      6.893413   677A      6.910736  
     678A      6.914374   679A      6.935707   680A      6.963731  
[...]
     515A      3.359955   516A      3.365617   517A      3.401009  
     518A      3.407931   519A      3.440677   520A      3.456468  
     521A      3.469179   522A      3.474850   523A      3.493641  
     524A      3.504304   525A      3.522298   526A      3.545457  
     527A      3.546376   528A      3.584017   529A      3.592694  
     530A      3.602103   531A      3.605175   532A      3.622493  
     533A      3.626795   534A      3.634548   535A      3.649409  
     536A      3.656882   537A      3.658698   538A      3.677309  
     539A      3.691961   540A      3.699182   541A      3.730139  
     542A      3.775544   543A      3.782217   544A      3.785851  
     545A      3.807789   546A      3.808914   547A      3.812544  
     548A      3.838078   549A      3.869686   550A      3.873857  
     551A      3.880790   552A      3.898610   553A      3.908755  
     554A      3.911946   555A      3.918202   556A      3.942160  
     557A      3.942415   558A      3.972225   559A      3.974730  
     560A      4.002591   561A      4.008720   562A      4.009238  
     563A      4.040306   564A      4.040788   565A      4.059872  
     566A      4.066321   567A      4.091788   568A      4.102390  
     569A      4.125661   570A      4.136537   571A      4.148009  
     572A      4.172752   573A      4.179513   574A      4.181026  
     575A      4.183127   576A      4.191528   577A      4.228491  
     578A      4.238522   579A      4.246259   580A      4.261504  
     581A      4.272255   582A      4.286202   583A      4.289949  
     584A      4.290001   585A      4.335456   586A      4.344241  
     587A      4.345704   588A      4.348805   589A      4.360802  
     590A      4.366038   591A      4.370741   592A      4.384732  
     593A      4.387671   594A      4.390978   595A      4.404853  
     596A      4.420099   597A      4.431618   598A      4.454819  
     599A      4.469066   600A      4.470926   601A      4.508464  
     602A      4.520688   603A      4.522268   604A      4.553579  
     605A      4.578906   606A      4.586850   607A      4.588653  
     608A      4.599617   609A      4.607681   610A      4.611354  
     611A      4.622746   612A      4.673562   613A      4.681789  
     614A      4.699207   615A      4.736466   616A      4.759582  
     617A      4.767549   618A      4.775423   619A      4.777329  
     620A      4.782359   621A      4.785296   622A      4.804266  
     623A      4.806259   624A      4.820653   625A      4.823859  
     626A      4.865092   627A      4.871245   628A      4.878587  
     629A      4.884832   630A      4.891811   631A      4.893996  
     632A      4.923713   633A      4.943971   634A      4.944574  
     635A      4.957231   636A      4.967639   637A      4.971936  
     638A      5.005359   639A      5.007565   640A      5.021727  
     641A      5.028569   642A      5.082618   643A      5.094011  
     644A      5.107492   645A      5.111108   646A      5.144125  
     647A      5.182683   648A      5.187112   649A      5.202200  
     650A      5.252145   651A      5.257526   652A      5.301533  
     653A      5.319666   654A      5.332782   655A      5.341544  
     656A      5.370186   657A      5.388552   658A      5.419955  
     659A      5.451680   660A      5.491737   661A      5.503593  
     662A      5.538815   663A      5.546535   664A      5.621150  
     665A      5.652415   666A      5.653520   667A      5.732030  
     668A      5.750664   669A      5.795884   670A      5.808195  
     671A      5.838359   672A      5.843129   673A      5.852328  
     674A      5.865001   675A      5.893017   676A      5.899769  
     677A      5.954404   678A      6.001232   679A      6.003232  
     680A      6.024678   681A      6.026047   682A      6.051211  
     683A      6.076180   684A      6.078557   685A      6.087703  
     686A      6.120488   687A      6.186282   688A      6.191546  
     689A      6.228529   690A      6.247324   691A      6.264239  
     692A      6.276633   693A      6.285578   694A      6.290969  
     695A      6.292211   696A      6.298443   697A      6.308492  
     698A      6.326816   699A      6.369931   700A      6.375542  
     701A      6.424062   702A      6.425653   703A      6.464848  
     704A      6.471191   705A      6.475274   706A      6.479339  
     707A      6.546818   708A      6.586551   709A      6.603910  
     710A      6.604812   711A      6.606213   712A      6.648176  
     713A      6.651280   714A      6.670749   715A      6.677906  
     716A      6.701566   717A      6.706871   718A      6.716141  
     719A      6.750753   720A      6.765117   721A      6.768210  
     722A      6.811364   723A      6.824150   724A      6.824694  
     725A      6.829037   726A      6.839721   727A      6.872192  
     728A      6.878032   729A      6.891014   730A      6.895809  
     731A      6.913780   732A      6.926564   733A      6.927972  
     734A      6.929021   735A      6.949232   736A      6.968133  
     737A      6.981947   738A      6.993822   739A      7.010879  
     740A      7.026267   741A      7.070242   742A      7.076124  
     743A      7.080850   744A      7.088139   745A      7.098637  
     746A      7.099973   747A      7.153766   748A      7.166545  
     749A      7.167668   750A      7.180723   751A      7.184054  
     752A      7.196995   753A      7.214094   754A      7.225737  
     755A      7.237658   756A      7.259560   757A      7.274510  
     758A      7.277978   759A      7.302464   760A      7.303934  
     761A      7.305262   762A      7.321287   763A      7.385509  
     764A      7.401841   765A      7.406955   766A      7.435953  
     767A      7.453149   768A      7.454718   769A      7.468843  
     770A      7.490575   771A      7.558686   772A      7.570308  
     773A      7.573966   774A      7.574917   775A      7.628501  
     776A      7.632227   777A      7.654284   778A      7.679728  
     779A      7.681888   780A      7.702387   781A      7.720436  
     782A      7.725507   783A      7.736979   784A      7.751863  
     785A      7.783399   786A      7.796603   787A      7.796832  
     788A      7.828011   789A      7.830853   790A      7.832440  
     791A      7.841114   792A      7.844718   793A      7.870890  
     794A      7.871134   795A      7.910252   796A      7.931358  
     797A      7.933293   798A      7.953156   799A      7.965002  
     800A      7.986059   801A      7.998618   802A      8.008981  
     803A      8.013647   804A      8.020212   805A      8.028786  
     806A      8.065810   807A      8.090616   808A      8.116186  
     809A      8.127117   810A      8.141118   811A      8.173133  
     812A      8.206157   813A      8.221662   814A      8.276775  
     815A      8.276975   816A      8.287092   817A      8.302171  
     818A      8.340352   819A      8.368674   820A      8.409213  
     821A      8.453521   822A      8.471069   823A      8.486778  
     824A      8.500067   825A      8.519212   826A      8.538674  
     827A      8.571040   828A      8.632276   829A      8.653079  
     830A      8.657889   831A      8.665432   832A      8.683969  
     833A      8.684607   834A      8.700495   835A      8.714612  
     836A      8.722052   837A      8.754903   838A      8.768908  
     839A      8.797784   840A      8.811047   841A      8.828282  
     842A      8.832496   843A      8.855594   844A      8.859019  
     845A      8.914645   846A      8.924291   847A      8.943800  
     848A      8.955827   849A      8.963609   850A      8.991513  
     851A      9.013992   852A      9.046182   853A      9.048850  
     854A      9.064625   855A      9.071169   856A      9.106913  
     857A      9.130717   858A      9.230257   859A      9.232217  
     860A      9.233357   861A      9.348388   862A      9.368718  
     863A      9.368873   864A      9.376387   865A      9.439550  
     866A      9.493905   867A      9.503175   868A      9.523864  
     869A      9.533010   870A      9.552773   871A      9.579486  
     872A      9.589102   873A      9.593633   874A      9.677228  
     875A      9.687338   876A      9.693125   877A      9.703957  
     878A      9.730356   879A      9.774927   880A      9.831247  
     881A      9.835882   882A      9.860091   883A      9.925736  
     884A      9.926021   885A      9.956750   886A      9.989304  
     887A      9.998693   888A     10.003891   889A     10.028132  
     890A     10.029010   891A     10.083780   892A     10.181540  
     893A     10.236998   894A     10.249958   895A     10.256466  
     896A     10.298535   897A     10.332824   898A     10.349593  
     899A     10.379307   900A     10.403964   901A     10.410139  
     902A     10.419875   903A     10.457733   904A     10.481147  
     905A     10.490475   906A     10.554599   907A     10.590058  
     908A     10.719262   909A     10.750141   910A     10.761340  
     911A     10.763503   912A     10.791711   913A     10.808375  
     914A     10.836059   915A     10.844148   916A     10.898023  
     917A     11.006510   918A     11.029786   919A     11.066418  
     920A     11.069709   921A     11.078102   922A     11.098819  
     923A     11.236755   924A     11.285923   925A     11.313999  
     926A     11.394827   927A     11.430225   928A     11.459719  
     929A     11.489787   930A     11.660590   931A     11.703789  
     932A     11.721302   933A     11.726300   934A     11.746828  
     935A     11.801797   936A     11.837300   937A     11.994929  
     938A     12.209172   939A     12.212640   940A     12.252614  
     941A     12.644851   942A     12.748652   943A     12.841059  
     944A     12.916439   945A     13.165764   946A     13.178354  
     947A     13.329640   948A     13.386014   949A     13.451505  
     950A     13.636774   951A     14.011671   952A     14.032394  
     953A     14.520140   954A     14.817482   955A     14.916690  
     956A     15.268692   957A     16.858855   958A     17.305054  
     959A     25.538526   960A     26.155279   961A     26.464218  
     962A     26.710754   963A     27.056500   964A     27.196380  
     965A     28.306569   966A     45.539725  

    Final Occupation by Irrep:
              A 
    DOCC [    34 ]

  @DF-RHF Final Energy:  -765.79910082089225

   => Energetics <=

    Nuclear Repulsion Energy =            367.4771394996778326
    One-Electron Energy =               -1780.3627713875146128
    Two-Electron Energy =                 647.0865310669445307
    Total Energy =                       -765.7991008208922494

Computation Completed


Properties will be evaluated at   0.000000,   0.000000,   0.000000 [a0]

Properties computed using the SCF density matrix

  Nuclear Dipole Moment: [e a0]
     X:    -0.0382      Y:     0.9726      Z:    -0.0001

  Electronic Dipole Moment: [e a0]
     X:    -0.3264      Y:    -0.2564      Z:     0.0000

  Dipole Moment: [e a0]
     X:    -0.3646      Y:     0.7162      Z:    -0.0000     Total:     0.8037

  Dipole Moment: [D]
     X:    -0.9266      Y:     1.8205      Z:    -0.0001     Total:     2.0427


*** tstop() called on node92.bme.utexas.edu at Thu Apr 23 18:53:59 2020
Module time:
	user time   =     380.73 seconds =       6.35 minutes
	system time =       6.72 seconds =       0.11 minutes
	total time  =         53 seconds =       0.88 minutes
Total time:
	user time   =    2224.35 seconds =      37.07 minutes
	system time =      44.29 seconds =       0.74 minutes
	total time  =        340 seconds =       5.67 minutes

*** tstart() called on node92.bme.utexas.edu
*** at Thu Apr 23 18:53:59 2020


  //>>>>>>>>>>>>>>>>>>>>>>>>>>>>>>>>>>>//
  //               DFMP2               //
  //<<<<<<<<<<<<<<<<<<<<<<<<<<<<<<<<<<<//

   => Loading Basis Set <=

    Name: (AUG-CC-PVQZ AUX)
    Role: RIFIT
    Keyword: DF_BASIS_MP2
    atoms 1           entry CL         line   914 file /home/liuchw/anaconda3/envs/psi4env/share/psi4/basis/aug-cc-pvqz-ri.gbs 
    atoms 2-7         entry C          line   184 file /home/liuchw/anaconda3/envs/psi4env/share/psi4/basis/aug-cc-pvqz-ri.gbs 
    atoms 8-12, 14-15 entry H          line    30 file /home/liuchw/anaconda3/envs/psi4env/share/psi4/basis/aug-cc-pvqz-ri.gbs 
    atoms 13          entry O          line   332 file /home/liuchw/anaconda3/envs/psi4env/share/psi4/basis/aug-cc-pvqz-ri.gbs 

	 --------------------------------------------------------
	                          DF-MP2                         
	      2nd-Order Density-Fitted Moller-Plesset Theory     
	              RMP2 Wavefunction,   8 Threads             
	                                                         
	        Rob Parrish, Justin Turney, Andy Simmonett,      
	           Ed Hohenstein, and C. David Sherrill          
	 --------------------------------------------------------

   => Auxiliary Basis Set <=

  Basis Set: (AUG-CC-PVQZ AUX)
    Blend: AUG-CC-PVQZ-RI
    Number of shells: 436
    Number of basis function: 1930
    Number of Cartesian functions: 2662
    Spherical Harmonics?: true
    Max angular momentum: 5

	 --------------------------------------------------------
	                 NBF =   966, NAUX =  1930
	 --------------------------------------------------------
	   CLASS    FOCC     OCC    AOCC    AVIR     VIR    FVIR
	   PAIRS       0      34      34     932     932       0
	 --------------------------------------------------------

	-----------------------------------------------------------
	 ==================> DF-MP2 Energies <==================== 
	-----------------------------------------------------------
	 Reference Energy          =    -765.7991008208922494 [Eh]
	 Singles Energy            =      -0.0000000000000000 [Eh]
	 Same-Spin Energy          =      -0.4176451760286842 [Eh]
	 Opposite-Spin Energy      =      -1.3572212262938752 [Eh]
	 Correlation Energy        =      -1.7748664023225595 [Eh]
	 Total Energy              =    -767.5739672232148223 [Eh]
	-----------------------------------------------------------
	 ================> DF-SCS-MP2 Energies <================== 
	-----------------------------------------------------------
	 SCS Same-Spin Scale       =       0.3333333333333333 [-]
	 SCS Opposite-Spin Scale   =       1.2000000000000000 [-]
	 SCS Same-Spin Energy      =      -0.1392150586762281 [Eh]
	 SCS Opposite-Spin Energy  =      -1.6286654715526503 [Eh]
	 SCS Correlation Energy    =      -1.7678805302288785 [Eh]
	 SCS Total Energy          =    -767.5669813511211714 [Eh]
	-----------------------------------------------------------


*** tstop() called on node92.bme.utexas.edu at Thu Apr 23 18:54:39 2020
Module time:
	user time   =     240.08 seconds =       4.00 minutes
	system time =       4.37 seconds =       0.07 minutes
	total time  =         40 seconds =       0.67 minutes
Total time:
	user time   =    2464.44 seconds =      41.07 minutes
	system time =      48.66 seconds =       0.81 minutes
	total time  =        380 seconds =       6.33 minutes

  //>>>>>>>>>>>>>>>>>>>>>>>>>>>>>>>>>>>//
  //  CBS Results: mp2/aug-cc-pv[tq]z  //
  //<<<<<<<<<<<<<<<<<<<<<<<<<<<<<<<<<<<//


   ==> HF <==

   HI-zeta (4) Energy:               -765.799100820892


   ==> Helgaker 2-point correlated extrapolation for method: MP2 <==

   LO-zeta (3) Energy:               -767.361986085190
   HI-zeta (4) Energy:               -767.573967223215
   Alpha (exponent) Value:             3.000000000000
   Extrapolated Energy:              -767.728656161774

   @Extrapolated MP2/(T,Q):          -767.728656161774



   ==> Helgaker 2-point correlated extrapolation for method: HF <==

   LO-zeta (3) Energy:               -765.776881514424
   HI-zeta (4) Energy:               -765.799100820892
   Alpha (exponent) Value:             3.000000000000
   Extrapolated Energy:              -765.815314909396

   @Extrapolated HF/(T,Q):           -765.815314909396


   ==> Components <==

  ---------------------------------------------------------------------------------------------------------
                          Method / Basis                      Rqd      Energy [Eh]   Variable
  ---------------------------------------------------------------------------------------------------------
                              hf / aug-cc-pvtz                  *    -765.77688151   HF TOTAL ENERGY
                             mp2 / aug-cc-pvtz                  *    -767.36198609   MP2 TOTAL ENERGY
                              hf / aug-cc-pvqz                  *    -765.79910082   HF TOTAL ENERGY
                             mp2 / aug-cc-pvqz                  *    -767.57396722   MP2 TOTAL ENERGY
  ---------------------------------------------------------------------------------------------------------

   ==> Stages <==

  ---------------------------------------------------------------------------------------------------------
      Stage               Method / Basis                       Wt      Energy [Eh]   Scheme
  ---------------------------------------------------------------------------------------------------------
        scf                   hf / aug-cc-pvqz                  1    -765.79910082   xtpl_highest_1
       corl                  mp2 / aug-cc-pv[tq]z               1    -767.72865616   corl_xtpl_helgaker_2
       corl                   hf / aug-cc-pv[tq]z              -1    -765.81531491   corl_xtpl_helgaker_2
  ---------------------------------------------------------------------------------------------------------

   ==> CBS <==

  ---------------------------------------------------------------------------------------------------------
      Stage               Method / Basis                               Energy [Eh]   Scheme
  ---------------------------------------------------------------------------------------------------------
        scf                   hf / aug-cc-pvqz                       -765.79910082   xtpl_highest_1
       corl                  mp2 / aug-cc-pv[tq]z                      -1.91334125   corl_xtpl_helgaker_2
      total                  CBS                                     -767.71244207   
  ---------------------------------------------------------------------------------------------------------
   => Loading Basis Set <=

    Name: DEF2-SVP
    Role: ORBITAL
    Keyword: BASIS
    atoms 1           entry CL         line   356 file /home/liuchw/anaconda3/envs/psi4env/share/psi4/basis/def2-svp.gbs 
    atoms 2-7         entry C          line    90 file /home/liuchw/anaconda3/envs/psi4env/share/psi4/basis/def2-svp.gbs 
    atoms 8-12, 14-15 entry H          line    15 file /home/liuchw/anaconda3/envs/psi4env/share/psi4/basis/def2-svp.gbs 
    atoms 13          entry O          line   130 file /home/liuchw/anaconda3/envs/psi4env/share/psi4/basis/def2-svp.gbs 


       N-Body: Complex Energy (fragments = (1, 2), basis = (1, 2):  -767.71244207327015)

   ==> N-Body: Counterpoise Corrected (CP) energies <==

   n-Body     Total Energy [Eh]       I.E. [kcal/mol]      Delta [kcal/mol]
        1     -767.712461393063        0.000000000000        0.000000000000
        2     -767.712439717948        0.013601339736        0.013601339736

   => Loading Basis Set <=

    Name: DEF2-SVP
    Role: ORBITAL
    Keyword: BASIS
    atoms 1           entry CL         line   356 file /home/liuchw/anaconda3/envs/psi4env/share/psi4/basis/def2-svp.gbs 
    atoms 2-7         entry C          line    90 file /home/liuchw/anaconda3/envs/psi4env/share/psi4/basis/def2-svp.gbs 
    atoms 8-12, 14-15 entry H          line    15 file /home/liuchw/anaconda3/envs/psi4env/share/psi4/basis/def2-svp.gbs 
    atoms 13          entry O          line   130 file /home/liuchw/anaconda3/envs/psi4env/share/psi4/basis/def2-svp.gbs 


    Psi4 stopped on: Thursday, 23 April 2020 06:54PM
    Psi4 wall time for execution: 0:06:20.41

*** Psi4 exiting successfully. Buy a developer a beer!
