
    -----------------------------------------------------------------------
          Psi4: An Open-Source Ab Initio Electronic Structure Package
                               Psi4 1.4a2.dev224 

                         Git: Rev {master} e453b16 


    R. M. Parrish, L. A. Burns, D. G. A. Smith, A. C. Simmonett,
    A. E. DePrince III, E. G. Hohenstein, U. Bozkaya, A. Yu. Sokolov,
    R. Di Remigio, R. M. Richard, J. F. Gonthier, A. M. James,
    H. R. McAlexander, A. Kumar, M. Saitow, X. Wang, B. P. Pritchard,
    P. Verma, H. F. Schaefer III, K. Patkowski, R. A. King, E. F. Valeev,
    F. A. Evangelista, J. M. Turney, T. D. Crawford, and C. D. Sherrill,
    J. Chem. Theory Comput. 13(7) pp 3185--3197 (2017).
    (doi: 10.1021/acs.jctc.7b00174)


                         Additional Contributions by
    P. Kraus, H. Kruse, M. H. Lechner, M. C. Schieber, R. A. Shaw,
    A. Alenaizan, R. Galvelis, Z. L. Glick, S. Lehtola, and J. P. Misiewicz

    -----------------------------------------------------------------------


    Psi4 started on: Saturday, 11 April 2020 04:54PM

    Process ID: 34948
    Host:       node37.bme.utexas.edu
    PSIDATADIR: /home/liuchw/anaconda3/envs/psi4env/share/psi4
    Memory:     500.0 MiB
    Threads:    6
    
  ==> Input File <==

--------------------------------------------------------------------------
#Generated by lconvert.py for cbs job

memory 40 GB

molecule  {
0 1
 Cl        2.0129150    -0.1411090     0.0000460
  C        0.2808090    -0.0721020     0.0000070
  C       -0.3578450     1.1655420    -0.0000280
  C       -0.4510000    -1.2570420     0.0000120
  C       -1.7498190     1.2121640    -0.0000570
  C       -1.8423560    -1.1962090    -0.0000170
  C       -2.4949320     0.0348750    -0.0000520
  H        0.2311970     2.0711410    -0.0000330
  H        0.0672090    -2.2049560     0.0000410
  H       -2.2500010     2.1708700    -0.0000860
  H       -2.4146820    -2.1136480    -0.0000150
  H       -3.5750080     0.0764250    -0.0000780
--
0 1
  O        5.0068760    -0.2574740     0.0000990
  H        5.2667340     0.2751670     0.7541610
  H        5.2667230     0.2751500    -0.7539820
units angstrom
no_reorient
symmetry c1
}

set {
scf_type DF
mp2_type DF
e_convergence 7
reference rhf
}

energy('mp2/aug-cc-pv[tq]z', bsse_type='cp')
--------------------------------------------------------------------------

  Memory set to  37.253 GiB by Python driver.

Scratch directory: /scratch//


   ===> N-Body Interaction Abacus <===
        BSSE Treatment:                     cp
        Number of 1-body computations:     4
        Number of 2-body computations:     1

   ==> N-Body: Now computing 1-body complexes <==


       N-Body: Computing complex (1/4) with fragments (2,) in the basis of fragments (2,).


Scratch directory: /scratch//

  //>>>>>>>>>>>>>>>>>>>>>>>>>>>>>>>>>>>//
  //   CBS Setup: mp2/aug-cc-pv[tq]z   //
  //<<<<<<<<<<<<<<<<<<<<<<<<<<<<<<<<<<<//

    Naive listing of computations required.
             hf / aug-cc-pvqz              for  HF TOTAL ENERGY
            mp2 / aug-cc-pvtz              for  MP2 TOTAL ENERGY
            mp2 / aug-cc-pvqz              for  MP2 TOTAL ENERGY
             hf / aug-cc-pvtz              for  HF TOTAL ENERGY
             hf / aug-cc-pvqz              for  HF TOTAL ENERGY

    Enlightened listing of computations required.
            mp2 / aug-cc-pvtz              for  MP2 TOTAL ENERGY
            mp2 / aug-cc-pvqz              for  MP2 TOTAL ENERGY

    Full listing of computations to be obtained (required and bonus).
             hf / aug-cc-pvtz              for  HF TOTAL ENERGY
            mp2 / aug-cc-pvtz              for  MP2 TOTAL ENERGY
             hf / aug-cc-pvqz              for  HF TOTAL ENERGY
            mp2 / aug-cc-pvqz              for  MP2 TOTAL ENERGY

  //>>>>>>>>>>>>>>>>>>>>>>>>>>>>>>>>>>>>//
  // CBS Computation: MP2 / AUG-CC-PVTZ //
  //<<<<<<<<<<<<<<<<<<<<<<<<<<<<<<<<<<<<//


Scratch directory: /scratch//

*** tstart() called on node37.bme.utexas.edu
*** at Sat Apr 11 16:54:52 2020

   => Loading Basis Set <=

    Name: AUG-CC-PVTZ
    Role: ORBITAL
    Keyword: BASIS
    atoms 1   entry O          line   331 file /home/liuchw/anaconda3/envs/psi4env/share/psi4/basis/aug-cc-pvtz.gbs 
    atoms 2-3 entry H          line    40 file /home/liuchw/anaconda3/envs/psi4env/share/psi4/basis/aug-cc-pvtz.gbs 


         ---------------------------------------------------------
                                   SCF
               by Justin Turney, Rob Parrish, Andy Simmonett
                          and Daniel G. A. Smith
                              RHF Reference
                        6 Threads,  38146 MiB Core
         ---------------------------------------------------------

  ==> Geometry <==

    Molecular point group: c1
    Full point group: C1

    Geometry (in Angstrom), charge = 0, multiplicity = 1:

       Center              X                  Y                   Z               Mass       
    ------------   -----------------  -----------------  -----------------  -----------------
         O            4.439998225307    -0.181704003239     0.000086846915    15.994914619570
         H            4.699856225307     0.350936996761     0.754148846915     1.007825032230
         H            4.699845225307     0.350919996761    -0.753994153085     1.007825032230

  Running in c1 symmetry.

  Rotational constants: A =     10.11215  B =      0.04675  C =      0.04667 [cm^-1]
  Rotational constants: A = 303154.56494  B =   1401.43140  C =   1399.00585 [MHz]
  Nuclear repulsion =    9.178912034259096

  Charge       = 0
  Multiplicity = 1
  Electrons    = 10
  Nalpha       = 5
  Nbeta        = 5

  ==> Algorithm <==

  SCF Algorithm Type is DF.
  DIIS enabled.
  MOM disabled.
  Fractional occupation disabled.
  Guess Type is SAD.
  Energy threshold   = 1.00e-07
  Density threshold  = 1.00e-08
  Integral threshold = 0.00e+00

  ==> Primary Basis <==

  Basis Set: AUG-CC-PVTZ
    Blend: AUG-CC-PVTZ
    Number of shells: 32
    Number of basis function: 92
    Number of Cartesian functions: 105
    Spherical Harmonics?: true
    Max angular momentum: 3

   => Loading Basis Set <=

    Name: (AUG-CC-PVTZ AUX)
    Role: JKFIT
    Keyword: DF_BASIS_SCF
    atoms 1   entry O          line   286 file /home/liuchw/anaconda3/envs/psi4env/share/psi4/basis/aug-cc-pvtz-jkfit.gbs 
    atoms 2-3 entry H          line    70 file /home/liuchw/anaconda3/envs/psi4env/share/psi4/basis/aug-cc-pvtz-jkfit.gbs 

  ==> Pre-Iterations <==

   -------------------------------------------------------
    Irrep   Nso     Nmo     Nalpha   Nbeta   Ndocc  Nsocc
   -------------------------------------------------------
     A         92      92       0       0       0       0
   -------------------------------------------------------
    Total      92      92       5       5       5       0
   -------------------------------------------------------

  ==> Integral Setup <==

  DFHelper Memory: AOs need 0.015 GiB; user supplied 27.940 GiB. Using in-core AOs.

  ==> MemDFJK: Density-Fitted J/K Matrices <==

    J tasked:                   Yes
    K tasked:                   Yes
    wK tasked:                   No
    OpenMP threads:               6
    Memory [MiB]:             28610
    Algorithm:                 Core
    Schwarz Cutoff:           1E-12
    Mask sparsity (%):       0.0000
    Fitting Condition:        1E-10

   => Auxiliary Basis Set <=

  Basis Set: (AUG-CC-PVTZ AUX)
    Blend: AUG-CC-PVTZ-JKFIT
    Number of shells: 58
    Number of basis function: 196
    Number of Cartesian functions: 241
    Spherical Harmonics?: true
    Max angular momentum: 4

  Minimum eigenvalue in the overlap matrix is 3.8755423687E-04.
  Using Symmetric Orthogonalization.

  SCF Guess: Superposition of Atomic Densities via on-the-fly atomic UHF.

  ==> Iterations <==

                           Total Energy        Delta E     RMS |[F,P]|

   @DF-RHF iter SAD:   -75.47680428507012   -7.54768e+01   0.00000e+00 
   @DF-RHF iter   1:   -75.97600029736142   -4.99196e-01   5.09282e-03 DIIS
   @DF-RHF iter   2:   -76.02853088122781   -5.25306e-02   3.47218e-03 DIIS
   @DF-RHF iter   3:   -76.05999281091904   -3.14619e-02   2.35784e-04 DIIS
   @DF-RHF iter   4:   -76.06038048087696   -3.87670e-04   5.63844e-05 DIIS
   @DF-RHF iter   5:   -76.06040466183183   -2.41810e-05   1.28042e-05 DIIS
   @DF-RHF iter   6:   -76.06040663784594   -1.97601e-06   2.79888e-06 DIIS
   @DF-RHF iter   7:   -76.06040674163464   -1.03789e-07   5.02328e-07 DIIS
   @DF-RHF iter   8:   -76.06040674457375   -2.93912e-09   8.41169e-08 DIIS
   @DF-RHF iter   9:   -76.06040674463785   -6.40910e-11   2.05260e-08 DIIS
   @DF-RHF iter  10:   -76.06040674464154   -3.69482e-12   3.03990e-09 DIIS
  Energy and wave function converged.


  ==> Post-Iterations <==

    Orbital Energies [Eh]
    ---------------------

    Doubly Occupied:                                                      

       1A    -20.567892     2A     -1.353262     3A     -0.715192  
       4A     -0.586245     5A     -0.510455  

    Virtual:                                                              

       6A      0.029360     7A      0.047729     8A      0.135822  
       9A      0.158743    10A      0.175326    11A      0.183178  
      12A      0.227185    13A      0.245093    14A      0.265590  
      15A      0.299676    16A      0.309942    17A      0.365954  
      18A      0.437815    19A      0.466463    20A      0.599049  
      21A      0.659169    22A      0.707753    23A      0.723010  
      24A      0.731616    25A      0.831723    26A      0.847039  
      27A      0.892027    28A      0.913018    29A      0.917502  
      30A      0.922908    31A      0.931446    32A      0.960815  
      33A      1.021732    34A      1.043788    35A      1.082693  
      36A      1.108609    37A      1.177243    38A      1.183261  
      39A      1.260319    40A      1.510789    41A      1.531708  
      42A      1.582909    43A      1.804941    44A      1.826060  
      45A      1.985389    46A      2.120224    47A      2.263551  
      48A      2.316384    49A      2.326979    50A      2.419076  
      51A      2.421982    52A      2.443639    53A      2.480812  
      54A      2.674906    55A      2.697414    56A      2.774554  
      57A      2.812099    58A      2.885491    59A      3.657241  
      60A      3.740784    61A      4.022265    62A      4.085140  
      63A      4.159807    64A      4.253509    65A      4.283251  
      66A      4.371236    67A      4.378351    68A      4.407833  
      69A      4.522202    70A      4.729923    71A      4.851968  
      72A      5.153681    73A      5.157665    74A      5.249711  
      75A      5.331538    76A      5.530523    77A      5.661410  
      78A      6.185929    79A      6.514120    80A      6.715234  
      81A      6.912301    82A      7.137646    83A      7.260517  
      84A      7.300479    85A      7.321861    86A      7.339700  
      87A      7.361207    88A      7.540237    89A      7.898816  
      90A      7.935764    91A      8.820016    92A     15.774706  

    Final Occupation by Irrep:
              A 
    DOCC [     5 ]

  @DF-RHF Final Energy:   -76.06040674464154

   => Energetics <=

    Nuclear Repulsion Energy =              9.1789120342590955
    One-Electron Energy =                -123.0125464105926056
    Two-Electron Energy =                  37.7732276316919666
    Total Energy =                        -76.0604067446415399

Computation Completed


Properties will be evaluated at   0.000000,   0.000000,   0.000000 [a0]

Properties computed using the SCF density matrix

  Nuclear Dipole Moment: [e a0]
     X:    84.8859      Y:    -1.4206      Z:     0.0016

  Electronic Dipole Moment: [e a0]
     X:   -84.5412      Y:     2.1271      Z:    -0.0016

  Dipole Moment: [e a0]
     X:     0.3447      Y:     0.7065      Z:    -0.0000     Total:     0.7861

  Dipole Moment: [D]
     X:     0.8760      Y:     1.7957      Z:    -0.0000     Total:     1.9980


*** tstop() called on node37.bme.utexas.edu at Sat Apr 11 16:54:53 2020
Module time:
	user time   =       5.05 seconds =       0.08 minutes
	system time =       0.31 seconds =       0.01 minutes
	total time  =          1 seconds =       0.02 minutes
Total time:
	user time   =       5.05 seconds =       0.08 minutes
	system time =       0.31 seconds =       0.01 minutes
	total time  =          1 seconds =       0.02 minutes

*** tstart() called on node37.bme.utexas.edu
*** at Sat Apr 11 16:54:53 2020


  //>>>>>>>>>>>>>>>>>>>>>>>>>>>>>>>>>>>//
  //               DFMP2               //
  //<<<<<<<<<<<<<<<<<<<<<<<<<<<<<<<<<<<//

   => Loading Basis Set <=

    Name: (AUG-CC-PVTZ AUX)
    Role: RIFIT
    Keyword: DF_BASIS_MP2
    atoms 1   entry O          line   264 file /home/liuchw/anaconda3/envs/psi4env/share/psi4/basis/aug-cc-pvtz-ri.gbs 
    atoms 2-3 entry H          line    30 file /home/liuchw/anaconda3/envs/psi4env/share/psi4/basis/aug-cc-pvtz-ri.gbs 

	 --------------------------------------------------------
	                          DF-MP2                         
	      2nd-Order Density-Fitted Moller-Plesset Theory     
	              RMP2 Wavefunction,   6 Threads             
	                                                         
	        Rob Parrish, Justin Turney, Andy Simmonett,      
	           Ed Hohenstein, and C. David Sherrill          
	 --------------------------------------------------------

   => Auxiliary Basis Set <=

  Basis Set: (AUG-CC-PVTZ AUX)
    Blend: AUG-CC-PVTZ-RI
    Number of shells: 56
    Number of basis function: 198
    Number of Cartesian functions: 246
    Spherical Harmonics?: true
    Max angular momentum: 4

	 --------------------------------------------------------
	                 NBF =    92, NAUX =   198
	 --------------------------------------------------------
	   CLASS    FOCC     OCC    AOCC    AVIR     VIR    FVIR
	   PAIRS       0       5       5      87      87       0
	 --------------------------------------------------------

	-----------------------------------------------------------
	 ==================> DF-MP2 Energies <==================== 
	-----------------------------------------------------------
	 Reference Energy          =     -76.0604067446415399 [Eh]
	 Singles Energy            =      -0.0000000000000000 [Eh]
	 Same-Spin Energy          =      -0.0683837916033281 [Eh]
	 Opposite-Spin Energy      =      -0.2152929284760725 [Eh]
	 Correlation Energy        =      -0.2836767200794005 [Eh]
	 Total Energy              =     -76.3440834647209385 [Eh]
	-----------------------------------------------------------
	 ================> DF-SCS-MP2 Energies <================== 
	-----------------------------------------------------------
	 SCS Same-Spin Scale       =       0.3333333333333333 [-]
	 SCS Opposite-Spin Scale   =       1.2000000000000000 [-]
	 SCS Same-Spin Energy      =      -0.0227945972011094 [Eh]
	 SCS Opposite-Spin Energy  =      -0.2583515141712869 [Eh]
	 SCS Correlation Energy    =      -0.2811461113723963 [Eh]
	 SCS Total Energy          =     -76.3415528560139336 [Eh]
	-----------------------------------------------------------


*** tstop() called on node37.bme.utexas.edu at Sat Apr 11 16:54:53 2020
Module time:
	user time   =       2.01 seconds =       0.03 minutes
	system time =       0.13 seconds =       0.00 minutes
	total time  =          0 seconds =       0.00 minutes
Total time:
	user time   =       7.06 seconds =       0.12 minutes
	system time =       0.44 seconds =       0.01 minutes
	total time  =          1 seconds =       0.02 minutes

  //>>>>>>>>>>>>>>>>>>>>>>>>>>>>>>>>>>>>//
  // CBS Computation: MP2 / AUG-CC-PVQZ //
  //<<<<<<<<<<<<<<<<<<<<<<<<<<<<<<<<<<<<//


Scratch directory: /scratch//

*** tstart() called on node37.bme.utexas.edu
*** at Sat Apr 11 16:54:53 2020

   => Loading Basis Set <=

    Name: AUG-CC-PVQZ
    Role: ORBITAL
    Keyword: BASIS
    atoms 1   entry O          line   423 file /home/liuchw/anaconda3/envs/psi4env/share/psi4/basis/aug-cc-pvqz.gbs 
    atoms 2-3 entry H          line    40 file /home/liuchw/anaconda3/envs/psi4env/share/psi4/basis/aug-cc-pvqz.gbs 


         ---------------------------------------------------------
                                   SCF
               by Justin Turney, Rob Parrish, Andy Simmonett
                          and Daniel G. A. Smith
                              RHF Reference
                        6 Threads,  38146 MiB Core
         ---------------------------------------------------------

  ==> Geometry <==

    Molecular point group: c1
    Full point group: C1

    Geometry (in Angstrom), charge = 0, multiplicity = 1:

       Center              X                  Y                   Z               Mass       
    ------------   -----------------  -----------------  -----------------  -----------------
         O            4.439998225307    -0.181704003239     0.000086846915    15.994914619570
         H            4.699856225307     0.350936996761     0.754148846915     1.007825032230
         H            4.699845225307     0.350919996761    -0.753994153085     1.007825032230

  Running in c1 symmetry.

  Rotational constants: A =     10.11215  B =      0.04675  C =      0.04667 [cm^-1]
  Rotational constants: A = 303154.56494  B =   1401.43140  C =   1399.00585 [MHz]
  Nuclear repulsion =    9.178912034259096

  Charge       = 0
  Multiplicity = 1
  Electrons    = 10
  Nalpha       = 5
  Nbeta        = 5

  ==> Algorithm <==

  SCF Algorithm Type is DF.
  DIIS enabled.
  MOM disabled.
  Fractional occupation disabled.
  Guess Type is SAD.
  Energy threshold   = 1.00e-07
  Density threshold  = 1.00e-08
  Integral threshold = 0.00e+00

  ==> Primary Basis <==

  Basis Set: AUG-CC-PVQZ
    Blend: AUG-CC-PVQZ
    Number of shells: 48
    Number of basis function: 172
    Number of Cartesian functions: 215
    Spherical Harmonics?: true
    Max angular momentum: 4

   => Loading Basis Set <=

    Name: (AUG-CC-PVQZ AUX)
    Role: JKFIT
    Keyword: DF_BASIS_SCF
    atoms 1   entry O          line   318 file /home/liuchw/anaconda3/envs/psi4env/share/psi4/basis/aug-cc-pvqz-jkfit.gbs 
    atoms 2-3 entry H          line    70 file /home/liuchw/anaconda3/envs/psi4env/share/psi4/basis/aug-cc-pvqz-jkfit.gbs 

  ==> Pre-Iterations <==

   -------------------------------------------------------
    Irrep   Nso     Nmo     Nalpha   Nbeta   Ndocc  Nsocc
   -------------------------------------------------------
     A        172     172       0       0       0       0
   -------------------------------------------------------
    Total     172     172       5       5       5       0
   -------------------------------------------------------

  ==> Integral Setup <==

  DFHelper Memory: AOs need 0.074 GiB; user supplied 27.940 GiB. Using in-core AOs.

  ==> MemDFJK: Density-Fitted J/K Matrices <==

    J tasked:                   Yes
    K tasked:                   Yes
    wK tasked:                   No
    OpenMP threads:               6
    Memory [MiB]:             28610
    Algorithm:                 Core
    Schwarz Cutoff:           1E-12
    Mask sparsity (%):       0.0000
    Fitting Condition:        1E-10

   => Auxiliary Basis Set <=

  Basis Set: (AUG-CC-PVQZ AUX)
    Blend: AUG-CC-PVQZ-JKFIT
    Number of shells: 70
    Number of basis function: 294
    Number of Cartesian functions: 400
    Spherical Harmonics?: true
    Max angular momentum: 5

  Minimum eigenvalue in the overlap matrix is 8.7048129248E-05.
  Using Symmetric Orthogonalization.

  SCF Guess: Superposition of Atomic Densities via on-the-fly atomic UHF.

  ==> Iterations <==

                           Total Energy        Delta E     RMS |[F,P]|

   @DF-RHF iter SAD:   -75.48194658319588   -7.54819e+01   0.00000e+00 
   @DF-RHF iter   1:   -75.98108233766550   -4.99136e-01   2.72989e-03 DIIS
   @DF-RHF iter   2:   -76.03371350980431   -5.26312e-02   1.86543e-03 DIIS
   @DF-RHF iter   3:   -76.06537459469934   -3.16611e-02   1.27072e-04 DIIS
   @DF-RHF iter   4:   -76.06576433972440   -3.89745e-04   3.10646e-05 DIIS
   @DF-RHF iter   5:   -76.06578940949456   -2.50698e-05   7.03051e-06 DIIS
   @DF-RHF iter   6:   -76.06579146675131   -2.05726e-06   1.57919e-06 DIIS
   @DF-RHF iter   7:   -76.06579158187614   -1.15125e-07   2.93237e-07 DIIS
   @DF-RHF iter   8:   -76.06579158536312   -3.48697e-09   4.71438e-08 DIIS
   @DF-RHF iter   9:   -76.06579158543563   -7.25180e-11   1.12441e-08 DIIS
   @DF-RHF iter  10:   -76.06579158543931   -3.68061e-12   1.69602e-09 DIIS
  Energy and wave function converged.


  ==> Post-Iterations <==

    Orbital Energies [Eh]
    ---------------------

    Doubly Occupied:                                                      

       1A    -20.565441     2A     -1.352533     3A     -0.715158  
       4A     -0.586294     5A     -0.510587  

    Virtual:                                                              

       6A      0.026880     7A      0.043122     8A      0.114068  
       9A      0.133477    10A      0.151198    11A      0.158744  
      12A      0.184961    13A      0.197124    14A      0.209429  
      15A      0.237240    16A      0.256946    17A      0.291756  
      18A      0.357896    19A      0.390237    20A      0.469720  
      21A      0.508976    22A      0.542023    23A      0.547836  
      24A      0.556335    25A      0.614503    26A      0.632268  
      27A      0.647189    28A      0.663366    29A      0.665586  
      30A      0.684511    31A      0.706496    32A      0.719507  
      33A      0.769894    34A      0.789712    35A      0.802307  
      36A      0.803136    37A      0.843033    38A      0.853933  
      39A      0.967906    40A      1.122459    41A      1.136987  
      42A      1.209349    43A      1.332569    44A      1.441491  
      45A      1.482946    46A      1.509609    47A      1.513650  
      48A      1.526260    49A      1.554037    50A      1.589536  
      51A      1.621299    52A      1.638530    53A      1.662224  
      54A      1.664271    55A      1.688427    56A      1.702843  
      57A      1.736886    58A      1.751744    59A      1.766339  
      60A      1.775735    61A      1.844354    62A      1.864524  
      63A      1.895022    64A      1.916642    65A      1.984333  
      66A      2.007715    67A      2.033836    68A      2.039924  
      69A      2.099281    70A      2.206103    71A      2.216276  
      72A      2.314603    73A      2.436493    74A      2.627863  
      75A      2.633379    76A      2.888574    77A      2.960353  
      78A      2.995391    79A      3.041466    80A      3.056647  
      81A      3.086847    82A      3.268092    83A      3.307148  
      84A      3.310786    85A      3.489630    86A      3.588413  
      87A      3.643540    88A      3.688018    89A      3.720833  
      90A      3.782565    91A      3.923163    92A      4.078758  
      93A      4.166062    94A      4.167413    95A      4.178235  
      96A      4.178713    97A      4.231739    98A      4.330091  
      99A      4.432773   100A      4.582378   101A      4.731296  
     102A      4.746068   103A      4.778810   104A      4.781332  
     105A      4.810648   106A      4.879695   107A      4.995904  
     108A      5.236161   109A      5.313885   110A      5.524861  
     111A      5.537993   112A      5.860356   113A      5.891185  
     114A      6.075348   115A      6.237421   116A      6.824459  
     117A      6.887697   118A      6.891865   119A      6.907825  
     120A      7.733561   121A      7.780225   122A      7.785580  
     123A      7.822988   124A      7.841496   125A      7.900944  
     126A      7.925137   127A      8.022983   128A      8.166389  
     129A      8.202453   130A      8.533915   131A      8.625823  
     132A      8.654617   133A      8.692998   134A      8.791602  
     135A      8.848390   136A      8.985993   137A      9.042801  
     138A      9.225438   139A      9.674103   140A      9.908484  
     141A      9.922180   142A      9.946970   143A      9.994818  
     144A     10.328859   145A     10.452911   146A     10.675423  
     147A     11.019267   148A     11.071594   149A     11.093739  
     150A     11.269585   151A     11.310294   152A     11.414425  
     153A     11.717893   154A     11.797043   155A     11.830534  
     156A     11.990749   157A     12.205008   158A     12.209285  
     159A     12.630249   160A     12.744531   161A     12.834209  
     162A     12.910209   163A     13.174969   164A     14.008042  
     165A     14.019025   166A     14.515041   167A     14.813259  
     168A     14.912123   169A     15.264933   170A     16.846254  
     171A     17.300489   172A     45.511035  

    Final Occupation by Irrep:
              A 
    DOCC [     5 ]

  @DF-RHF Final Energy:   -76.06579158543931

   => Energetics <=

    Nuclear Repulsion Energy =              9.1789120342590955
    One-Electron Energy =                -123.0293826425014601
    Two-Electron Energy =                  37.7846790228030400
    Total Energy =                        -76.0657915854393138

Computation Completed


Properties will be evaluated at   0.000000,   0.000000,   0.000000 [a0]

Properties computed using the SCF density matrix

  Nuclear Dipole Moment: [e a0]
     X:    84.8859      Y:    -1.4206      Z:     0.0016

  Electronic Dipole Moment: [e a0]
     X:   -84.5416      Y:     2.1263      Z:    -0.0016

  Dipole Moment: [e a0]
     X:     0.3443      Y:     0.7057      Z:    -0.0000     Total:     0.7852

  Dipole Moment: [D]
     X:     0.8751      Y:     1.7937      Z:    -0.0000     Total:     1.9958


*** tstop() called on node37.bme.utexas.edu at Sat Apr 11 16:54:55 2020
Module time:
	user time   =       8.05 seconds =       0.13 minutes
	system time =       0.49 seconds =       0.01 minutes
	total time  =          2 seconds =       0.03 minutes
Total time:
	user time   =      15.15 seconds =       0.25 minutes
	system time =       0.93 seconds =       0.02 minutes
	total time  =          3 seconds =       0.05 minutes

*** tstart() called on node37.bme.utexas.edu
*** at Sat Apr 11 16:54:55 2020


  //>>>>>>>>>>>>>>>>>>>>>>>>>>>>>>>>>>>//
  //               DFMP2               //
  //<<<<<<<<<<<<<<<<<<<<<<<<<<<<<<<<<<<//

   => Loading Basis Set <=

    Name: (AUG-CC-PVQZ AUX)
    Role: RIFIT
    Keyword: DF_BASIS_MP2
    atoms 1   entry O          line   332 file /home/liuchw/anaconda3/envs/psi4env/share/psi4/basis/aug-cc-pvqz-ri.gbs 
    atoms 2-3 entry H          line    30 file /home/liuchw/anaconda3/envs/psi4env/share/psi4/basis/aug-cc-pvqz-ri.gbs 

	 --------------------------------------------------------
	                          DF-MP2                         
	      2nd-Order Density-Fitted Moller-Plesset Theory     
	              RMP2 Wavefunction,   6 Threads             
	                                                         
	        Rob Parrish, Justin Turney, Andy Simmonett,      
	           Ed Hohenstein, and C. David Sherrill          
	 --------------------------------------------------------

   => Auxiliary Basis Set <=

  Basis Set: (AUG-CC-PVQZ AUX)
    Blend: AUG-CC-PVQZ-RI
    Number of shells: 76
    Number of basis function: 328
    Number of Cartesian functions: 447
    Spherical Harmonics?: true
    Max angular momentum: 5

	 --------------------------------------------------------
	                 NBF =   172, NAUX =   328
	 --------------------------------------------------------
	   CLASS    FOCC     OCC    AOCC    AVIR     VIR    FVIR
	   PAIRS       0       5       5     167     167       0
	 --------------------------------------------------------

	-----------------------------------------------------------
	 ==================> DF-MP2 Energies <==================== 
	-----------------------------------------------------------
	 Reference Energy          =     -76.0657915854393138 [Eh]
	 Singles Energy            =      -0.0000000000000000 [Eh]
	 Same-Spin Energy          =      -0.0727120013664575 [Eh]
	 Opposite-Spin Energy      =      -0.2442300608601503 [Eh]
	 Correlation Energy        =      -0.3169420622266078 [Eh]
	 Total Energy              =     -76.3827336476659156 [Eh]
	-----------------------------------------------------------
	 ================> DF-SCS-MP2 Energies <================== 
	-----------------------------------------------------------
	 SCS Same-Spin Scale       =       0.3333333333333333 [-]
	 SCS Opposite-Spin Scale   =       1.2000000000000000 [-]
	 SCS Same-Spin Energy      =      -0.0242373337888192 [Eh]
	 SCS Opposite-Spin Energy  =      -0.2930760730321804 [Eh]
	 SCS Correlation Energy    =      -0.3173134068209995 [Eh]
	 SCS Total Energy          =     -76.3831049922603142 [Eh]
	-----------------------------------------------------------


*** tstop() called on node37.bme.utexas.edu at Sat Apr 11 16:54:55 2020
Module time:
	user time   =       3.09 seconds =       0.05 minutes
	system time =       0.18 seconds =       0.00 minutes
	total time  =          0 seconds =       0.00 minutes
Total time:
	user time   =      18.25 seconds =       0.30 minutes
	system time =       1.11 seconds =       0.02 minutes
	total time  =          3 seconds =       0.05 minutes

  //>>>>>>>>>>>>>>>>>>>>>>>>>>>>>>>>>>>//
  //  CBS Results: mp2/aug-cc-pv[tq]z  //
  //<<<<<<<<<<<<<<<<<<<<<<<<<<<<<<<<<<<//


   ==> HF <==

   HI-zeta (4) Energy:               -76.065791585439


   ==> Helgaker 2-point correlated extrapolation for method: MP2 <==

   LO-zeta (3) Energy:               -76.344083464721
   HI-zeta (4) Energy:               -76.382733647666
   Alpha (exponent) Value:             3.000000000000
   Extrapolated Energy:              -76.410937835220

   @Extrapolated MP2/(T,Q):          -76.410937835220



   ==> Helgaker 2-point correlated extrapolation for method: HF <==

   LO-zeta (3) Energy:               -76.060406744642
   HI-zeta (4) Energy:               -76.065791585439
   Alpha (exponent) Value:             3.000000000000
   Extrapolated Energy:              -76.069721063859

   @Extrapolated HF/(T,Q):           -76.069721063859


   ==> Components <==

  ---------------------------------------------------------------------------------------------------------
                          Method / Basis                      Rqd      Energy [Eh]   Variable
  ---------------------------------------------------------------------------------------------------------
                              hf / aug-cc-pvtz                  *     -76.06040674   HF TOTAL ENERGY
                             mp2 / aug-cc-pvtz                  *     -76.34408346   MP2 TOTAL ENERGY
                              hf / aug-cc-pvqz                  *     -76.06579159   HF TOTAL ENERGY
                             mp2 / aug-cc-pvqz                  *     -76.38273365   MP2 TOTAL ENERGY
  ---------------------------------------------------------------------------------------------------------

   ==> Stages <==

  ---------------------------------------------------------------------------------------------------------
      Stage               Method / Basis                       Wt      Energy [Eh]   Scheme
  ---------------------------------------------------------------------------------------------------------
        scf                   hf / aug-cc-pvqz                  1     -76.06579159   xtpl_highest_1
       corl                  mp2 / aug-cc-pv[tq]z               1     -76.41093784   corl_xtpl_helgaker_2
       corl                   hf / aug-cc-pv[tq]z              -1     -76.06972106   corl_xtpl_helgaker_2
  ---------------------------------------------------------------------------------------------------------

   ==> CBS <==

  ---------------------------------------------------------------------------------------------------------
      Stage               Method / Basis                               Energy [Eh]   Scheme
  ---------------------------------------------------------------------------------------------------------
        scf                   hf / aug-cc-pvqz                        -76.06579159   xtpl_highest_1
       corl                  mp2 / aug-cc-pv[tq]z                      -0.34121677   corl_xtpl_helgaker_2
      total                  CBS                                      -76.40700836   
  ---------------------------------------------------------------------------------------------------------
   => Loading Basis Set <=

    Name: DEF2-SVP
    Role: ORBITAL
    Keyword: BASIS
    atoms 1   entry O          line   130 file /home/liuchw/anaconda3/envs/psi4env/share/psi4/basis/def2-svp.gbs 
    atoms 2-3 entry H          line    15 file /home/liuchw/anaconda3/envs/psi4env/share/psi4/basis/def2-svp.gbs 


       N-Body: Complex Energy (fragments = (2,), basis = (2,):   -76.40700835680035)

       N-Body: Computing complex (2/4) with fragments (2,) in the basis of fragments (1, 2).


Scratch directory: /scratch//

  //>>>>>>>>>>>>>>>>>>>>>>>>>>>>>>>>>>>//
  //   CBS Setup: mp2/aug-cc-pv[tq]z   //
  //<<<<<<<<<<<<<<<<<<<<<<<<<<<<<<<<<<<//

    Naive listing of computations required.
             hf / aug-cc-pvqz              for  HF TOTAL ENERGY
            mp2 / aug-cc-pvtz              for  MP2 TOTAL ENERGY
            mp2 / aug-cc-pvqz              for  MP2 TOTAL ENERGY
             hf / aug-cc-pvtz              for  HF TOTAL ENERGY
             hf / aug-cc-pvqz              for  HF TOTAL ENERGY

    Enlightened listing of computations required.
            mp2 / aug-cc-pvtz              for  MP2 TOTAL ENERGY
            mp2 / aug-cc-pvqz              for  MP2 TOTAL ENERGY

    Full listing of computations to be obtained (required and bonus).
             hf / aug-cc-pvtz              for  HF TOTAL ENERGY
            mp2 / aug-cc-pvtz              for  MP2 TOTAL ENERGY
             hf / aug-cc-pvqz              for  HF TOTAL ENERGY
            mp2 / aug-cc-pvqz              for  MP2 TOTAL ENERGY

  //>>>>>>>>>>>>>>>>>>>>>>>>>>>>>>>>>>>>//
  // CBS Computation: MP2 / AUG-CC-PVTZ //
  //<<<<<<<<<<<<<<<<<<<<<<<<<<<<<<<<<<<<//


Scratch directory: /scratch//

*** tstart() called on node37.bme.utexas.edu
*** at Sat Apr 11 16:54:57 2020

   => Loading Basis Set <=

    Name: AUG-CC-PVTZ
    Role: ORBITAL
    Keyword: BASIS
    atoms 1           entry CL         line   988 file /home/liuchw/anaconda3/envs/psi4env/share/psi4/basis/aug-cc-pvtz.gbs 
    atoms 2-7         entry C          line   239 file /home/liuchw/anaconda3/envs/psi4env/share/psi4/basis/aug-cc-pvtz.gbs 
    atoms 8-12, 14-15 entry H          line    40 file /home/liuchw/anaconda3/envs/psi4env/share/psi4/basis/aug-cc-pvtz.gbs 
    atoms 13          entry O          line   331 file /home/liuchw/anaconda3/envs/psi4env/share/psi4/basis/aug-cc-pvtz.gbs 


         ---------------------------------------------------------
                                   SCF
               by Justin Turney, Rob Parrish, Andy Simmonett
                          and Daniel G. A. Smith
                              RHF Reference
                        6 Threads,  38146 MiB Core
         ---------------------------------------------------------

  ==> Geometry <==

    Molecular point group: c1
    Full point group: C1

    Geometry (in Angstrom), charge = 0, multiplicity = 1:

       Center              X                  Y                   Z               Mass       
    ------------   -----------------  -----------------  -----------------  -----------------
      Gh(CL)          1.446037225307    -0.065339003239     0.000033846915    34.968852682000
      Gh(C)          -0.286068774693     0.003667996761    -0.000005153085    12.000000000000
      Gh(C)          -0.924722774693     1.241311996761    -0.000040153085    12.000000000000
      Gh(C)          -1.017877774693    -1.181272003239    -0.000000153085    12.000000000000
      Gh(C)          -2.316696774693     1.287933996761    -0.000069153085    12.000000000000
      Gh(C)          -2.409233774693    -1.120439003239    -0.000029153085    12.000000000000
      Gh(C)          -3.061809774693     0.110644996761    -0.000064153085    12.000000000000
      Gh(H)          -0.335680774693     2.146910996761    -0.000045153085     1.007825032230
      Gh(H)          -0.499668774693    -2.129186003239     0.000028846915     1.007825032230
      Gh(H)          -2.816878774693     2.246639996761    -0.000098153085     1.007825032230
      Gh(H)          -2.981559774693    -2.037878003239    -0.000027153085     1.007825032230
      Gh(H)          -4.141885774693     0.152194996761    -0.000090153085     1.007825032230
         O            4.439998225307    -0.181704003239     0.000086846915    15.994914619570
         H            4.699856225307     0.350936996761     0.754148846915     1.007825032230
         H            4.699845225307     0.350919996761    -0.753994153085     1.007825032230

  Running in c1 symmetry.

  Rotational constants: A =      0.18668  B =      0.02279  C =      0.02037 [cm^-1]
  Rotational constants: A =   5596.62419  B =    683.33156  C =    610.66398 [MHz]
  Nuclear repulsion =    9.178912034259096

  Charge       = 0
  Multiplicity = 1
  Electrons    = 10
  Nalpha       = 5
  Nbeta        = 5

  ==> Algorithm <==

  SCF Algorithm Type is DF.
  DIIS enabled.
  MOM disabled.
  Fractional occupation disabled.
  Guess Type is SAD.
  Energy threshold   = 1.00e-07
  Density threshold  = 1.00e-08
  Integral threshold = 0.00e+00

  ==> Primary Basis <==

  Basis Set: AUG-CC-PVTZ
    Blend: AUG-CC-PVTZ
    Number of shells: 177
    Number of basis function: 533
    Number of Cartesian functions: 619
    Spherical Harmonics?: true
    Max angular momentum: 3

   => Loading Basis Set <=

    Name: (AUG-CC-PVTZ AUX)
    Role: JKFIT
    Keyword: DF_BASIS_SCF
    atoms 1           entry CL         line   816 file /home/liuchw/anaconda3/envs/psi4env/share/psi4/basis/aug-cc-pvtz-jkfit.gbs 
    atoms 2-7         entry C          line   162 file /home/liuchw/anaconda3/envs/psi4env/share/psi4/basis/aug-cc-pvtz-jkfit.gbs 
    atoms 8-12, 14-15 entry H          line    70 file /home/liuchw/anaconda3/envs/psi4env/share/psi4/basis/aug-cc-pvtz-jkfit.gbs 
    atoms 13          entry O          line   286 file /home/liuchw/anaconda3/envs/psi4env/share/psi4/basis/aug-cc-pvtz-jkfit.gbs 

  ==> Pre-Iterations <==

   -------------------------------------------------------
    Irrep   Nso     Nmo     Nalpha   Nbeta   Ndocc  Nsocc
   -------------------------------------------------------
     A        533     533       0       0       0       0
   -------------------------------------------------------
    Total     533     533       5       5       5       0
   -------------------------------------------------------

  ==> Integral Setup <==

  DFHelper Memory: AOs need 2.338 GiB; user supplied 27.940 GiB. Using in-core AOs.

  ==> MemDFJK: Density-Fitted J/K Matrices <==

    J tasked:                   Yes
    K tasked:                   Yes
    wK tasked:                   No
    OpenMP threads:               6
    Memory [MiB]:             28610
    Algorithm:                 Core
    Schwarz Cutoff:           1E-12
    Mask sparsity (%):      10.8248
    Fitting Condition:        1E-10

   => Auxiliary Basis Set <=

  Basis Set: (AUG-CC-PVTZ AUX)
    Blend: AUG-CC-PVTZ-JKFIT
    Number of shells: 350
    Number of basis function: 1196
    Number of Cartesian functions: 1482
    Spherical Harmonics?: true
    Max angular momentum: 4

  Minimum eigenvalue in the overlap matrix is 7.9836633268E-07.
  Using Symmetric Orthogonalization.

  SCF Guess: Superposition of Atomic Densities via on-the-fly atomic UHF.

  ==> Iterations <==

                           Total Energy        Delta E     RMS |[F,P]|

   @DF-RHF iter SAD:   -75.47680428084263   -7.54768e+01   0.00000e+00 
   @DF-RHF iter   1:   -75.97606770739004   -4.99263e-01   8.79125e-04 DIIS
   @DF-RHF iter   2:   -76.02860672033546   -5.25390e-02   5.99359e-04 DIIS
   @DF-RHF iter   3:   -76.06006640430066   -3.14597e-02   4.07033e-05 DIIS
   @DF-RHF iter   4:   -76.06045420885624   -3.87805e-04   9.73934e-06 DIIS
   @DF-RHF iter   5:   -76.06047843326940   -2.42244e-05   2.21164e-06 DIIS
   @DF-RHF iter   6:   -76.06048041311213   -1.97984e-06   4.83778e-07 DIIS
   @DF-RHF iter   7:   -76.06048051728413   -1.04172e-07   8.70046e-08 DIIS
   @DF-RHF iter   8:   -76.06048052025299   -2.96886e-09   1.45960e-08 DIIS
   @DF-RHF iter   9:   -76.06048052031798   -6.49862e-11   3.55592e-09 DIIS
  Energy and wave function converged.


  ==> Post-Iterations <==

    Orbital Energies [Eh]
    ---------------------

    Doubly Occupied:                                                      

       1A    -20.567747     2A     -1.353176     3A     -0.715106  
       4A     -0.586166     5A     -0.510455  

    Virtual:                                                              

       6A      0.018610     7A      0.027116     8A      0.033839  
       9A      0.042869    10A      0.046646    11A      0.050976  
      12A      0.058814    13A      0.074549    14A      0.081028  
      15A      0.090112    16A      0.096055    17A      0.100339  
      18A      0.100445    19A      0.105433    20A      0.114393  
      21A      0.119627    22A      0.126143    23A      0.134106  
      24A      0.137123    25A      0.137731    26A      0.138595  
      27A      0.142417    28A      0.147178    29A      0.155159  
      30A      0.163910    31A      0.171439    32A      0.175412  
      33A      0.179535    34A      0.187245    35A      0.197058  
      36A      0.199648    37A      0.201269    38A      0.212407  
      39A      0.220082    40A      0.233202    41A      0.234527  
      42A      0.242177    43A      0.251874    44A      0.255678  
      45A      0.260650    46A      0.268167    47A      0.273556  
      48A      0.287684    49A      0.293075    50A      0.303530  
      51A      0.304990    52A      0.311583    53A      0.315890  
      54A      0.316977    55A      0.325000    56A      0.336521  
      57A      0.340714    58A      0.356032    59A      0.356586  
      60A      0.363735    61A      0.367046    62A      0.370285  
      63A      0.370748    64A      0.373147    65A      0.378057  
      66A      0.382484    67A      0.392162    68A      0.405577  
      69A      0.406195    70A      0.410233    71A      0.417008  
      72A      0.423800    73A      0.425429    74A      0.425640  
      75A      0.436991    76A      0.439941    77A      0.449933  
      78A      0.452051    79A      0.457150    80A      0.472779  
      81A      0.474490    82A      0.475367    83A      0.478849  
      84A      0.501848    85A      0.510941    86A      0.523223  
      87A      0.538137    88A      0.541421    89A      0.550067  
      90A      0.551323    91A      0.560198    92A      0.563557  
      93A      0.585426    94A      0.596442    95A      0.599906  
      96A      0.602065    97A      0.606962    98A      0.611331  
      99A      0.623291   100A      0.626613   101A      0.640487  
     102A      0.641971   103A      0.651104   104A      0.662531  
     105A      0.670411   106A      0.681651   107A      0.682267  
     108A      0.683946   109A      0.684124   110A      0.698479  
     111A      0.703356   112A      0.709293   113A      0.717395  
     114A      0.723814   115A      0.726015   116A      0.739694  
     117A      0.747388   118A      0.750333   119A      0.750972  
     120A      0.760296   121A      0.766676   122A      0.767001  
     123A      0.769904   124A      0.780917   125A      0.785935  
     126A      0.806920   127A      0.815973   128A      0.834398  
     129A      0.852734   130A      0.867892   131A      0.874118  
     132A      0.881133   133A      0.885475   134A      0.904944  
     135A      0.907388   136A      0.915149   137A      0.925722  
     138A      0.931354   139A      0.935458   140A      0.947625  
     141A      0.947780   142A      0.966979   143A      0.969880  
     144A      0.997793   145A      1.000623   146A      1.019506  
     147A      1.022109   148A      1.026601   149A      1.032956  
     150A      1.040357   151A      1.043429   152A      1.056160  
     153A      1.062109   154A      1.063307   155A      1.065948  
     156A      1.068908   157A      1.088289   158A      1.091096  
     159A      1.099515   160A      1.102796   161A      1.111158  
     162A      1.117482   163A      1.130275   164A      1.137390  
     165A      1.150926   166A      1.162142   167A      1.168493  
     168A      1.175476   169A      1.177790   170A      1.194227  
     171A      1.194340   172A      1.208731   173A      1.216937  
     174A      1.222995   175A      1.229126   176A      1.234097  
     177A      1.241708   178A      1.253184   179A      1.254552  
     180A      1.270452   181A      1.280005   182A      1.281703  
     183A      1.295190   184A      1.301246   185A      1.305385  
     186A      1.311426   187A      1.315935   188A      1.317066  
     189A      1.321836   190A      1.329936   191A      1.330831  
     192A      1.340826   193A      1.364166   194A      1.376026  
     195A      1.406718   196A      1.409577   197A      1.423008  
     198A      1.423156   199A      1.432209   200A      1.448822  
     201A      1.450489   202A      1.463700   203A      1.469285  
     204A      1.478411   205A      1.495709   206A      1.499678  
     207A      1.511844   208A      1.515753   209A      1.523789  
     210A      1.535442   211A      1.546135   212A      1.550055  
     213A      1.557194   214A      1.562066   215A      1.574191  
     216A      1.576036   217A      1.598791   218A      1.602610  
     219A      1.610472   220A      1.612782   221A      1.617846  
     222A      1.628537   223A      1.639031   224A      1.649993  
     225A      1.661103   226A      1.664303   227A      1.668172  
     228A      1.679816   229A      1.690327   230A      1.692394  
     231A      1.696651   232A      1.717823   233A      1.750073  
     234A      1.770608   235A      1.774431   236A      1.775268  
     237A      1.806684   238A      1.833015   239A      1.872351  
     240A      1.884116   241A      1.884848   242A      1.889935  
     243A      1.895529   244A      1.917967   245A      1.931028  
     246A      1.932267   247A      1.945997   248A      1.961611  
     249A      2.005914   250A      2.026455   251A      2.033134  
     252A      2.051001   253A      2.051844   254A      2.077135  
     255A      2.114247   256A      2.139475   257A      2.150010  
     258A      2.165949   259A      2.168351   260A      2.179923  
     261A      2.186699   262A      2.195689   263A      2.200173  
     264A      2.235286   265A      2.244569   266A      2.246438  
     267A      2.249031   268A      2.253437   269A      2.281850  
     270A      2.310709   271A      2.321846   272A      2.329903  
     273A      2.335959   274A      2.338196   275A      2.339543  
     276A      2.345749   277A      2.354300   278A      2.356669  
     279A      2.377383   280A      2.379553   281A      2.387517  
     282A      2.403865   283A      2.405223   284A      2.413004  
     285A      2.451922   286A      2.466132   287A      2.468521  
     288A      2.497649   289A      2.501350   290A      2.505692  
     291A      2.536237   292A      2.539203   293A      2.547031  
     294A      2.555205   295A      2.577755   296A      2.588972  
     297A      2.593117   298A      2.603338   299A      2.608386  
     300A      2.637361   301A      2.651208   302A      2.652004  
     303A      2.677873   304A      2.702958   305A      2.766181  
     306A      2.771052   307A      2.781270   308A      2.803791  
     309A      2.831117   310A      2.833100   311A      2.833337  
     312A      2.883065   313A      2.887094   314A      2.901727  
     315A      2.914603   316A      2.961511   317A      2.982482  
     318A      3.034090   319A      3.041100   320A      3.113955  
     321A      3.184748   322A      3.239824   323A      3.293613  
     324A      3.298187   325A      3.488344   326A      3.499805  
     327A      3.606001   328A      3.686967   329A      3.785845  
     330A      3.791014   331A      3.800010   332A      3.833861  
     333A      3.841137   334A      3.861780   335A      3.948999  
     336A      3.963518   337A      3.963568   338A      3.975318  
     339A      3.982631   340A      4.011275   341A      4.033981  
     342A      4.038296   343A      4.047237   344A      4.049953  
     345A      4.061544   346A      4.063974   347A      4.087683  
     348A      4.089843   349A      4.094068   350A      4.127713  
     351A      4.151095   352A      4.159121   353A      4.165530  
     354A      4.175153   355A      4.195021   356A      4.206385  
     357A      4.219689   358A      4.237865   359A      4.249066  
     360A      4.259549   361A      4.269530   362A      4.274310  
     363A      4.286416   364A      4.295775   365A      4.296599  
     366A      4.305012   367A      4.306436   368A      4.341946  
     369A      4.347415   370A      4.376115   371A      4.379572  
     372A      4.382199   373A      4.408853   374A      4.431436  
     375A      4.431687   376A      4.463221   377A      4.467255  
     378A      4.489333   379A      4.516498   380A      4.516767  
     381A      4.519633   382A      4.539066   383A      4.552216  
     384A      4.562305   385A      4.579128   386A      4.596030  
     387A      4.598080   388A      4.598206   389A      4.613231  
     390A      4.642611   391A      4.649900   392A      4.715340  
     393A      4.722048   394A      4.747088   395A      4.769134  
     396A      4.777063   397A      4.815690   398A      4.828587  
     399A      4.829976   400A      4.858167   401A      4.862009  
     402A      4.909185   403A      4.911895   404A      4.928897  
     405A      4.955175   406A      4.977291   407A      4.991590  
     408A      5.013036   409A      5.063176   410A      5.063588  
     411A      5.063893   412A      5.076491   413A      5.078587  
     414A      5.146851   415A      5.163448   416A      5.167852  
     417A      5.173017   418A      5.180930   419A      5.195066  
     420A      5.203347   421A      5.217326   422A      5.225557  
     423A      5.229080   424A      5.231789   425A      5.272585  
     426A      5.295400   427A      5.305619   428A      5.329604  
     429A      5.357698   430A      5.385017   431A      5.407903  
     432A      5.419162   433A      5.449975   434A      5.469395  
     435A      5.493246   436A      5.502096   437A      5.515913  
     438A      5.550432   439A      5.572982   440A      5.580658  
     441A      5.612375   442A      5.640087   443A      5.650570  
     444A      5.675675   445A      5.692143   446A      5.714978  
     447A      5.729978   448A      5.737381   449A      5.742354  
     450A      5.776547   451A      5.779644   452A      5.794511  
     453A      5.801779   454A      5.889636   455A      5.903153  
     456A      5.942530   457A      5.979951   458A      5.999846  
     459A      6.039606   460A      6.065382   461A      6.140876  
     462A      6.162276   463A      6.188689   464A      6.202349  
     465A      6.245869   466A      6.269272   467A      6.288454  
     468A      6.355341   469A      6.394436   470A      6.446011  
     471A      6.466387   472A      6.529475   473A      6.670376  
     474A      6.688711   475A      6.730472   476A      6.793947  
     477A      6.880766   478A      6.933758   479A      6.947675  
     480A      6.983456   481A      7.068277   482A      7.074582  
     483A      7.093193   484A      7.128497   485A      7.141485  
     486A      7.205419   487A      7.265216   488A      7.306299  
     489A      7.330416   490A      7.356753   491A      7.385434  
     492A      7.399832   493A      7.410211   494A      7.436946  
     495A      7.509407   496A      7.568284   497A      7.579261  
     498A      7.624379   499A      7.737814   500A      7.893722  
     501A      7.909442   502A      7.952018   503A      8.047947  
     504A      8.082588   505A      8.165130   506A      8.213710  
     507A      8.311506   508A      8.357298   509A      8.724160  
     510A      8.848691   511A      8.943330   512A      9.281884  
     513A      9.341635   514A      9.382159   515A     10.001525  
     516A     10.060771   517A     10.867384   518A     11.069073  
     519A     11.162356   520A     11.282974   521A     11.388446  
     522A     15.953851   523A     17.585736   524A     28.252298  
     525A     28.859880   526A     29.630888   527A     49.326274  
     528A     49.663198   529A     50.799159   530A     54.895818  
     531A     55.963306   532A     56.343351   533A    161.142801  

    Final Occupation by Irrep:
              A 
    DOCC [     5 ]

  @DF-RHF Final Energy:   -76.06048052031798

   => Energetics <=

    Nuclear Repulsion Energy =              9.1789120342590955
    One-Electron Energy =                -123.0134799824382412
    Two-Electron Energy =                  37.7740874278611685
    Total Energy =                        -76.0604805203179808

Computation Completed


Properties will be evaluated at   0.000000,   0.000000,   0.000000 [a0]

Properties computed using the SCF density matrix

  Nuclear Dipole Moment: [e a0]
     X:    84.8859      Y:    -1.4206      Z:     0.0016

  Electronic Dipole Moment: [e a0]
     X:   -84.5411      Y:     2.1264      Z:    -0.0016

  Dipole Moment: [e a0]
     X:     0.3448      Y:     0.7057      Z:    -0.0000     Total:     0.7854

  Dipole Moment: [D]
     X:     0.8763      Y:     1.7938      Z:    -0.0000     Total:     1.9964


*** tstop() called on node37.bme.utexas.edu at Sat Apr 11 16:55:12 2020
Module time:
	user time   =      74.65 seconds =       1.24 minutes
	system time =       3.06 seconds =       0.05 minutes
	total time  =         15 seconds =       0.25 minutes
Total time:
	user time   =      94.95 seconds =       1.58 minutes
	system time =       4.25 seconds =       0.07 minutes
	total time  =         20 seconds =       0.33 minutes

*** tstart() called on node37.bme.utexas.edu
*** at Sat Apr 11 16:55:12 2020


  //>>>>>>>>>>>>>>>>>>>>>>>>>>>>>>>>>>>//
  //               DFMP2               //
  //<<<<<<<<<<<<<<<<<<<<<<<<<<<<<<<<<<<//

   => Loading Basis Set <=

    Name: (AUG-CC-PVTZ AUX)
    Role: RIFIT
    Keyword: DF_BASIS_MP2
    atoms 1           entry CL         line   742 file /home/liuchw/anaconda3/envs/psi4env/share/psi4/basis/aug-cc-pvtz-ri.gbs 
    atoms 2-7         entry C          line   148 file /home/liuchw/anaconda3/envs/psi4env/share/psi4/basis/aug-cc-pvtz-ri.gbs 
    atoms 8-12, 14-15 entry H          line    30 file /home/liuchw/anaconda3/envs/psi4env/share/psi4/basis/aug-cc-pvtz-ri.gbs 
    atoms 13          entry O          line   264 file /home/liuchw/anaconda3/envs/psi4env/share/psi4/basis/aug-cc-pvtz-ri.gbs 

	 --------------------------------------------------------
	                          DF-MP2                         
	      2nd-Order Density-Fitted Moller-Plesset Theory     
	              RMP2 Wavefunction,   6 Threads             
	                                                         
	        Rob Parrish, Justin Turney, Andy Simmonett,      
	           Ed Hohenstein, and C. David Sherrill          
	 --------------------------------------------------------

   => Auxiliary Basis Set <=

  Basis Set: (AUG-CC-PVTZ AUX)
    Blend: AUG-CC-PVTZ-RI
    Number of shells: 331
    Number of basis function: 1211
    Number of Cartesian functions: 1528
    Spherical Harmonics?: true
    Max angular momentum: 4

	 --------------------------------------------------------
	                 NBF =   533, NAUX =  1211
	 --------------------------------------------------------
	   CLASS    FOCC     OCC    AOCC    AVIR     VIR    FVIR
	   PAIRS       0       5       5     528     528       0
	 --------------------------------------------------------

	-----------------------------------------------------------
	 ==================> DF-MP2 Energies <==================== 
	-----------------------------------------------------------
	 Reference Energy          =     -76.0604805203179808 [Eh]
	 Singles Energy            =      -0.0000000000000000 [Eh]
	 Same-Spin Energy          =      -0.0684199391003849 [Eh]
	 Opposite-Spin Energy      =      -0.2155854375109595 [Eh]
	 Correlation Energy        =      -0.2840053766113444 [Eh]
	 Total Energy              =     -76.3444858969293279 [Eh]
	-----------------------------------------------------------
	 ================> DF-SCS-MP2 Energies <================== 
	-----------------------------------------------------------
	 SCS Same-Spin Scale       =       0.3333333333333333 [-]
	 SCS Opposite-Spin Scale   =       1.2000000000000000 [-]
	 SCS Same-Spin Energy      =      -0.0228066463667950 [Eh]
	 SCS Opposite-Spin Energy  =      -0.2587025250131514 [Eh]
	 SCS Correlation Energy    =      -0.2815091713799464 [Eh]
	 SCS Total Energy          =     -76.3419896916979326 [Eh]
	-----------------------------------------------------------


*** tstop() called on node37.bme.utexas.edu at Sat Apr 11 16:55:22 2020
Module time:
	user time   =      35.02 seconds =       0.58 minutes
	system time =       2.74 seconds =       0.05 minutes
	total time  =         10 seconds =       0.17 minutes
Total time:
	user time   =     129.98 seconds =       2.17 minutes
	system time =       6.99 seconds =       0.12 minutes
	total time  =         30 seconds =       0.50 minutes

  //>>>>>>>>>>>>>>>>>>>>>>>>>>>>>>>>>>>>//
  // CBS Computation: MP2 / AUG-CC-PVQZ //
  //<<<<<<<<<<<<<<<<<<<<<<<<<<<<<<<<<<<<//


Scratch directory: /scratch//

*** tstart() called on node37.bme.utexas.edu
*** at Sat Apr 11 16:55:22 2020

   => Loading Basis Set <=

    Name: AUG-CC-PVQZ
    Role: ORBITAL
    Keyword: BASIS
    atoms 1           entry CL         line  1222 file /home/liuchw/anaconda3/envs/psi4env/share/psi4/basis/aug-cc-pvqz.gbs 
    atoms 2-7         entry C          line   303 file /home/liuchw/anaconda3/envs/psi4env/share/psi4/basis/aug-cc-pvqz.gbs 
    atoms 8-12, 14-15 entry H          line    40 file /home/liuchw/anaconda3/envs/psi4env/share/psi4/basis/aug-cc-pvqz.gbs 
    atoms 13          entry O          line   423 file /home/liuchw/anaconda3/envs/psi4env/share/psi4/basis/aug-cc-pvqz.gbs 


         ---------------------------------------------------------
                                   SCF
               by Justin Turney, Rob Parrish, Andy Simmonett
                          and Daniel G. A. Smith
                              RHF Reference
                        6 Threads,  38146 MiB Core
         ---------------------------------------------------------

  ==> Geometry <==

    Molecular point group: c1
    Full point group: C1

    Geometry (in Angstrom), charge = 0, multiplicity = 1:

       Center              X                  Y                   Z               Mass       
    ------------   -----------------  -----------------  -----------------  -----------------
      Gh(CL)          1.446037225307    -0.065339003239     0.000033846915    34.968852682000
      Gh(C)          -0.286068774693     0.003667996761    -0.000005153085    12.000000000000
      Gh(C)          -0.924722774693     1.241311996761    -0.000040153085    12.000000000000
      Gh(C)          -1.017877774693    -1.181272003239    -0.000000153085    12.000000000000
      Gh(C)          -2.316696774693     1.287933996761    -0.000069153085    12.000000000000
      Gh(C)          -2.409233774693    -1.120439003239    -0.000029153085    12.000000000000
      Gh(C)          -3.061809774693     0.110644996761    -0.000064153085    12.000000000000
      Gh(H)          -0.335680774693     2.146910996761    -0.000045153085     1.007825032230
      Gh(H)          -0.499668774693    -2.129186003239     0.000028846915     1.007825032230
      Gh(H)          -2.816878774693     2.246639996761    -0.000098153085     1.007825032230
      Gh(H)          -2.981559774693    -2.037878003239    -0.000027153085     1.007825032230
      Gh(H)          -4.141885774693     0.152194996761    -0.000090153085     1.007825032230
         O            4.439998225307    -0.181704003239     0.000086846915    15.994914619570
         H            4.699856225307     0.350936996761     0.754148846915     1.007825032230
         H            4.699845225307     0.350919996761    -0.753994153085     1.007825032230

  Running in c1 symmetry.

  Rotational constants: A =      0.18668  B =      0.02279  C =      0.02037 [cm^-1]
  Rotational constants: A =   5596.62419  B =    683.33156  C =    610.66398 [MHz]
  Nuclear repulsion =    9.178912034259096

  Charge       = 0
  Multiplicity = 1
  Electrons    = 10
  Nalpha       = 5
  Nbeta        = 5

  ==> Algorithm <==

  SCF Algorithm Type is DF.
  DIIS enabled.
  MOM disabled.
  Fractional occupation disabled.
  Guess Type is SAD.
  Energy threshold   = 1.00e-07
  Density threshold  = 1.00e-08
  Integral threshold = 0.00e+00

  ==> Primary Basis <==

  Basis Set: AUG-CC-PVQZ
    Blend: AUG-CC-PVQZ
    Number of shells: 260
    Number of basis function: 966
    Number of Cartesian functions: 1229
    Spherical Harmonics?: true
    Max angular momentum: 4

   => Loading Basis Set <=

    Name: (AUG-CC-PVQZ AUX)
    Role: JKFIT
    Keyword: DF_BASIS_SCF
    atoms 1           entry CL         line   904 file /home/liuchw/anaconda3/envs/psi4env/share/psi4/basis/aug-cc-pvqz-jkfit.gbs 
    atoms 2-7         entry C          line   178 file /home/liuchw/anaconda3/envs/psi4env/share/psi4/basis/aug-cc-pvqz-jkfit.gbs 
    atoms 8-12, 14-15 entry H          line    70 file /home/liuchw/anaconda3/envs/psi4env/share/psi4/basis/aug-cc-pvqz-jkfit.gbs 
    atoms 13          entry O          line   318 file /home/liuchw/anaconda3/envs/psi4env/share/psi4/basis/aug-cc-pvqz-jkfit.gbs 

  ==> Pre-Iterations <==

   -------------------------------------------------------
    Irrep   Nso     Nmo     Nalpha   Nbeta   Ndocc  Nsocc
   -------------------------------------------------------
     A        966     966       0       0       0       0
   -------------------------------------------------------
    Total     966     966       5       5       5       0
   -------------------------------------------------------

  ==> Integral Setup <==

  DFHelper Memory: AOs need 10.277 GiB; user supplied 27.940 GiB. Using in-core AOs.

  ==> MemDFJK: Density-Fitted J/K Matrices <==

    J tasked:                   Yes
    K tasked:                   Yes
    wK tasked:                   No
    OpenMP threads:               6
    Memory [MiB]:             28610
    Algorithm:                 Core
    Schwarz Cutoff:           1E-12
    Mask sparsity (%):      16.0241
    Fitting Condition:        1E-10

   => Auxiliary Basis Set <=

  Basis Set: (AUG-CC-PVQZ AUX)
    Blend: AUG-CC-PVQZ-JKFIT
    Number of shells: 410
    Number of basis function: 1710
    Number of Cartesian functions: 2340
    Spherical Harmonics?: true
    Max angular momentum: 5

  Minimum eigenvalue in the overlap matrix is 2.5730010572E-07.
  Using Symmetric Orthogonalization.

  SCF Guess: Superposition of Atomic Densities via on-the-fly atomic UHF.

  ==> Iterations <==

                           Total Energy        Delta E     RMS |[F,P]|

   @DF-RHF iter SAD:   -75.48194656888809   -7.54819e+01   0.00000e+00 
   @DF-RHF iter   1:   -75.98110367182792   -4.99157e-01   4.86084e-04 DIIS
   @DF-RHF iter   2:   -76.03373867616043   -5.26350e-02   3.32158e-04 DIIS
   @DF-RHF iter   3:   -76.06539873560399   -3.16601e-02   2.26278e-05 DIIS
   @DF-RHF iter   4:   -76.06578855148884   -3.89816e-04   5.53168e-06 DIIS
   @DF-RHF iter   5:   -76.06581362932121   -2.50778e-05   1.25238e-06 DIIS
   @DF-RHF iter   6:   -76.06581568867257   -2.05935e-06   2.81340e-07 DIIS
   @DF-RHF iter   7:   -76.06581580398141   -1.15309e-07   5.22994e-08 DIIS
   @DF-RHF iter   8:   -76.06581580748713   -3.50572e-09   8.41969e-09 DIIS
  Energy and wave function converged.


  ==> Post-Iterations <==

    Orbital Energies [Eh]
    ---------------------

    Doubly Occupied:                                                      

       1A    -20.565403     2A     -1.352497     3A     -0.715121  
       4A     -0.586261     5A     -0.510578  

    Virtual:                                                              

       6A      0.016627     7A      0.024318     8A      0.029926  
       9A      0.038508    10A      0.041849    11A      0.045134  
      12A      0.053205    13A      0.064731    14A      0.072027  
      15A      0.079978    16A      0.084158    17A      0.084222  
      18A      0.086220    19A      0.090485    20A      0.100430  
      21A      0.102852    22A      0.111428    23A      0.113031  
      24A      0.117171    25A      0.120304    26A      0.123233  
      27A      0.125902    28A      0.128235    29A      0.134036  
      30A      0.140595    31A      0.147987    32A      0.151656  
      33A      0.154726    34A      0.163961    35A      0.170676  
      36A      0.171179    37A      0.172867    38A      0.184413  
      39A      0.189864    40A      0.193864    41A      0.196052  
      42A      0.212551    43A      0.214347    44A      0.215368  
      45A      0.217027    46A      0.221539    47A      0.232912  
      48A      0.235847    49A      0.242281    50A      0.252691  
      51A      0.254071    52A      0.262637    53A      0.267068  
      54A      0.267611    55A      0.274954    56A      0.283472  
      57A      0.287885    58A      0.288722    59A      0.295956  
      60A      0.298833    61A      0.301034    62A      0.305941  
      63A      0.306976    64A      0.314333    65A      0.315952  
      66A      0.318322    67A      0.333351    68A      0.333831  
      69A      0.335708    70A      0.339931    71A      0.340646  
      72A      0.347745    73A      0.348843    74A      0.355771  
      75A      0.358582    76A      0.367204    77A      0.368488  
      78A      0.372151    79A      0.375992    80A      0.378750  
      81A      0.389714    82A      0.393713    83A      0.396799  
      84A      0.404247    85A      0.414523    86A      0.419208  
      87A      0.429396    88A      0.430234    89A      0.436370  
      90A      0.438297    91A      0.446381    92A      0.448364  
      93A      0.453780    94A      0.464570    95A      0.474487  
      96A      0.477329    97A      0.482733    98A      0.484679  
      99A      0.489502   100A      0.499689   101A      0.499952  
     102A      0.505134   103A      0.508336   104A      0.520267  
     105A      0.521683   106A      0.527986   107A      0.530008  
     108A      0.536110   109A      0.542241   110A      0.544624  
     111A      0.546282   112A      0.546308   113A      0.553178  
     114A      0.568057   115A      0.569607   116A      0.573672  
     117A      0.574015   118A      0.575391   119A      0.585162  
     120A      0.597365   121A      0.599841   122A      0.606851  
     123A      0.615225   124A      0.620885   125A      0.623503  
     126A      0.639216   127A      0.641773   128A      0.647825  
     129A      0.656267   130A      0.664632   131A      0.676274  
     132A      0.685784   133A      0.691009   134A      0.693535  
     135A      0.696041   136A      0.715460   137A      0.720621  
     138A      0.730387   139A      0.734508   140A      0.750134  
     141A      0.750594   142A      0.753303   143A      0.757919  
     144A      0.760746   145A      0.761742   146A      0.765327  
     147A      0.772273   148A      0.777639   149A      0.781732  
     150A      0.784306   151A      0.790220   152A      0.797167  
     153A      0.797738   154A      0.808221   155A      0.808516  
     156A      0.812440   157A      0.812953   158A      0.826475  
     159A      0.828330   160A      0.832151   161A      0.850123  
     162A      0.852287   163A      0.865258   164A      0.869450  
     165A      0.882621   166A      0.883329   167A      0.886752  
     168A      0.891268   169A      0.915436   170A      0.917148  
     171A      0.924354   172A      0.932148   173A      0.933427  
     174A      0.937389   175A      0.943964   176A      0.947716  
     177A      0.949792   178A      0.950623   179A      0.953876  
     180A      0.969106   181A      0.970191   182A      0.971265  
     183A      0.978573   184A      0.984424   185A      0.987036  
     186A      0.996633   187A      0.996990   188A      1.019031  
     189A      1.023916   190A      1.026562   191A      1.035511  
     192A      1.042216   193A      1.044848   194A      1.046165  
     195A      1.049186   196A      1.055803   197A      1.063387  
     198A      1.067703   199A      1.071175   200A      1.073004  
     201A      1.078483   202A      1.082770   203A      1.095602  
     204A      1.096620   205A      1.104318   206A      1.106040  
     207A      1.108462   208A      1.111989   209A      1.119491  
     210A      1.120474   211A      1.141273   212A      1.146840  
     213A      1.153451   214A      1.159552   215A      1.175092  
     216A      1.178824   217A      1.179463   218A      1.196351  
     219A      1.208713   220A      1.215321   221A      1.224503  
     222A      1.228075   223A      1.248857   224A      1.256220  
     225A      1.257783   226A      1.264233   227A      1.268866  
     228A      1.273409   229A      1.301573   230A      1.303770  
     231A      1.310115   232A      1.324299   233A      1.333535  
     234A      1.335739   235A      1.350402   236A      1.359221  
     237A      1.362046   238A      1.379045   239A      1.380055  
     240A      1.408661   241A      1.436515   242A      1.442766  
     243A      1.447894   244A      1.450065   245A      1.451847  
     246A      1.464442   247A      1.465485   248A      1.468585  
     249A      1.501901   250A      1.506916   251A      1.508216  
     252A      1.511103   253A      1.519216   254A      1.544324  
     255A      1.552563   256A      1.565763   257A      1.570863  
     258A      1.573725   259A      1.579617   260A      1.591028  
     261A      1.591288   262A      1.592624   263A      1.594481  
     264A      1.597357   265A      1.604833   266A      1.610855  
     267A      1.614415   268A      1.627182   269A      1.643602  
     270A      1.646817   271A      1.651172   272A      1.668300  
     273A      1.668496   274A      1.676178   275A      1.676209  
     276A      1.680631   277A      1.686718   278A      1.703907  
     279A      1.712355   280A      1.713534   281A      1.729254  
     282A      1.742454   283A      1.757781   284A      1.765808  
     285A      1.773527   286A      1.773854   287A      1.778670  
     288A      1.783063   289A      1.786566   290A      1.790224  
     291A      1.799363   292A      1.803338   293A      1.803858  
     294A      1.808266   295A      1.811049   296A      1.823481  
     297A      1.828621   298A      1.829037   299A      1.837788  
     300A      1.849294   301A      1.849311   302A      1.862823  
     303A      1.865975   304A      1.879690   305A      1.884688  
     306A      1.884709   307A      1.902471   308A      1.906027  
     309A      1.906848   310A      1.909623   311A      1.916950  
     312A      1.917059   313A      1.930760   314A      1.941105  
     315A      1.941423   316A      1.956502   317A      1.959595  
     318A      1.966182   319A      1.970109   320A      1.973735  
     321A      1.983653   322A      2.002457   323A      2.006320  
     324A      2.012334   325A      2.013423   326A      2.022519  
     327A      2.033099   328A      2.039556   329A      2.045128  
     330A      2.049198   331A      2.052480   332A      2.064078  
     333A      2.071932   334A      2.089447   335A      2.089907  
     336A      2.093065   337A      2.097456   338A      2.109522  
     339A      2.118202   340A      2.121266   341A      2.147639  
     342A      2.156579   343A      2.164395   344A      2.173813  
     345A      2.176548   346A      2.180209   347A      2.183295  
     348A      2.208804   349A      2.211177   350A      2.215434  
     351A      2.222469   352A      2.231337   353A      2.232130  
     354A      2.237133   355A      2.253981   356A      2.268092  
     357A      2.270425   358A      2.280952   359A      2.285710  
     360A      2.290813   361A      2.295277   362A      2.312562  
     363A      2.313361   364A      2.324577   365A      2.333896  
     366A      2.342430   367A      2.347418   368A      2.352058  
     369A      2.360731   370A      2.378604   371A      2.386433  
     372A      2.419184   373A      2.427715   374A      2.437673  
     375A      2.459205   376A      2.461411   377A      2.476456  
     378A      2.482520   379A      2.493529   380A      2.494757  
     381A      2.505021   382A      2.508739   383A      2.519040  
     384A      2.524768   385A      2.537295   386A      2.537774  
     387A      2.548029   388A      2.561318   389A      2.568479  
     390A      2.577254   391A      2.583547   392A      2.587378  
     393A      2.590082   394A      2.601044   395A      2.603842  
     396A      2.611431   397A      2.638338   398A      2.653849  
     399A      2.659792   400A      2.674325   401A      2.678273  
     402A      2.686093   403A      2.699989   404A      2.715276  
     405A      2.717430   406A      2.739994   407A      2.742261  
     408A      2.752393   409A      2.755979   410A      2.764755  
     411A      2.787391   412A      2.792535   413A      2.803950  
     414A      2.810283   415A      2.815603   416A      2.822145  
     417A      2.855024   418A      2.855716   419A      2.858560  
     420A      2.881578   421A      2.890028   422A      2.903061  
     423A      2.904831   424A      2.922214   425A      2.940692  
     426A      2.945370   427A      2.950885   428A      2.951580  
     429A      2.973210   430A      2.986786   431A      2.996222  
     432A      2.997291   433A      2.999982   434A      3.015043  
     435A      3.026099   436A      3.026178   437A      3.031329  
     438A      3.044797   439A      3.052461   440A      3.065032  
     441A      3.067265   442A      3.088001   443A      3.089209  
     444A      3.091245   445A      3.097413   446A      3.100281  
     447A      3.111270   448A      3.114369   449A      3.129260  
     450A      3.131550   451A      3.137146   452A      3.163602  
     453A      3.169657   454A      3.173136   455A      3.201417  
     456A      3.223821   457A      3.227966   458A      3.232979  
     459A      3.243792   460A      3.244171   461A      3.255479  
     462A      3.265456   463A      3.274270   464A      3.280185  
     465A      3.282371   466A      3.284940   467A      3.288564  
     468A      3.305469   469A      3.312447   470A      3.315968  
     471A      3.330660   472A      3.340228   473A      3.346035  
     474A      3.354727   475A      3.358092   476A      3.370722  
     477A      3.389869   478A      3.422007   479A      3.435583  
     480A      3.438273   481A      3.440153   482A      3.450145  
     483A      3.458554   484A      3.504354   485A      3.504818  
     486A      3.514015   487A      3.521339   488A      3.533828  
     489A      3.536051   490A      3.543361   491A      3.551635  
     492A      3.578976   493A      3.586472   494A      3.603307  
     495A      3.626663   496A      3.649045   497A      3.650531  
     498A      3.675129   499A      3.685244   500A      3.689763  
     501A      3.701679   502A      3.711308   503A      3.713338  
     504A      3.721950   505A      3.746840   506A      3.747098  
     507A      3.758199   508A      3.770970   509A      3.779537  
     510A      3.796622   511A      3.802328   512A      3.814469  
     513A      3.822045   514A      3.843867   515A      3.861183  
     516A      3.862244   517A      3.897721   518A      3.908474  
     519A      3.914638   520A      3.982006   521A      3.990293  
     522A      3.992882   523A      4.001083   524A      4.032931  
     525A      4.058006   526A      4.067861   527A      4.068416  
     528A      4.075013   529A      4.081485   530A      4.092180  
     531A      4.113246   532A      4.143597   533A      4.146526  
     534A      4.167497   535A      4.176811   536A      4.182889  
     537A      4.206425   538A      4.214992   539A      4.219962  
     540A      4.221463   541A      4.226478   542A      4.251221  
     543A      4.272254   544A      4.279912   545A      4.299178  
     546A      4.318096   547A      4.320002   548A      4.331774  
     549A      4.358099   550A      4.373240   551A      4.378054  
     552A      4.385793   553A      4.393010   554A      4.415952  
     555A      4.426954   556A      4.438806   557A      4.446690  
     558A      4.452783   559A      4.467613   560A      4.513946  
     561A      4.544131   562A      4.546713   563A      4.551667  
     564A      4.586040   565A      4.588026   566A      4.612008  
     567A      4.636276   568A      4.684321   569A      4.701995  
     570A      4.730859   571A      4.738379   572A      4.759524  
     573A      4.769882   574A      4.775356   575A      4.780806  
     576A      4.790992   577A      4.795441   578A      4.805466  
     579A      4.833304   580A      4.841559   581A      4.900314  
     582A      4.904939   583A      4.913088   584A      4.921431  
     585A      4.923196   586A      4.932639   587A      4.943817  
     588A      4.951393   589A      5.000781   590A      5.004478  
     591A      5.020331   592A      5.028783   593A      5.029095  
     594A      5.034086   595A      5.052522   596A      5.062300  
     597A      5.063803   598A      5.083920   599A      5.108542  
     600A      5.173783   601A      5.190581   602A      5.191184  
     603A      5.264701   604A      5.267053   605A      5.279293  
     606A      5.297086   607A      5.305163   608A      5.307513  
     609A      5.317222   610A      5.356745   611A      5.366505  
     612A      5.380475   613A      5.479509   614A      5.483747  
     615A      5.504720   616A      5.506032   617A      5.518292  
     618A      5.533855   619A      5.546711   620A      5.553416  
     621A      5.575572   622A      5.624544   623A      5.636376  
     624A      5.691845   625A      5.700821   626A      5.711889  
     627A      5.716896   628A      5.748227   629A      5.788376  
     630A      5.822945   631A      5.890710   632A      5.911716  
     633A      5.932999   634A      5.949501   635A      5.964923  
     636A      5.995896   637A      6.008732   638A      6.029403  
     639A      6.095596   640A      6.106297   641A      6.167786  
     642A      6.215997   643A      6.281040   644A      6.289209  
     645A      6.292888   646A      6.331445   647A      6.349915  
     648A      6.359148   649A      6.436950   650A      6.445171  
     651A      6.449963   652A      6.457742   653A      6.461789  
     654A      6.484584   655A      6.487395   656A      6.489890  
     657A      6.510597   658A      6.544038   659A      6.562395  
     660A      6.578861   661A      6.613569   662A      6.626999  
     663A      6.643367   664A      6.648274   665A      6.692105  
     666A      6.712093   667A      6.734282   668A      6.784395  
     669A      6.796911   670A      6.815332   671A      6.858936  
     672A      6.877448   673A      6.883743   674A      6.895736  
     675A      6.915288   676A      6.924897   677A      6.934988  
     678A      6.956844   679A      6.957806   680A      6.977470  
[...]
     515A      3.392526   516A      3.420515   517A      3.423522  
     518A      3.428548   519A      3.446234   520A      3.468959  
     521A      3.478024   522A      3.480264   523A      3.507527  
     524A      3.513723   525A      3.546382   526A      3.557429  
     527A      3.568978   528A      3.597583   529A      3.609863  
     530A      3.610322   531A      3.628493   532A      3.641345  
     533A      3.648211   534A      3.658227   535A      3.675445  
     536A      3.682399   537A      3.705423   538A      3.712819  
     539A      3.716583   540A      3.746179   541A      3.779477  
     542A      3.788273   543A      3.790012   544A      3.815736  
     545A      3.818624   546A      3.828854   547A      3.834706  
     548A      3.854478   549A      3.874277   550A      3.880744  
     551A      3.892382   552A      3.910987   553A      3.913170  
     554A      3.918380   555A      3.928145   556A      3.950640  
     557A      3.975728   558A      3.981773   559A      4.003323  
     560A      4.012026   561A      4.016415   562A      4.044453  
     563A      4.051857   564A      4.065295   565A      4.071149  
     566A      4.077007   567A      4.107086   568A      4.140617  
     569A      4.147941   570A      4.151967   571A      4.181590  
     572A      4.182279   573A      4.216054   574A      4.229909  
     575A      4.247666   576A      4.261553   577A      4.264779  
     578A      4.283762   579A      4.287671   580A      4.296996  
     581A      4.312808   582A      4.314574   583A      4.336844  
     584A      4.349834   585A      4.355865   586A      4.358742  
     587A      4.366400   588A      4.367835   589A      4.375882  
     590A      4.379481   591A      4.390658   592A      4.400394  
     593A      4.414124   594A      4.421837   595A      4.424845  
     596A      4.439030   597A      4.468075   598A      4.501314  
     599A      4.513567   600A      4.520960   601A      4.536314  
     602A      4.541801   603A      4.573432   604A      4.590460  
     605A      4.594245   606A      4.603486   607A      4.612807  
     608A      4.619270   609A      4.635274   610A      4.650291  
     611A      4.661450   612A      4.709049   613A      4.717384  
     614A      4.751546   615A      4.772502   616A      4.773836  
     617A      4.791659   618A      4.791691   619A      4.802780  
     620A      4.814803   621A      4.821225   622A      4.837520  
     623A      4.845659   624A      4.859305   625A      4.872214  
     626A      4.879855   627A      4.900472   628A      4.904388  
     629A      4.906798   630A      4.915381   631A      4.934065  
     632A      4.936050   633A      4.968465   634A      4.970756  
     635A      4.974358   636A      5.000720   637A      5.018368  
     638A      5.025186   639A      5.067573   640A      5.076776  
     641A      5.094102   642A      5.103042   643A      5.111560  
     644A      5.120184   645A      5.125674   646A      5.192856  
     647A      5.197302   648A      5.222157   649A      5.248139  
     650A      5.289336   651A      5.310521   652A      5.342251  
     653A      5.348372   654A      5.351715   655A      5.383474  
     656A      5.388631   657A      5.401811   658A      5.428041  
     659A      5.461887   660A      5.500930   661A      5.524825  
     662A      5.572126   663A      5.634147   664A      5.660734  
     665A      5.664816   666A      5.708071   667A      5.739575  
     668A      5.763450   669A      5.801827   670A      5.812209  
     671A      5.844166   672A      5.850231   673A      5.856866  
     674A      5.911535   675A      5.922873   676A      5.985848  
     677A      6.005347   678A      6.009692   679A      6.027594  
     680A      6.033838   681A      6.056008   682A      6.078790  
     683A      6.085828   684A      6.094699   685A      6.110995  
     686A      6.125821   687A      6.197701   688A      6.207086  
     689A      6.240643   690A      6.273059   691A      6.282590  
     692A      6.290390   693A      6.295023   694A      6.299367  
     695A      6.308229   696A      6.323578   697A      6.332055  
     698A      6.341894   699A      6.375274   700A      6.395006  
     701A      6.429266   702A      6.431265   703A      6.471985  
     704A      6.479840   705A      6.485219   706A      6.501730  
     707A      6.563464   708A      6.594956   709A      6.608987  
     710A      6.611637   711A      6.643837   712A      6.653451  
     713A      6.659451   714A      6.676891   715A      6.685614  
     716A      6.708178   717A      6.717701   718A      6.721839  
     719A      6.770676   720A      6.773674   721A      6.774203  
     722A      6.817001   723A      6.830282   724A      6.846531  
     725A      6.846659   726A      6.866566   727A      6.879003  
     728A      6.883439   729A      6.908408   730A      6.920115  
     731A      6.932861   732A      6.934866   733A      6.935318  
     734A      6.959575   735A      6.961284   736A      6.987519  
     737A      6.993405   738A      6.999713   739A      7.016454  
     740A      7.036387   741A      7.078861   742A      7.084983  
     743A      7.086740   744A      7.091928   745A      7.102687  
     746A      7.103865   747A      7.162836   748A      7.171209  
     749A      7.175892   750A      7.189481   751A      7.197707  
     752A      7.202611   753A      7.219677   754A      7.229877  
     755A      7.251744   756A      7.266956   757A      7.281044  
     758A      7.292085   759A      7.310532   760A      7.312140  
     761A      7.315515   762A      7.331652   763A      7.392207  
     764A      7.408796   765A      7.415874   766A      7.447697  
     767A      7.459961   768A      7.472509   769A      7.473171  
     770A      7.509875   771A      7.574728   772A      7.583381  
     773A      7.588570   774A      7.590562   775A      7.635255  
     776A      7.643845   777A      7.661191   778A      7.684010  
     779A      7.688141   780A      7.706991   781A      7.726255  
     782A      7.736925   783A      7.744570   784A      7.755872  
     785A      7.784455   786A      7.807117   787A      7.836455  
     788A      7.853921   789A      7.855701   790A      7.858696  
     791A      7.875988   792A      7.877822   793A      7.884262  
     794A      7.937222   795A      7.942464   796A      7.948939  
     797A      7.959167   798A      7.960600   799A      7.970580  
     800A      7.998122   801A      8.007585   802A      8.013611  
     803A      8.019257   804A      8.036975   805A      8.067816  
     806A      8.074114   807A      8.095155   808A      8.127086  
     809A      8.146347   810A      8.147544   811A      8.219166  
     812A      8.232782   813A      8.267085   814A      8.282230  
     815A      8.284659   816A      8.291922   817A      8.307519  
     818A      8.346666   819A      8.374377   820A      8.421685  
     821A      8.461940   822A      8.482352   823A      8.497626  
     824A      8.507085   825A      8.523023   826A      8.575014  
     827A      8.609556   828A      8.657502   829A      8.666348  
     830A      8.672660   831A      8.688334   832A      8.688545  
     833A      8.689616   834A      8.719003   835A      8.726174  
     836A      8.760293   837A      8.773044   838A      8.793614  
     839A      8.816904   840A      8.825932   841A      8.837209  
     842A      8.845653   843A      8.863305   844A      8.890233  
     845A      8.923498   846A      8.928614   847A      8.949077  
     848A      8.960311   849A      8.969289   850A      9.014364  
     851A      9.020220   852A      9.052927   853A      9.057042  
     854A      9.071642   855A      9.083868   856A      9.112207  
     857A      9.136431   858A      9.235902   859A      9.238863  
     860A      9.259049   861A      9.352611   862A      9.372336  
     863A      9.373982   864A      9.388996   865A      9.445919  
     866A      9.500487   867A      9.508583   868A      9.532368  
     869A      9.540549   870A      9.556256   871A      9.583945  
     872A      9.595357   873A      9.603570   874A      9.681701  
     875A      9.696855   876A      9.701509   877A      9.710147  
     878A      9.736407   879A      9.782258   880A      9.836194  
     881A      9.850226   882A      9.869858   883A      9.950575  
     884A      9.973125   885A      9.993792   886A     10.006239  
     887A     10.022012   888A     10.032871   889A     10.034769  
     890A     10.086485   891A     10.087549   892A     10.191860  
     893A     10.240800   894A     10.256807   895A     10.260252  
     896A     10.305800   897A     10.348691   898A     10.357792  
     899A     10.384838   900A     10.413719   901A     10.416564  
     902A     10.429674   903A     10.477985   904A     10.484992  
     905A     10.497582   906A     10.559478   907A     10.597013  
     908A     10.754029   909A     10.767242   910A     10.768678  
     911A     10.796772   912A     10.805396   913A     10.817799  
     914A     10.845281   915A     10.852250   916A     10.908924  
     917A     11.012666   918A     11.072026   919A     11.075360  
     920A     11.097940   921A     11.104049   922A     11.142960  
     923A     11.241589   924A     11.331108   925A     11.394447  
     926A     11.403097   927A     11.474894   928A     11.496355  
     929A     11.623235   930A     11.668763   931A     11.722806  
     932A     11.732940   933A     11.745458   934A     11.753143  
     935A     11.832973   936A     11.898803   937A     12.092228  
     938A     12.233767   939A     12.257690   940A     12.267912  
     941A     12.657042   942A     12.759190   943A     12.887861  
     944A     12.930754   945A     13.180695   946A     13.181547  
     947A     13.333907   948A     13.390919   949A     13.459344  
     950A     13.642829   951A     14.012247   952A     14.103174  
     953A     14.528247   954A     14.821648   955A     14.923934  
     956A     15.288719   957A     16.962520   958A     17.376977  
     959A     25.561014   960A     26.162057   961A     26.471010  
     962A     26.745359   963A     27.068080   964A     27.201833  
     965A     28.494160   966A     45.771747  

    Final Occupation by Irrep:
              A 
    DOCC [    34 ]

  @DF-RHF Final Energy:  -765.79761251128889

   => Energetics <=

    Nuclear Repulsion Energy =            389.8526194351837262
    One-Electron Energy =               -1825.3983642362370574
    Two-Electron Energy =                 669.7481322897644986
    Total Energy =                       -765.7976125112888894

Computation Completed


Properties will be evaluated at   0.000000,   0.000000,   0.000000 [a0]

Properties computed using the SCF density matrix

  Nuclear Dipole Moment: [e a0]
     X:    -2.5923      Y:     1.0719      Z:    -0.0001

  Electronic Dipole Moment: [e a0]
     X:     2.3911      Y:    -0.3930      Z:     0.0001

  Dipole Moment: [e a0]
     X:    -0.2012      Y:     0.6789      Z:    -0.0000     Total:     0.7081

  Dipole Moment: [D]
     X:    -0.5115      Y:     1.7257      Z:    -0.0001     Total:     1.7999


*** tstop() called on node37.bme.utexas.edu at Sat Apr 11 17:03:54 2020
Module time:
	user time   =     443.57 seconds =       7.39 minutes
	system time =      28.64 seconds =       0.48 minutes
	total time  =         96 seconds =       1.60 minutes
Total time:
	user time   =    2422.42 seconds =      40.37 minutes
	system time =     151.75 seconds =       2.53 minutes
	total time  =        542 seconds =       9.03 minutes

*** tstart() called on node37.bme.utexas.edu
*** at Sat Apr 11 17:03:54 2020


  //>>>>>>>>>>>>>>>>>>>>>>>>>>>>>>>>>>>//
  //               DFMP2               //
  //<<<<<<<<<<<<<<<<<<<<<<<<<<<<<<<<<<<//

   => Loading Basis Set <=

    Name: (AUG-CC-PVQZ AUX)
    Role: RIFIT
    Keyword: DF_BASIS_MP2
    atoms 1           entry CL         line   914 file /home/liuchw/anaconda3/envs/psi4env/share/psi4/basis/aug-cc-pvqz-ri.gbs 
    atoms 2-7         entry C          line   184 file /home/liuchw/anaconda3/envs/psi4env/share/psi4/basis/aug-cc-pvqz-ri.gbs 
    atoms 8-12, 14-15 entry H          line    30 file /home/liuchw/anaconda3/envs/psi4env/share/psi4/basis/aug-cc-pvqz-ri.gbs 
    atoms 13          entry O          line   332 file /home/liuchw/anaconda3/envs/psi4env/share/psi4/basis/aug-cc-pvqz-ri.gbs 

	 --------------------------------------------------------
	                          DF-MP2                         
	      2nd-Order Density-Fitted Moller-Plesset Theory     
	              RMP2 Wavefunction,   6 Threads             
	                                                         
	        Rob Parrish, Justin Turney, Andy Simmonett,      
	           Ed Hohenstein, and C. David Sherrill          
	 --------------------------------------------------------

   => Auxiliary Basis Set <=

  Basis Set: (AUG-CC-PVQZ AUX)
    Blend: AUG-CC-PVQZ-RI
    Number of shells: 436
    Number of basis function: 1930
    Number of Cartesian functions: 2662
    Spherical Harmonics?: true
    Max angular momentum: 5

	 --------------------------------------------------------
	                 NBF =   966, NAUX =  1930
	 --------------------------------------------------------
	   CLASS    FOCC     OCC    AOCC    AVIR     VIR    FVIR
	   PAIRS       0      34      34     932     932       0
	 --------------------------------------------------------

	-----------------------------------------------------------
	 ==================> DF-MP2 Energies <==================== 
	-----------------------------------------------------------
	 Reference Energy          =    -765.7976125112888894 [Eh]
	 Singles Energy            =      -0.0000000000000000 [Eh]
	 Same-Spin Energy          =      -0.4189312936212116 [Eh]
	 Opposite-Spin Energy      =      -1.3587398390965062 [Eh]
	 Correlation Energy        =      -1.7776711327177179 [Eh]
	 Total Energy              =    -767.5752836440066176 [Eh]
	-----------------------------------------------------------
	 ================> DF-SCS-MP2 Energies <================== 
	-----------------------------------------------------------
	 SCS Same-Spin Scale       =       0.3333333333333333 [-]
	 SCS Opposite-Spin Scale   =       1.2000000000000000 [-]
	 SCS Same-Spin Energy      =      -0.1396437645404039 [Eh]
	 SCS Opposite-Spin Energy  =      -1.6304878069158073 [Eh]
	 SCS Correlation Energy    =      -1.7701315714562111 [Eh]
	 SCS Total Energy          =    -767.5677440827450937 [Eh]
	-----------------------------------------------------------


*** tstop() called on node37.bme.utexas.edu at Sat Apr 11 17:04:50 2020
Module time:
	user time   =     241.43 seconds =       4.02 minutes
	system time =      16.49 seconds =       0.27 minutes
	total time  =         56 seconds =       0.93 minutes
Total time:
	user time   =    2663.85 seconds =      44.40 minutes
	system time =     168.24 seconds =       2.80 minutes
	total time  =        598 seconds =       9.97 minutes

  //>>>>>>>>>>>>>>>>>>>>>>>>>>>>>>>>>>>//
  //  CBS Results: mp2/aug-cc-pv[tq]z  //
  //<<<<<<<<<<<<<<<<<<<<<<<<<<<<<<<<<<<//


   ==> HF <==

   HI-zeta (4) Energy:               -765.797612511289


   ==> Helgaker 2-point correlated extrapolation for method: MP2 <==

   LO-zeta (3) Energy:               -767.363540833081
   HI-zeta (4) Energy:               -767.575283644007
   Alpha (exponent) Value:             3.000000000000
   Extrapolated Energy:              -767.729798668196

   @Extrapolated MP2/(T,Q):          -767.729798668196



   ==> Helgaker 2-point correlated extrapolation for method: HF <==

   LO-zeta (3) Energy:               -765.775434691964
   HI-zeta (4) Energy:               -765.797612511289
   Alpha (exponent) Value:             3.000000000000
   Extrapolated Energy:              -765.813796325391

   @Extrapolated HF/(T,Q):           -765.813796325391


   ==> Components <==

  ---------------------------------------------------------------------------------------------------------
                          Method / Basis                      Rqd      Energy [Eh]   Variable
  ---------------------------------------------------------------------------------------------------------
                              hf / aug-cc-pvtz                  *    -765.77543469   HF TOTAL ENERGY
                             mp2 / aug-cc-pvtz                  *    -767.36354083   MP2 TOTAL ENERGY
                              hf / aug-cc-pvqz                  *    -765.79761251   HF TOTAL ENERGY
                             mp2 / aug-cc-pvqz                  *    -767.57528364   MP2 TOTAL ENERGY
  ---------------------------------------------------------------------------------------------------------

   ==> Stages <==

  ---------------------------------------------------------------------------------------------------------
      Stage               Method / Basis                       Wt      Energy [Eh]   Scheme
  ---------------------------------------------------------------------------------------------------------
        scf                   hf / aug-cc-pvqz                  1    -765.79761251   xtpl_highest_1
       corl                  mp2 / aug-cc-pv[tq]z               1    -767.72979867   corl_xtpl_helgaker_2
       corl                   hf / aug-cc-pv[tq]z              -1    -765.81379633   corl_xtpl_helgaker_2
  ---------------------------------------------------------------------------------------------------------

   ==> CBS <==

  ---------------------------------------------------------------------------------------------------------
      Stage               Method / Basis                               Energy [Eh]   Scheme
  ---------------------------------------------------------------------------------------------------------
        scf                   hf / aug-cc-pvqz                       -765.79761251   xtpl_highest_1
       corl                  mp2 / aug-cc-pv[tq]z                      -1.91600234   corl_xtpl_helgaker_2
      total                  CBS                                     -767.71361485   
  ---------------------------------------------------------------------------------------------------------
   => Loading Basis Set <=

    Name: DEF2-SVP
    Role: ORBITAL
    Keyword: BASIS
    atoms 1           entry CL         line   356 file /home/liuchw/anaconda3/envs/psi4env/share/psi4/basis/def2-svp.gbs 
    atoms 2-7         entry C          line    90 file /home/liuchw/anaconda3/envs/psi4env/share/psi4/basis/def2-svp.gbs 
    atoms 8-12, 14-15 entry H          line    15 file /home/liuchw/anaconda3/envs/psi4env/share/psi4/basis/def2-svp.gbs 
    atoms 13          entry O          line   130 file /home/liuchw/anaconda3/envs/psi4env/share/psi4/basis/def2-svp.gbs 


       N-Body: Complex Energy (fragments = (1, 2), basis = (1, 2):  -767.71361485409409)

   ==> N-Body: Counterpoise Corrected (CP) energies <==

   n-Body     Total Energy [Eh]       I.E. [kcal/mol]      Delta [kcal/mol]
        1     -767.712461414589        0.000000000000        0.000000000000
        2     -767.713468536446       -0.631978506596       -0.631978506596

   => Loading Basis Set <=

    Name: DEF2-SVP
    Role: ORBITAL
    Keyword: BASIS
    atoms 1           entry CL         line   356 file /home/liuchw/anaconda3/envs/psi4env/share/psi4/basis/def2-svp.gbs 
    atoms 2-7         entry C          line    90 file /home/liuchw/anaconda3/envs/psi4env/share/psi4/basis/def2-svp.gbs 
    atoms 8-12, 14-15 entry H          line    15 file /home/liuchw/anaconda3/envs/psi4env/share/psi4/basis/def2-svp.gbs 
    atoms 13          entry O          line   130 file /home/liuchw/anaconda3/envs/psi4env/share/psi4/basis/def2-svp.gbs 


    Psi4 stopped on: Saturday, 11 April 2020 05:04PM
    Psi4 wall time for execution: 0:09:59.28

*** Psi4 exiting successfully. Buy a developer a beer!
