
    -----------------------------------------------------------------------
          Psi4: An Open-Source Ab Initio Electronic Structure Package
                               Psi4 1.4a2.dev224 

                         Git: Rev {master} e453b16 


    R. M. Parrish, L. A. Burns, D. G. A. Smith, A. C. Simmonett,
    A. E. DePrince III, E. G. Hohenstein, U. Bozkaya, A. Yu. Sokolov,
    R. Di Remigio, R. M. Richard, J. F. Gonthier, A. M. James,
    H. R. McAlexander, A. Kumar, M. Saitow, X. Wang, B. P. Pritchard,
    P. Verma, H. F. Schaefer III, K. Patkowski, R. A. King, E. F. Valeev,
    F. A. Evangelista, J. M. Turney, T. D. Crawford, and C. D. Sherrill,
    J. Chem. Theory Comput. 13(7) pp 3185--3197 (2017).
    (doi: 10.1021/acs.jctc.7b00174)


                         Additional Contributions by
    P. Kraus, H. Kruse, M. H. Lechner, M. C. Schieber, R. A. Shaw,
    A. Alenaizan, R. Galvelis, Z. L. Glick, S. Lehtola, and J. P. Misiewicz

    -----------------------------------------------------------------------


    Psi4 started on: Saturday, 11 April 2020 04:54PM

    Process ID: 30397
    Host:       node70.bme.utexas.edu
    PSIDATADIR: /home/liuchw/anaconda3/envs/psi4env/share/psi4
    Memory:     500.0 MiB
    Threads:    6
    
  ==> Input File <==

--------------------------------------------------------------------------
#Generated by lconvert.py for cbs job

memory 40 GB

molecule  {
0 1
 Br        2.1195960    -0.1313640     0.0000500
  C        0.2381660    -0.0649990     0.0000080
  C       -0.4072490     1.1696050    -0.0000290
  C       -0.4903420    -1.2524990     0.0000140
  C       -1.7997610     1.2104450    -0.0000600
  C       -1.8823350    -1.1975750    -0.0000180
  C       -2.5405810     0.0304420    -0.0000550
  H        0.1730180     2.0809810    -0.0000330
  H        0.0263100    -2.2013810     0.0000420
  H       -2.3028230     2.1677980    -0.0000880
  H       -2.4498020    -2.1181980    -0.0000130
  H       -3.6208680     0.0675110    -0.0000790
--
0 1
  O        5.5211470    -0.1978140     0.0001020
  H        5.9481340     0.2137810     0.7541890
  H        5.9481330     0.2137820    -0.7539840
units angstrom
no_reorient
symmetry c1
}

set {
scf_type DF
mp2_type DF
e_convergence 7
reference rhf
}

energy('mp2/aug-cc-pv[tq]z', bsse_type='cp')
--------------------------------------------------------------------------

  Memory set to  37.253 GiB by Python driver.

Scratch directory: /scratch//


   ===> N-Body Interaction Abacus <===
        BSSE Treatment:                     cp
        Number of 1-body computations:     4
        Number of 2-body computations:     1

   ==> N-Body: Now computing 1-body complexes <==


       N-Body: Computing complex (1/4) with fragments (2,) in the basis of fragments (2,).


Scratch directory: /scratch//

  //>>>>>>>>>>>>>>>>>>>>>>>>>>>>>>>>>>>//
  //   CBS Setup: mp2/aug-cc-pv[tq]z   //
  //<<<<<<<<<<<<<<<<<<<<<<<<<<<<<<<<<<<//

    Naive listing of computations required.
             hf / aug-cc-pvqz              for  HF TOTAL ENERGY
            mp2 / aug-cc-pvtz              for  MP2 TOTAL ENERGY
            mp2 / aug-cc-pvqz              for  MP2 TOTAL ENERGY
             hf / aug-cc-pvtz              for  HF TOTAL ENERGY
             hf / aug-cc-pvqz              for  HF TOTAL ENERGY

    Enlightened listing of computations required.
            mp2 / aug-cc-pvtz              for  MP2 TOTAL ENERGY
            mp2 / aug-cc-pvqz              for  MP2 TOTAL ENERGY

    Full listing of computations to be obtained (required and bonus).
             hf / aug-cc-pvtz              for  HF TOTAL ENERGY
            mp2 / aug-cc-pvtz              for  MP2 TOTAL ENERGY
             hf / aug-cc-pvqz              for  HF TOTAL ENERGY
            mp2 / aug-cc-pvqz              for  MP2 TOTAL ENERGY

  //>>>>>>>>>>>>>>>>>>>>>>>>>>>>>>>>>>>>//
  // CBS Computation: MP2 / AUG-CC-PVTZ //
  //<<<<<<<<<<<<<<<<<<<<<<<<<<<<<<<<<<<<//


Scratch directory: /scratch//

*** tstart() called on node70.bme.utexas.edu
*** at Sat Apr 11 16:54:15 2020

   => Loading Basis Set <=

    Name: AUG-CC-PVTZ
    Role: ORBITAL
    Keyword: BASIS
    atoms 1   entry O          line   331 file /home/liuchw/anaconda3/envs/psi4env/share/psi4/basis/aug-cc-pvtz.gbs 
    atoms 2-3 entry H          line    40 file /home/liuchw/anaconda3/envs/psi4env/share/psi4/basis/aug-cc-pvtz.gbs 


         ---------------------------------------------------------
                                   SCF
               by Justin Turney, Rob Parrish, Andy Simmonett
                          and Daniel G. A. Smith
                              RHF Reference
                        6 Threads,  38146 MiB Core
         ---------------------------------------------------------

  ==> Geometry <==

    Molecular point group: c1
    Full point group: C1

    Geometry (in Angstrom), charge = 0, multiplicity = 1:

       Center              X                  Y                   Z               Mass       
    ------------   -----------------  -----------------  -----------------  -----------------
         O            4.505148406842    -0.115279152682     0.000079400076    15.994914619570
         H            4.932135406842     0.296315847318     0.754166400076     1.007825032230
         H            4.932134406842     0.296316847318    -0.754006599924     1.007825032230

  Running in c1 symmetry.

  Rotational constants: A =     11.55620  B =      0.04507  C =      0.04497 [cm^-1]
  Rotational constants: A = 346446.06304  B =   1351.06137  C =   1348.05709 [MHz]
  Nuclear repulsion =    9.176361681329736

  Charge       = 0
  Multiplicity = 1
  Electrons    = 10
  Nalpha       = 5
  Nbeta        = 5

  ==> Algorithm <==

  SCF Algorithm Type is DF.
  DIIS enabled.
  MOM disabled.
  Fractional occupation disabled.
  Guess Type is SAD.
  Energy threshold   = 1.00e-07
  Density threshold  = 1.00e-08
  Integral threshold = 0.00e+00

  ==> Primary Basis <==

  Basis Set: AUG-CC-PVTZ
    Blend: AUG-CC-PVTZ
    Number of shells: 32
    Number of basis function: 92
    Number of Cartesian functions: 105
    Spherical Harmonics?: true
    Max angular momentum: 3

   => Loading Basis Set <=

    Name: (AUG-CC-PVTZ AUX)
    Role: JKFIT
    Keyword: DF_BASIS_SCF
    atoms 1   entry O          line   286 file /home/liuchw/anaconda3/envs/psi4env/share/psi4/basis/aug-cc-pvtz-jkfit.gbs 
    atoms 2-3 entry H          line    70 file /home/liuchw/anaconda3/envs/psi4env/share/psi4/basis/aug-cc-pvtz-jkfit.gbs 

  ==> Pre-Iterations <==

   -------------------------------------------------------
    Irrep   Nso     Nmo     Nalpha   Nbeta   Ndocc  Nsocc
   -------------------------------------------------------
     A         92      92       0       0       0       0
   -------------------------------------------------------
    Total      92      92       5       5       5       0
   -------------------------------------------------------

  ==> Integral Setup <==

  DFHelper Memory: AOs need 0.015 GiB; user supplied 27.940 GiB. Using in-core AOs.

  ==> MemDFJK: Density-Fitted J/K Matrices <==

    J tasked:                   Yes
    K tasked:                   Yes
    wK tasked:                   No
    OpenMP threads:               6
    Memory [MiB]:             28610
    Algorithm:                 Core
    Schwarz Cutoff:           1E-12
    Mask sparsity (%):       0.0000
    Fitting Condition:        1E-10

   => Auxiliary Basis Set <=

  Basis Set: (AUG-CC-PVTZ AUX)
    Blend: AUG-CC-PVTZ-JKFIT
    Number of shells: 58
    Number of basis function: 196
    Number of Cartesian functions: 241
    Spherical Harmonics?: true
    Max angular momentum: 4

  Minimum eigenvalue in the overlap matrix is 3.8786156051E-04.
  Using Symmetric Orthogonalization.

  SCF Guess: Superposition of Atomic Densities via on-the-fly atomic UHF.

  ==> Iterations <==

                           Total Energy        Delta E     RMS |[F,P]|

   @DF-RHF iter SAD:   -75.47652693912869   -7.54765e+01   0.00000e+00 
   @DF-RHF iter   1:   -75.97596106392012   -4.99434e-01   5.09253e-03 DIIS
   @DF-RHF iter   2:   -76.02848323622106   -5.25222e-02   3.47320e-03 DIIS
   @DF-RHF iter   3:   -76.05996862003275   -3.14854e-02   2.35862e-04 DIIS
   @DF-RHF iter   4:   -76.06035662892096   -3.88009e-04   5.64388e-05 DIIS
   @DF-RHF iter   5:   -76.06038086969221   -2.42408e-05   1.28216e-05 DIIS
   @DF-RHF iter   6:   -76.06038285172059   -1.98203e-06   2.80246e-06 DIIS
   @DF-RHF iter   7:   -76.06038295577633   -1.04056e-07   5.02564e-07 DIIS
   @DF-RHF iter   8:   -76.06038295871740   -2.94106e-09   8.41811e-08 DIIS
   @DF-RHF iter   9:   -76.06038295878153   -6.41336e-11   2.05463e-08 DIIS
   @DF-RHF iter  10:   -76.06038295878542   -3.89377e-12   3.04532e-09 DIIS
  Energy and wave function converged.


  ==> Post-Iterations <==

    Orbital Energies [Eh]
    ---------------------

    Doubly Occupied:                                                      

       1A    -20.567958     2A     -1.353147     3A     -0.714965  
       4A     -0.586269     5A     -0.510444  

    Virtual:                                                              

       6A      0.029354     7A      0.047730     8A      0.135815  
       9A      0.158763    10A      0.175325    11A      0.183189  
      12A      0.227147    13A      0.245085    14A      0.265602  
      15A      0.299622    16A      0.309908    17A      0.365950  
      18A      0.437756    19A      0.466409    20A      0.599007  
      21A      0.659180    22A      0.707711    23A      0.723046  
      24A      0.731621    25A      0.831672    26A      0.847047  
      27A      0.892096    28A      0.912959    29A      0.917480  
      30A      0.922893    31A      0.931451    32A      0.960709  
      33A      1.021609    34A      1.043681    35A      1.082638  
      36A      1.108518    37A      1.177212    38A      1.183226  
      39A      1.260428    40A      1.510680    41A      1.531472  
      42A      1.582642    43A      1.805136    44A      1.826158  
      45A      1.984918    46A      2.120027    47A      2.263546  
      48A      2.316305    49A      2.327082    50A      2.419026  
      51A      2.421969    52A      2.443683    53A      2.480883  
      54A      2.675006    55A      2.697449    56A      2.774382  
      57A      2.811674    58A      2.885348    59A      3.656913  
      60A      3.740097    61A      4.022209    62A      4.084790  
      63A      4.159154    64A      4.253287    65A      4.282636  
      66A      4.370983    67A      4.378203    68A      4.407624  
      69A      4.522199    70A      4.729743    71A      4.851402  
      72A      5.152828    73A      5.157651    74A      5.248752  
      75A      5.330401    76A      5.529842    77A      5.660487  
      78A      6.185837    79A      6.513993    80A      6.715137  
      81A      6.912180    82A      7.137311    83A      7.260273  
      84A      7.299123    85A      7.321408    86A      7.339986  
      87A      7.360954    88A      7.539279    89A      7.897835  
      90A      7.935127    91A      8.818887    92A     15.765921  

    Final Occupation by Irrep:
              A 
    DOCC [     5 ]

  @DF-RHF Final Energy:   -76.06038295878542

   => Energetics <=

    Nuclear Repulsion Energy =              9.1763616813297357
    One-Electron Energy =                -123.0079250438562042
    Two-Electron Energy =                  37.7711804037410346
    Total Energy =                        -76.0603829587854250

Computation Completed


Properties will be evaluated at   0.000000,   0.000000,   0.000000 [a0]

Properties computed using the SCF density matrix

  Nuclear Dipole Moment: [e a0]
     X:    86.7487      Y:    -0.6229      Z:     0.0015

  Electronic Dipole Moment: [e a0]
     X:   -86.1826      Y:     1.1686      Z:    -0.0015

  Dipole Moment: [e a0]
     X:     0.5662      Y:     0.5458      Z:     0.0000     Total:     0.7864

  Dipole Moment: [D]
     X:     1.4391      Y:     1.3872      Z:     0.0000     Total:     1.9988


*** tstop() called on node70.bme.utexas.edu at Sat Apr 11 16:54:16 2020
Module time:
	user time   =       5.32 seconds =       0.09 minutes
	system time =       0.29 seconds =       0.00 minutes
	total time  =          1 seconds =       0.02 minutes
Total time:
	user time   =       5.32 seconds =       0.09 minutes
	system time =       0.29 seconds =       0.00 minutes
	total time  =          1 seconds =       0.02 minutes

*** tstart() called on node70.bme.utexas.edu
*** at Sat Apr 11 16:54:16 2020


  //>>>>>>>>>>>>>>>>>>>>>>>>>>>>>>>>>>>//
  //               DFMP2               //
  //<<<<<<<<<<<<<<<<<<<<<<<<<<<<<<<<<<<//

   => Loading Basis Set <=

    Name: (AUG-CC-PVTZ AUX)
    Role: RIFIT
    Keyword: DF_BASIS_MP2
    atoms 1   entry O          line   264 file /home/liuchw/anaconda3/envs/psi4env/share/psi4/basis/aug-cc-pvtz-ri.gbs 
    atoms 2-3 entry H          line    30 file /home/liuchw/anaconda3/envs/psi4env/share/psi4/basis/aug-cc-pvtz-ri.gbs 

	 --------------------------------------------------------
	                          DF-MP2                         
	      2nd-Order Density-Fitted Moller-Plesset Theory     
	              RMP2 Wavefunction,   6 Threads             
	                                                         
	        Rob Parrish, Justin Turney, Andy Simmonett,      
	           Ed Hohenstein, and C. David Sherrill          
	 --------------------------------------------------------

   => Auxiliary Basis Set <=

  Basis Set: (AUG-CC-PVTZ AUX)
    Blend: AUG-CC-PVTZ-RI
    Number of shells: 56
    Number of basis function: 198
    Number of Cartesian functions: 246
    Spherical Harmonics?: true
    Max angular momentum: 4

	 --------------------------------------------------------
	                 NBF =    92, NAUX =   198
	 --------------------------------------------------------
	   CLASS    FOCC     OCC    AOCC    AVIR     VIR    FVIR
	   PAIRS       0       5       5      87      87       0
	 --------------------------------------------------------

	-----------------------------------------------------------
	 ==================> DF-MP2 Energies <==================== 
	-----------------------------------------------------------
	 Reference Energy          =     -76.0603829587854250 [Eh]
	 Singles Energy            =      -0.0000000000000000 [Eh]
	 Same-Spin Energy          =      -0.0683894425078571 [Eh]
	 Opposite-Spin Energy      =      -0.2153098577134308 [Eh]
	 Correlation Energy        =      -0.2836993002212879 [Eh]
	 Total Energy              =     -76.3440822590067114 [Eh]
	-----------------------------------------------------------
	 ================> DF-SCS-MP2 Energies <================== 
	-----------------------------------------------------------
	 SCS Same-Spin Scale       =       0.3333333333333333 [-]
	 SCS Opposite-Spin Scale   =       1.2000000000000000 [-]
	 SCS Same-Spin Energy      =      -0.0227964808359524 [Eh]
	 SCS Opposite-Spin Energy  =      -0.2583718292561169 [Eh]
	 SCS Correlation Energy    =      -0.2811683100920693 [Eh]
	 SCS Total Energy          =     -76.3415512688774953 [Eh]
	-----------------------------------------------------------


*** tstop() called on node70.bme.utexas.edu at Sat Apr 11 16:54:16 2020
Module time:
	user time   =       2.26 seconds =       0.04 minutes
	system time =       0.15 seconds =       0.00 minutes
	total time  =          0 seconds =       0.00 minutes
Total time:
	user time   =       7.58 seconds =       0.13 minutes
	system time =       0.44 seconds =       0.01 minutes
	total time  =          1 seconds =       0.02 minutes

  //>>>>>>>>>>>>>>>>>>>>>>>>>>>>>>>>>>>>//
  // CBS Computation: MP2 / AUG-CC-PVQZ //
  //<<<<<<<<<<<<<<<<<<<<<<<<<<<<<<<<<<<<//


Scratch directory: /scratch//

*** tstart() called on node70.bme.utexas.edu
*** at Sat Apr 11 16:54:16 2020

   => Loading Basis Set <=

    Name: AUG-CC-PVQZ
    Role: ORBITAL
    Keyword: BASIS
    atoms 1   entry O          line   423 file /home/liuchw/anaconda3/envs/psi4env/share/psi4/basis/aug-cc-pvqz.gbs 
    atoms 2-3 entry H          line    40 file /home/liuchw/anaconda3/envs/psi4env/share/psi4/basis/aug-cc-pvqz.gbs 


         ---------------------------------------------------------
                                   SCF
               by Justin Turney, Rob Parrish, Andy Simmonett
                          and Daniel G. A. Smith
                              RHF Reference
                        6 Threads,  38146 MiB Core
         ---------------------------------------------------------

  ==> Geometry <==

    Molecular point group: c1
    Full point group: C1

    Geometry (in Angstrom), charge = 0, multiplicity = 1:

       Center              X                  Y                   Z               Mass       
    ------------   -----------------  -----------------  -----------------  -----------------
         O            4.505148406842    -0.115279152682     0.000079400076    15.994914619570
         H            4.932135406842     0.296315847318     0.754166400076     1.007825032230
         H            4.932134406842     0.296316847318    -0.754006599924     1.007825032230

  Running in c1 symmetry.

  Rotational constants: A =     11.55620  B =      0.04507  C =      0.04497 [cm^-1]
  Rotational constants: A = 346446.06304  B =   1351.06137  C =   1348.05709 [MHz]
  Nuclear repulsion =    9.176361681329736

  Charge       = 0
  Multiplicity = 1
  Electrons    = 10
  Nalpha       = 5
  Nbeta        = 5

  ==> Algorithm <==

  SCF Algorithm Type is DF.
  DIIS enabled.
  MOM disabled.
  Fractional occupation disabled.
  Guess Type is SAD.
  Energy threshold   = 1.00e-07
  Density threshold  = 1.00e-08
  Integral threshold = 0.00e+00

  ==> Primary Basis <==

  Basis Set: AUG-CC-PVQZ
    Blend: AUG-CC-PVQZ
    Number of shells: 48
    Number of basis function: 172
    Number of Cartesian functions: 215
    Spherical Harmonics?: true
    Max angular momentum: 4

   => Loading Basis Set <=

    Name: (AUG-CC-PVQZ AUX)
    Role: JKFIT
    Keyword: DF_BASIS_SCF
    atoms 1   entry O          line   318 file /home/liuchw/anaconda3/envs/psi4env/share/psi4/basis/aug-cc-pvqz-jkfit.gbs 
    atoms 2-3 entry H          line    70 file /home/liuchw/anaconda3/envs/psi4env/share/psi4/basis/aug-cc-pvqz-jkfit.gbs 

  ==> Pre-Iterations <==

   -------------------------------------------------------
    Irrep   Nso     Nmo     Nalpha   Nbeta   Ndocc  Nsocc
   -------------------------------------------------------
     A        172     172       0       0       0       0
   -------------------------------------------------------
    Total     172     172       5       5       5       0
   -------------------------------------------------------

  ==> Integral Setup <==

  DFHelper Memory: AOs need 0.074 GiB; user supplied 27.940 GiB. Using in-core AOs.

  ==> MemDFJK: Density-Fitted J/K Matrices <==

    J tasked:                   Yes
    K tasked:                   Yes
    wK tasked:                   No
    OpenMP threads:               6
    Memory [MiB]:             28610
    Algorithm:                 Core
    Schwarz Cutoff:           1E-12
    Mask sparsity (%):       0.0000
    Fitting Condition:        1E-10

   => Auxiliary Basis Set <=

  Basis Set: (AUG-CC-PVQZ AUX)
    Blend: AUG-CC-PVQZ-JKFIT
    Number of shells: 70
    Number of basis function: 294
    Number of Cartesian functions: 400
    Spherical Harmonics?: true
    Max angular momentum: 5

  Minimum eigenvalue in the overlap matrix is 8.7138826454E-05.
  Using Symmetric Orthogonalization.

  SCF Guess: Superposition of Atomic Densities via on-the-fly atomic UHF.

  ==> Iterations <==

                           Total Energy        Delta E     RMS |[F,P]|

   @DF-RHF iter SAD:   -75.48166861723249   -7.54817e+01   0.00000e+00 
   @DF-RHF iter   1:   -75.98104190372409   -4.99373e-01   2.72974e-03 DIIS
   @DF-RHF iter   2:   -76.03366449361612   -5.26226e-02   1.86597e-03 DIIS
   @DF-RHF iter   3:   -76.06534903644783   -3.16845e-02   1.27115e-04 DIIS
   @DF-RHF iter   4:   -76.06573912316762   -3.90087e-04   3.10944e-05 DIIS
   @DF-RHF iter   5:   -76.06576425467327   -2.51315e-05   7.04003e-06 DIIS
   @DF-RHF iter   6:   -76.06576631814347   -2.06347e-06   1.58123e-06 DIIS
   @DF-RHF iter   7:   -76.06576643357158   -1.15428e-07   2.93380e-07 DIIS
   @DF-RHF iter   8:   -76.06576643706072   -3.48913e-09   4.71790e-08 DIIS
   @DF-RHF iter   9:   -76.06576643713377   -7.30580e-11   1.12552e-08 DIIS
   @DF-RHF iter  10:   -76.06576643713733   -3.55271e-12   1.69905e-09 DIIS
  Energy and wave function converged.


  ==> Post-Iterations <==

    Orbital Energies [Eh]
    ---------------------

    Doubly Occupied:                                                      

       1A    -20.565507     2A     -1.352419     3A     -0.714930  
       4A     -0.586317     5A     -0.510576  

    Virtual:                                                              

       6A      0.026875     7A      0.043123     8A      0.114061  
       9A      0.133495    10A      0.151198    11A      0.158751  
      12A      0.184941    13A      0.197117    14A      0.209436  
      15A      0.237193    16A      0.256929    17A      0.291757  
      18A      0.357840    19A      0.390181    20A      0.469694  
      21A      0.508982    22A      0.542007    23A      0.547840  
      24A      0.556355    25A      0.614508    26A      0.632273  
      27A      0.647169    28A      0.663377    29A      0.665607  
      30A      0.684460    31A      0.706519    32A      0.719506  
      33A      0.769870    34A      0.789612    35A      0.802317  
      36A      0.802951    37A      0.843022    38A      0.853933  
      39A      0.967960    40A      1.122323    41A      1.136981  
      42A      1.209164    43A      1.332554    44A      1.441552  
      45A      1.482875    46A      1.509624    47A      1.513453  
      48A      1.526324    49A      1.554013    50A      1.589566  
      51A      1.621278    52A      1.638400    53A      1.662133  
      54A      1.664353    55A      1.688497    56A      1.702828  
      57A      1.737028    58A      1.751668    59A      1.766238  
      60A      1.775539    61A      1.844406    62A      1.864586  
      63A      1.895079    64A      1.916730    65A      1.984458  
      66A      2.007689    67A      2.033921    68A      2.040111  
      69A      2.099422    70A      2.205990    71A      2.216179  
      72A      2.314518    73A      2.435917    74A      2.627381  
      75A      2.632965    76A      2.888254    77A      2.959896  
      78A      2.995080    79A      3.041525    80A      3.056388  
      81A      3.086624    82A      3.267485    83A      3.307173  
      84A      3.310926    85A      3.489175    86A      3.588355  
      87A      3.643256    88A      3.687913    89A      3.720446  
      90A      3.782591    91A      3.923256    92A      4.078827  
      93A      4.166131    94A      4.167491    95A      4.178309  
      96A      4.178698    97A      4.231737    98A      4.329819  
      99A      4.432907   100A      4.582151   101A      4.731165  
     102A      4.745797   103A      4.778213   104A      4.780862  
     105A      4.810717   106A      4.879424   107A      4.995723  
     108A      5.235759   109A      5.313769   110A      5.523952  
     111A      5.537529   112A      5.859451   113A      5.890667  
     114A      6.074896   115A      6.236635   116A      6.823859  
     117A      6.887527   118A      6.891848   119A      6.907084  
     120A      7.732991   121A      7.778542   122A      7.785609  
     123A      7.822777   124A      7.840587   125A      7.900022  
     126A      7.925027   127A      8.022641   128A      8.165245  
     129A      8.201513   130A      8.533414   131A      8.625223  
     132A      8.655012   133A      8.692665   134A      8.790351  
     135A      8.847709   136A      8.986177   137A      9.042255  
     138A      9.225272   139A      9.674234   140A      9.907010  
     141A      9.921992   142A      9.945712   143A      9.993505  
     144A     10.326935   145A     10.451648   146A     10.677205  
     147A     11.019275   148A     11.072476   149A     11.093741  
     150A     11.269713   151A     11.309418   152A     11.413832  
     153A     11.717543   154A     11.796608   155A     11.830587  
     156A     11.990134   157A     12.205090   158A     12.207958  
     159A     12.629343   160A     12.743665   161A     12.832609  
     162A     12.909246   163A     13.174545   164A     14.005012  
     165A     14.017639   166A     14.513130   167A     14.810720  
     168A     14.910302   169A     15.261898   170A     16.843504  
     171A     17.298501   172A     45.508106  

    Final Occupation by Irrep:
              A 
    DOCC [     5 ]

  @DF-RHF Final Energy:   -76.06576643713733

   => Energetics <=

    Nuclear Repulsion Energy =              9.1763616813297357
    One-Electron Energy =                -123.0247598491792189
    Two-Electron Energy =                  37.7826317307121471
    Total Energy =                        -76.0657664371373414

Computation Completed


Properties will be evaluated at   0.000000,   0.000000,   0.000000 [a0]

Properties computed using the SCF density matrix

  Nuclear Dipole Moment: [e a0]
     X:    86.7487      Y:    -0.6229      Z:     0.0015

  Electronic Dipole Moment: [e a0]
     X:   -86.1832      Y:     1.1680      Z:    -0.0015

  Dipole Moment: [e a0]
     X:     0.5656      Y:     0.5452      Z:     0.0000     Total:     0.7855

  Dipole Moment: [D]
     X:     1.4375      Y:     1.3857      Z:     0.0000     Total:     1.9967


*** tstop() called on node70.bme.utexas.edu at Sat Apr 11 16:54:18 2020
Module time:
	user time   =       8.13 seconds =       0.14 minutes
	system time =       0.48 seconds =       0.01 minutes
	total time  =          2 seconds =       0.03 minutes
Total time:
	user time   =      15.74 seconds =       0.26 minutes
	system time =       0.93 seconds =       0.02 minutes
	total time  =          3 seconds =       0.05 minutes

*** tstart() called on node70.bme.utexas.edu
*** at Sat Apr 11 16:54:18 2020


  //>>>>>>>>>>>>>>>>>>>>>>>>>>>>>>>>>>>//
  //               DFMP2               //
  //<<<<<<<<<<<<<<<<<<<<<<<<<<<<<<<<<<<//

   => Loading Basis Set <=

    Name: (AUG-CC-PVQZ AUX)
    Role: RIFIT
    Keyword: DF_BASIS_MP2
    atoms 1   entry O          line   332 file /home/liuchw/anaconda3/envs/psi4env/share/psi4/basis/aug-cc-pvqz-ri.gbs 
    atoms 2-3 entry H          line    30 file /home/liuchw/anaconda3/envs/psi4env/share/psi4/basis/aug-cc-pvqz-ri.gbs 

	 --------------------------------------------------------
	                          DF-MP2                         
	      2nd-Order Density-Fitted Moller-Plesset Theory     
	              RMP2 Wavefunction,   6 Threads             
	                                                         
	        Rob Parrish, Justin Turney, Andy Simmonett,      
	           Ed Hohenstein, and C. David Sherrill          
	 --------------------------------------------------------

   => Auxiliary Basis Set <=

  Basis Set: (AUG-CC-PVQZ AUX)
    Blend: AUG-CC-PVQZ-RI
    Number of shells: 76
    Number of basis function: 328
    Number of Cartesian functions: 447
    Spherical Harmonics?: true
    Max angular momentum: 5

	 --------------------------------------------------------
	                 NBF =   172, NAUX =   328
	 --------------------------------------------------------
	   CLASS    FOCC     OCC    AOCC    AVIR     VIR    FVIR
	   PAIRS       0       5       5     167     167       0
	 --------------------------------------------------------

	-----------------------------------------------------------
	 ==================> DF-MP2 Energies <==================== 
	-----------------------------------------------------------
	 Reference Energy          =     -76.0657664371373272 [Eh]
	 Singles Energy            =      -0.0000000000000000 [Eh]
	 Same-Spin Energy          =      -0.0727171777928037 [Eh]
	 Opposite-Spin Energy      =      -0.2442473178517000 [Eh]
	 Correlation Energy        =      -0.3169644956445037 [Eh]
	 Total Energy              =     -76.3827309327818256 [Eh]
	-----------------------------------------------------------
	 ================> DF-SCS-MP2 Energies <================== 
	-----------------------------------------------------------
	 SCS Same-Spin Scale       =       0.3333333333333333 [-]
	 SCS Opposite-Spin Scale   =       1.2000000000000000 [-]
	 SCS Same-Spin Energy      =      -0.0242390592642679 [Eh]
	 SCS Opposite-Spin Energy  =      -0.2930967814220400 [Eh]
	 SCS Correlation Energy    =      -0.3173358406863079 [Eh]
	 SCS Total Energy          =     -76.3831022778236388 [Eh]
	-----------------------------------------------------------


*** tstop() called on node70.bme.utexas.edu at Sat Apr 11 16:54:19 2020
Module time:
	user time   =       3.27 seconds =       0.05 minutes
	system time =       0.16 seconds =       0.00 minutes
	total time  =          1 seconds =       0.02 minutes
Total time:
	user time   =      19.01 seconds =       0.32 minutes
	system time =       1.09 seconds =       0.02 minutes
	total time  =          4 seconds =       0.07 minutes

  //>>>>>>>>>>>>>>>>>>>>>>>>>>>>>>>>>>>//
  //  CBS Results: mp2/aug-cc-pv[tq]z  //
  //<<<<<<<<<<<<<<<<<<<<<<<<<<<<<<<<<<<//


   ==> HF <==

   HI-zeta (4) Energy:               -76.065766437137


   ==> Helgaker 2-point correlated extrapolation for method: MP2 <==

   LO-zeta (3) Energy:               -76.344082259007
   HI-zeta (4) Energy:               -76.382730932782
   Alpha (exponent) Value:             3.000000000000
   Extrapolated Energy:              -76.410934019050

   @Extrapolated MP2/(T,Q):          -76.410934019050



   ==> Helgaker 2-point correlated extrapolation for method: HF <==

   LO-zeta (3) Energy:               -76.060382958785
   HI-zeta (4) Energy:               -76.065766437137
   Alpha (exponent) Value:             3.000000000000
   Extrapolated Energy:              -76.069694921340

   @Extrapolated HF/(T,Q):           -76.069694921340


   ==> Components <==

  ---------------------------------------------------------------------------------------------------------
                          Method / Basis                      Rqd      Energy [Eh]   Variable
  ---------------------------------------------------------------------------------------------------------
                              hf / aug-cc-pvtz                  *     -76.06038296   HF TOTAL ENERGY
                             mp2 / aug-cc-pvtz                  *     -76.34408226   MP2 TOTAL ENERGY
                              hf / aug-cc-pvqz                  *     -76.06576644   HF TOTAL ENERGY
                             mp2 / aug-cc-pvqz                  *     -76.38273093   MP2 TOTAL ENERGY
  ---------------------------------------------------------------------------------------------------------

   ==> Stages <==

  ---------------------------------------------------------------------------------------------------------
      Stage               Method / Basis                       Wt      Energy [Eh]   Scheme
  ---------------------------------------------------------------------------------------------------------
        scf                   hf / aug-cc-pvqz                  1     -76.06576644   xtpl_highest_1
       corl                  mp2 / aug-cc-pv[tq]z               1     -76.41093402   corl_xtpl_helgaker_2
       corl                   hf / aug-cc-pv[tq]z              -1     -76.06969492   corl_xtpl_helgaker_2
  ---------------------------------------------------------------------------------------------------------

   ==> CBS <==

  ---------------------------------------------------------------------------------------------------------
      Stage               Method / Basis                               Energy [Eh]   Scheme
  ---------------------------------------------------------------------------------------------------------
        scf                   hf / aug-cc-pvqz                        -76.06576644   xtpl_highest_1
       corl                  mp2 / aug-cc-pv[tq]z                      -0.34123910   corl_xtpl_helgaker_2
      total                  CBS                                      -76.40700553   
  ---------------------------------------------------------------------------------------------------------
   => Loading Basis Set <=

    Name: DEF2-SVP
    Role: ORBITAL
    Keyword: BASIS
    atoms 1   entry O          line   130 file /home/liuchw/anaconda3/envs/psi4env/share/psi4/basis/def2-svp.gbs 
    atoms 2-3 entry H          line    15 file /home/liuchw/anaconda3/envs/psi4env/share/psi4/basis/def2-svp.gbs 


       N-Body: Complex Energy (fragments = (2,), basis = (2,):   -76.40700553484739)

       N-Body: Computing complex (2/4) with fragments (2,) in the basis of fragments (1, 2).


Scratch directory: /scratch//

  //>>>>>>>>>>>>>>>>>>>>>>>>>>>>>>>>>>>//
  //   CBS Setup: mp2/aug-cc-pv[tq]z   //
  //<<<<<<<<<<<<<<<<<<<<<<<<<<<<<<<<<<<//

    Naive listing of computations required.
             hf / aug-cc-pvqz              for  HF TOTAL ENERGY
            mp2 / aug-cc-pvtz              for  MP2 TOTAL ENERGY
            mp2 / aug-cc-pvqz              for  MP2 TOTAL ENERGY
             hf / aug-cc-pvtz              for  HF TOTAL ENERGY
             hf / aug-cc-pvqz              for  HF TOTAL ENERGY

    Enlightened listing of computations required.
            mp2 / aug-cc-pvtz              for  MP2 TOTAL ENERGY
            mp2 / aug-cc-pvqz              for  MP2 TOTAL ENERGY

    Full listing of computations to be obtained (required and bonus).
             hf / aug-cc-pvtz              for  HF TOTAL ENERGY
            mp2 / aug-cc-pvtz              for  MP2 TOTAL ENERGY
             hf / aug-cc-pvqz              for  HF TOTAL ENERGY
            mp2 / aug-cc-pvqz              for  MP2 TOTAL ENERGY

  //>>>>>>>>>>>>>>>>>>>>>>>>>>>>>>>>>>>>//
  // CBS Computation: MP2 / AUG-CC-PVTZ //
  //<<<<<<<<<<<<<<<<<<<<<<<<<<<<<<<<<<<<//


Scratch directory: /scratch//

*** tstart() called on node70.bme.utexas.edu
*** at Sat Apr 11 16:54:20 2020

   => Loading Basis Set <=

    Name: AUG-CC-PVTZ
    Role: ORBITAL
    Keyword: BASIS
    atoms 1           entry BR         line  4208 file /home/liuchw/anaconda3/envs/psi4env/share/psi4/basis/aug-cc-pvtz.gbs 
    atoms 2-7         entry C          line   239 file /home/liuchw/anaconda3/envs/psi4env/share/psi4/basis/aug-cc-pvtz.gbs 
    atoms 8-12, 14-15 entry H          line    40 file /home/liuchw/anaconda3/envs/psi4env/share/psi4/basis/aug-cc-pvtz.gbs 
    atoms 13          entry O          line   331 file /home/liuchw/anaconda3/envs/psi4env/share/psi4/basis/aug-cc-pvtz.gbs 


         ---------------------------------------------------------
                                   SCF
               by Justin Turney, Rob Parrish, Andy Simmonett
                          and Daniel G. A. Smith
                              RHF Reference
                        6 Threads,  38146 MiB Core
         ---------------------------------------------------------

  ==> Geometry <==

    Molecular point group: c1
    Full point group: C1

    Geometry (in Angstrom), charge = 0, multiplicity = 1:

       Center              X                  Y                   Z               Mass       
    ------------   -----------------  -----------------  -----------------  -----------------
      Gh(BR)          1.103597406842    -0.048829152682     0.000027400076    78.918337600000
      Gh(C)          -0.777832593158     0.017535847318    -0.000014599924    12.000000000000
      Gh(C)          -1.423247593158     1.252139847318    -0.000051599924    12.000000000000
      Gh(C)          -1.506340593158    -1.169964152682    -0.000008599924    12.000000000000
      Gh(C)          -2.815759593158     1.292979847318    -0.000082599924    12.000000000000
      Gh(C)          -2.898333593158    -1.115040152682    -0.000040599924    12.000000000000
      Gh(C)          -3.556579593158     0.112976847318    -0.000077599924    12.000000000000
      Gh(H)          -0.842980593158     2.163515847318    -0.000055599924     1.007825032230
      Gh(H)          -0.989688593158    -2.118846152682     0.000019400076     1.007825032230
      Gh(H)          -3.318821593158     2.250332847318    -0.000110599924     1.007825032230
      Gh(H)          -3.465800593158    -2.035663152682    -0.000035599924     1.007825032230
      Gh(H)          -4.636866593158     0.150045847318    -0.000101599924     1.007825032230
         O            4.505148406842    -0.115279152682     0.000079400076    15.994914619570
         H            4.932135406842     0.296315847318     0.754166400076     1.007825032230
         H            4.932134406842     0.296316847318    -0.754006599924     1.007825032230

  Running in c1 symmetry.

  Rotational constants: A =      0.18702  B =      0.01823  C =      0.01665 [cm^-1]
  Rotational constants: A =   5606.68338  B =    546.61877  C =    499.18852 [MHz]
  Nuclear repulsion =    9.176361681329736

  Charge       = 0
  Multiplicity = 1
  Electrons    = 10
  Nalpha       = 5
  Nbeta        = 5

  ==> Algorithm <==

  SCF Algorithm Type is DF.
  DIIS enabled.
  MOM disabled.
  Fractional occupation disabled.
  Guess Type is SAD.
  Energy threshold   = 1.00e-07
  Density threshold  = 1.00e-08
  Integral threshold = 0.00e+00

  ==> Primary Basis <==

  Basis Set: AUG-CC-PVTZ
    Blend: AUG-CC-PVTZ
    Number of shells: 180
    Number of basis function: 542
    Number of Cartesian functions: 629
    Spherical Harmonics?: true
    Max angular momentum: 3

   => Loading Basis Set <=

    Name: (AUG-CC-PVTZ AUX)
    Role: JKFIT
    Keyword: DF_BASIS_SCF
    atoms 1           entry BR         line  1492 file /home/liuchw/anaconda3/envs/psi4env/share/psi4/basis/aug-cc-pvtz-jkfit.gbs 
    atoms 2-7         entry C          line   162 file /home/liuchw/anaconda3/envs/psi4env/share/psi4/basis/aug-cc-pvtz-jkfit.gbs 
    atoms 8-12, 14-15 entry H          line    70 file /home/liuchw/anaconda3/envs/psi4env/share/psi4/basis/aug-cc-pvtz-jkfit.gbs 
    atoms 13          entry O          line   286 file /home/liuchw/anaconda3/envs/psi4env/share/psi4/basis/aug-cc-pvtz-jkfit.gbs 

  ==> Pre-Iterations <==

   -------------------------------------------------------
    Irrep   Nso     Nmo     Nalpha   Nbeta   Ndocc  Nsocc
   -------------------------------------------------------
     A        542     542       0       0       0       0
   -------------------------------------------------------
    Total     542     542       5       5       5       0
   -------------------------------------------------------

  ==> Integral Setup <==

  DFHelper Memory: AOs need 2.576 GiB; user supplied 27.940 GiB. Using in-core AOs.

  ==> MemDFJK: Density-Fitted J/K Matrices <==

    J tasked:                   Yes
    K tasked:                   Yes
    wK tasked:                   No
    OpenMP threads:               6
    Memory [MiB]:             28610
    Algorithm:                 Core
    Schwarz Cutoff:           1E-12
    Mask sparsity (%):      12.3031
    Fitting Condition:        1E-10

   => Auxiliary Basis Set <=

  Basis Set: (AUG-CC-PVTZ AUX)
    Blend: AUG-CC-PVTZ-JKFIT
    Number of shells: 366
    Number of basis function: 1298
    Number of Cartesian functions: 1631
    Spherical Harmonics?: true
    Max angular momentum: 4

  Minimum eigenvalue in the overlap matrix is 6.7032686437E-07.
  Using Symmetric Orthogonalization.

  SCF Guess: Superposition of Atomic Densities via on-the-fly atomic UHF.

  ==> Iterations <==

                           Total Energy        Delta E     RMS |[F,P]|

   @DF-RHF iter SAD:   -75.47652693378137   -7.54765e+01   0.00000e+00 
   @DF-RHF iter   1:   -75.97597302216889   -4.99446e-01   8.64481e-04 DIIS
   @DF-RHF iter   2:   -76.02850078897063   -5.25278e-02   5.89669e-04 DIIS
   @DF-RHF iter   3:   -76.05999652385806   -3.14957e-02   4.00405e-05 DIIS
   @DF-RHF iter   4:   -76.06038460365413   -3.88080e-04   9.58423e-06 DIIS
   @DF-RHF iter   5:   -76.06040886368503   -2.42600e-05   2.17688e-06 DIIS
   @DF-RHF iter   6:   -76.06041084714366   -1.98346e-06   4.75952e-07 DIIS
   @DF-RHF iter   7:   -76.06041095135063   -1.04207e-07   8.55111e-08 DIIS
   @DF-RHF iter   8:   -76.06041095431127   -2.96063e-09   1.43436e-08 DIIS
   @DF-RHF iter   9:   -76.06041095437570   -6.44320e-11   3.49437e-09 DIIS
  Energy and wave function converged.


  ==> Post-Iterations <==

    Orbital Energies [Eh]
    ---------------------

    Doubly Occupied:                                                      

       1A    -20.567904     2A     -1.353114     3A     -0.714932  
       4A     -0.586240     5A     -0.510442  

    Virtual:                                                              

       6A      0.019795     7A      0.026642     8A      0.034201  
       9A      0.041315    10A      0.046827    11A      0.051478  
      12A      0.058189    13A      0.071196    14A      0.079514  
      15A      0.086235    16A      0.096706    17A      0.100161  
      18A      0.100989    19A      0.101084    20A      0.107695  
      21A      0.114133    22A      0.127856    23A      0.134837  
      24A      0.135929    25A      0.137513    26A      0.140031  
      27A      0.140201    28A      0.147390    29A      0.154104  
      30A      0.159979    31A      0.166242    32A      0.166435  
      33A      0.174012    34A      0.180137    35A      0.188402  
      36A      0.197721    37A      0.200509    38A      0.207431  
      39A      0.213823    40A      0.224410    41A      0.241550  
      42A      0.241606    43A      0.248961    44A      0.251355  
      45A      0.255130    46A      0.267731    47A      0.277980  
      48A      0.288187    49A      0.291089    50A      0.292227  
      51A      0.297146    52A      0.305246    53A      0.310384  
      54A      0.314297    55A      0.316813    56A      0.325003  
      57A      0.342342    58A      0.352326    59A      0.355807  
      60A      0.358108    61A      0.358773    62A      0.363615  
      63A      0.364905    64A      0.366005    65A      0.368612  
      66A      0.373131    67A      0.379004    68A      0.388438  
      69A      0.392027    70A      0.397870    71A      0.401859  
      72A      0.402590    73A      0.412203    74A      0.414141  
      75A      0.425968    76A      0.428133    77A      0.431428  
      78A      0.436833    79A      0.437196    80A      0.440625  
      81A      0.464238    82A      0.467896    83A      0.472980  
      84A      0.478375    85A      0.486609    86A      0.503927  
      87A      0.512639    88A      0.518319    89A      0.520287  
      90A      0.531902    91A      0.533125    92A      0.544009  
      93A      0.549470    94A      0.576419    95A      0.590826  
      96A      0.592215    97A      0.595200    98A      0.598784  
      99A      0.605372   100A      0.615025   101A      0.626827  
     102A      0.629186   103A      0.637056   104A      0.662367  
     105A      0.663601   106A      0.670995   107A      0.673304  
     108A      0.674166   109A      0.682037   110A      0.685938  
     111A      0.686699   112A      0.696378   113A      0.711111  
     114A      0.712786   115A      0.724233   116A      0.724978  
     117A      0.726270   118A      0.740175   119A      0.745175  
     120A      0.747120   121A      0.752771   122A      0.757569  
     123A      0.767193   124A      0.769607   125A      0.773667  
     126A      0.795030   127A      0.809229   128A      0.823223  
     129A      0.830203   130A      0.830397   131A      0.837256  
     132A      0.847235   133A      0.872252   134A      0.877387  
     135A      0.890982   136A      0.901656   137A      0.906978  
     138A      0.917538   139A      0.920205   140A      0.921498  
     141A      0.942268   142A      0.945852   143A      0.951507  
     144A      0.956170   145A      0.994638   146A      0.997277  
     147A      1.004313   148A      1.019995   149A      1.022529  
     150A      1.024021   151A      1.027164   152A      1.031426  
     153A      1.040819   154A      1.056141   155A      1.061844  
     156A      1.067328   157A      1.074850   158A      1.076188  
     159A      1.087851   160A      1.090620   161A      1.092103  
     162A      1.102201   163A      1.107994   164A      1.115357  
     165A      1.122182   166A      1.124450   167A      1.133179  
     168A      1.136128   169A      1.138284   170A      1.151988  
     171A      1.165526   172A      1.173730   173A      1.173821  
     174A      1.176290   175A      1.188672   176A      1.194451  
     177A      1.203158   178A      1.215864   179A      1.225967  
     180A      1.232785   181A      1.242030   182A      1.246392  
     183A      1.253617   184A      1.258882   185A      1.262883  
     186A      1.268655   187A      1.276861   188A      1.284383  
     189A      1.296779   190A      1.301464   191A      1.310477  
     192A      1.310540   193A      1.312346   194A      1.312446  
     195A      1.315555   196A      1.317998   197A      1.322993  
     198A      1.329498   199A      1.355901   200A      1.363141  
     201A      1.373124   202A      1.381688   203A      1.388858  
     204A      1.389410   205A      1.393116   206A      1.428933  
     207A      1.433472   208A      1.437093   209A      1.465858  
     210A      1.466838   211A      1.474842   212A      1.495040  
     213A      1.495156   214A      1.506762   215A      1.536099  
     216A      1.536421   217A      1.538174   218A      1.552445  
     219A      1.560084   220A      1.567288   221A      1.570108  
     222A      1.570426   223A      1.571103   224A      1.577752  
     225A      1.586724   226A      1.598435   227A      1.611684  
     228A      1.620475   229A      1.640408   230A      1.648054  
     231A      1.651146   232A      1.669934   233A      1.674462  
     234A      1.685118   235A      1.703865   236A      1.706156  
     237A      1.727768   238A      1.728488   239A      1.819920  
     240A      1.830038   241A      1.836768   242A      1.846213  
     243A      1.873206   244A      1.878950   245A      1.883508  
     246A      1.890607   247A      1.897588   248A      1.917568  
     249A      1.925046   250A      1.957252   251A      1.989023  
     252A      1.993475   253A      2.008422   254A      2.013235  
     255A      2.075896   256A      2.090038   257A      2.106996  
     258A      2.128624   259A      2.132762   260A      2.160645  
     261A      2.162575   262A      2.180904   263A      2.190660  
     264A      2.191814   265A      2.200693   266A      2.213583  
     267A      2.222403   268A      2.242272   269A      2.243154  
     270A      2.273549   271A      2.285512   272A      2.294520  
     273A      2.309266   274A      2.331571   275A      2.334117  
     276A      2.337274   277A      2.337929   278A      2.349036  
     279A      2.352532   280A      2.360962   281A      2.364480  
     282A      2.372604   283A      2.374055   284A      2.375508  
     285A      2.404948   286A      2.423978   287A      2.443361  
     288A      2.449072   289A      2.464786   290A      2.470680  
     291A      2.499007   292A      2.508364   293A      2.521519  
     294A      2.526448   295A      2.535134   296A      2.544006  
     297A      2.556810   298A      2.559050   299A      2.562280  
     300A      2.568259   301A      2.582696   302A      2.621945  
     303A      2.682040   304A      2.693478   305A      2.736583  
     306A      2.756355   307A      2.767510   308A      2.781364  
     309A      2.795526   310A      2.803659   311A      2.826569  
     312A      2.844409   313A      2.872099   314A      2.884393  
     315A      2.896819   316A      2.898729   317A      2.914089  
     318A      2.924782   319A      2.973906   320A      3.061966  
     321A      3.098117   322A      3.113924   323A      3.130218  
     324A      3.199753   325A      3.229523   326A      3.251401  
     327A      3.291763   328A      3.330671   329A      3.333662  
     330A      3.358543   331A      3.376502   332A      3.380461  
     333A      3.450119   334A      3.473617   335A      3.501945  
     336A      3.521405   337A      3.540904   338A      3.542573  
     339A      3.626450   340A      3.670492   341A      3.671162  
     342A      3.707971   343A      3.761692   344A      3.784524  
     345A      3.798433   346A      3.849041   347A      3.885624  
     348A      3.954038   349A      3.976967   350A      4.007668  
     351A      4.011536   352A      4.013945   353A      4.033042  
     354A      4.037331   355A      4.044492   356A      4.064270  
     357A      4.064780   358A      4.079178   359A      4.101710  
     360A      4.103991   361A      4.137607   362A      4.150549  
     363A      4.172997   364A      4.174708   365A      4.185889  
     366A      4.208929   367A      4.218870   368A      4.224554  
     369A      4.235223   370A      4.259332   371A      4.263883  
     372A      4.294927   373A      4.304959   374A      4.308244  
     375A      4.316558   376A      4.317950   377A      4.345727  
     378A      4.355892   379A      4.370792   380A      4.386848  
     381A      4.398532   382A      4.424949   383A      4.426390  
     384A      4.459107   385A      4.484594   386A      4.512376  
     387A      4.516751   388A      4.519234   389A      4.526165  
     390A      4.531457   391A      4.565905   392A      4.569924  
     393A      4.578063   394A      4.589422   395A      4.603941  
     396A      4.624380   397A      4.648387   398A      4.710008  
     399A      4.712022   400A      4.720546   401A      4.761276  
     402A      4.768797   403A      4.795099   404A      4.798514  
     405A      4.844301   406A      4.859762   407A      4.865281  
     408A      4.913856   409A      4.958550   410A      4.973423  
     411A      4.993484   412A      5.011252   413A      5.060866  
     414A      5.064111   415A      5.072235   416A      5.094928  
     417A      5.129565   418A      5.137203   419A      5.156629  
     420A      5.159378   421A      5.174178   422A      5.179429  
     423A      5.188790   424A      5.190494   425A      5.215479  
     426A      5.231830   427A      5.245259   428A      5.255688  
     429A      5.310206   430A      5.321657   431A      5.340454  
     432A      5.376779   433A      5.414111   434A      5.419457  
     435A      5.457452   436A      5.490985   437A      5.500128  
     438A      5.505013   439A      5.539067   440A      5.549239  
     441A      5.552631   442A      5.607217   443A      5.613580  
     444A      5.639166   445A      5.649700   446A      5.690209  
     447A      5.722407   448A      5.729876   449A      5.732146  
     450A      5.735927   451A      5.773217   452A      5.779585  
     453A      5.795449   454A      5.805683   455A      5.890307  
     456A      5.933363   457A      5.936314   458A      5.998607  
     459A      6.023819   460A      6.044756   461A      6.062475  
     462A      6.140456   463A      6.161219   464A      6.177096  
     465A      6.202121   466A      6.231781   467A      6.275777  
     468A      6.297103   469A      6.356618   470A      6.425403  
     471A      6.459098   472A      6.525885   473A      6.601092  
     474A      6.676183   475A      6.731128   476A      6.776506  
     477A      6.875866   478A      6.904817   479A      6.923200  
     480A      6.974426   481A      7.068051   482A      7.069202  
     483A      7.085310   484A      7.106737   485A      7.146378  
     486A      7.171740   487A      7.243639   488A      7.302180  
     489A      7.323601   490A      7.362309   491A      7.376835  
     492A      7.391203   493A      7.422801   494A      7.434203  
     495A      7.449760   496A      7.562840   497A      7.566894  
     498A      7.621140   499A      7.735910   500A      7.879484  
     501A      7.906363   502A      7.938037   503A      8.002741  
     504A      8.052053   505A      8.103838   506A      8.212305  
     507A      8.296948   508A      8.354579   509A      8.668434  
     510A      8.822998   511A      8.940844   512A      9.271340  
     513A      9.312884   514A      9.363534   515A      9.966165  
     516A     10.058921   517A     10.855137   518A     11.063357  
     519A     11.066360   520A     11.276806   521A     11.377559  
     522A     12.362938   523A     13.697239   524A     14.088754  
     525A     14.728803   526A     15.840609   527A     26.226520  
     528A     26.287883   529A     26.347941   530A     26.560999  
     531A     26.864075   532A     47.275263   533A     49.404888  
     534A     49.641035   535A     50.789475   536A     54.715431  
     537A     56.002596   538A     56.273513   539A    138.782369  
     540A    139.431280   541A    140.563407   542A    714.076209  

    Final Occupation by Irrep:
              A 
    DOCC [     5 ]

  @DF-RHF Final Energy:   -76.06041095437570

   => Energetics <=

    Nuclear Repulsion Energy =              9.1763616813297357
    One-Electron Energy =                -123.0082799711108805
    Two-Electron Energy =                  37.7715073354054383
    Total Energy =                        -76.0604109543756977

Computation Completed


Properties will be evaluated at   0.000000,   0.000000,   0.000000 [a0]

Properties computed using the SCF density matrix

  Nuclear Dipole Moment: [e a0]
     X:    86.7487      Y:    -0.6229      Z:     0.0015

  Electronic Dipole Moment: [e a0]
     X:   -86.1825      Y:     1.1681      Z:    -0.0015

  Dipole Moment: [e a0]
     X:     0.5662      Y:     0.5453      Z:     0.0000     Total:     0.7861

  Dipole Moment: [D]
     X:     1.4392      Y:     1.3859      Z:     0.0000     Total:     1.9980


*** tstop() called on node70.bme.utexas.edu at Sat Apr 11 16:54:35 2020
Module time:
	user time   =      69.32 seconds =       1.16 minutes
	system time =       1.70 seconds =       0.03 minutes
	total time  =         15 seconds =       0.25 minutes
Total time:
	user time   =      90.28 seconds =       1.50 minutes
	system time =       2.86 seconds =       0.05 minutes
	total time  =         20 seconds =       0.33 minutes

*** tstart() called on node70.bme.utexas.edu
*** at Sat Apr 11 16:54:35 2020


  //>>>>>>>>>>>>>>>>>>>>>>>>>>>>>>>>>>>//
  //               DFMP2               //
  //<<<<<<<<<<<<<<<<<<<<<<<<<<<<<<<<<<<//

   => Loading Basis Set <=

    Name: (AUG-CC-PVTZ AUX)
    Role: RIFIT
    Keyword: DF_BASIS_MP2
    atoms 1           entry BR         line  1248 file /home/liuchw/anaconda3/envs/psi4env/share/psi4/basis/aug-cc-pvtz-ri.gbs 
    atoms 2-7         entry C          line   148 file /home/liuchw/anaconda3/envs/psi4env/share/psi4/basis/aug-cc-pvtz-ri.gbs 
    atoms 8-12, 14-15 entry H          line    30 file /home/liuchw/anaconda3/envs/psi4env/share/psi4/basis/aug-cc-pvtz-ri.gbs 
    atoms 13          entry O          line   264 file /home/liuchw/anaconda3/envs/psi4env/share/psi4/basis/aug-cc-pvtz-ri.gbs 

	 --------------------------------------------------------
	                          DF-MP2                         
	      2nd-Order Density-Fitted Moller-Plesset Theory     
	              RMP2 Wavefunction,   6 Threads             
	                                                         
	        Rob Parrish, Justin Turney, Andy Simmonett,      
	           Ed Hohenstein, and C. David Sherrill          
	 --------------------------------------------------------

   => Auxiliary Basis Set <=

  Basis Set: (AUG-CC-PVTZ AUX)
    Blend: AUG-CC-PVTZ-RI
    Number of shells: 337
    Number of basis function: 1255
    Number of Cartesian functions: 1598
    Spherical Harmonics?: true
    Max angular momentum: 5

	 --------------------------------------------------------
	                 NBF =   542, NAUX =  1255
	 --------------------------------------------------------
	   CLASS    FOCC     OCC    AOCC    AVIR     VIR    FVIR
	   PAIRS       0       5       5     537     537       0
	 --------------------------------------------------------

	-----------------------------------------------------------
	 ==================> DF-MP2 Energies <==================== 
	-----------------------------------------------------------
	 Reference Energy          =     -76.0604109543756977 [Eh]
	 Singles Energy            =      -0.0000000000000000 [Eh]
	 Same-Spin Energy          =      -0.0684131450053820 [Eh]
	 Opposite-Spin Energy      =      -0.2154815397814595 [Eh]
	 Correlation Energy        =      -0.2838946847868415 [Eh]
	 Total Energy              =     -76.3443056391625419 [Eh]
	-----------------------------------------------------------
	 ================> DF-SCS-MP2 Energies <================== 
	-----------------------------------------------------------
	 SCS Same-Spin Scale       =       0.3333333333333333 [-]
	 SCS Opposite-Spin Scale   =       1.2000000000000000 [-]
	 SCS Same-Spin Energy      =      -0.0228043816684607 [Eh]
	 SCS Opposite-Spin Energy  =      -0.2585778477377514 [Eh]
	 SCS Correlation Energy    =      -0.2813822294062121 [Eh]
	 SCS Total Energy          =     -76.3417931837819168 [Eh]
	-----------------------------------------------------------


*** tstop() called on node70.bme.utexas.edu at Sat Apr 11 16:54:43 2020
Module time:
	user time   =      33.60 seconds =       0.56 minutes
	system time =       0.93 seconds =       0.02 minutes
	total time  =          8 seconds =       0.13 minutes
Total time:
	user time   =     123.89 seconds =       2.06 minutes
	system time =       3.79 seconds =       0.06 minutes
	total time  =         28 seconds =       0.47 minutes

  //>>>>>>>>>>>>>>>>>>>>>>>>>>>>>>>>>>>>//
  // CBS Computation: MP2 / AUG-CC-PVQZ //
  //<<<<<<<<<<<<<<<<<<<<<<<<<<<<<<<<<<<<//


Scratch directory: /scratch//

*** tstart() called on node70.bme.utexas.edu
*** at Sat Apr 11 16:54:43 2020

   => Loading Basis Set <=

    Name: AUG-CC-PVQZ
    Role: ORBITAL
    Keyword: BASIS
    atoms 1           entry BR         line  5448 file /home/liuchw/anaconda3/envs/psi4env/share/psi4/basis/aug-cc-pvqz.gbs 
    atoms 2-7         entry C          line   303 file /home/liuchw/anaconda3/envs/psi4env/share/psi4/basis/aug-cc-pvqz.gbs 
    atoms 8-12, 14-15 entry H          line    40 file /home/liuchw/anaconda3/envs/psi4env/share/psi4/basis/aug-cc-pvqz.gbs 
    atoms 13          entry O          line   423 file /home/liuchw/anaconda3/envs/psi4env/share/psi4/basis/aug-cc-pvqz.gbs 


         ---------------------------------------------------------
                                   SCF
               by Justin Turney, Rob Parrish, Andy Simmonett
                          and Daniel G. A. Smith
                              RHF Reference
                        6 Threads,  38146 MiB Core
         ---------------------------------------------------------

  ==> Geometry <==

    Molecular point group: c1
    Full point group: C1

    Geometry (in Angstrom), charge = 0, multiplicity = 1:

       Center              X                  Y                   Z               Mass       
    ------------   -----------------  -----------------  -----------------  -----------------
      Gh(BR)          1.103597406842    -0.048829152682     0.000027400076    78.918337600000
      Gh(C)          -0.777832593158     0.017535847318    -0.000014599924    12.000000000000
      Gh(C)          -1.423247593158     1.252139847318    -0.000051599924    12.000000000000
      Gh(C)          -1.506340593158    -1.169964152682    -0.000008599924    12.000000000000
      Gh(C)          -2.815759593158     1.292979847318    -0.000082599924    12.000000000000
      Gh(C)          -2.898333593158    -1.115040152682    -0.000040599924    12.000000000000
      Gh(C)          -3.556579593158     0.112976847318    -0.000077599924    12.000000000000
      Gh(H)          -0.842980593158     2.163515847318    -0.000055599924     1.007825032230
      Gh(H)          -0.989688593158    -2.118846152682     0.000019400076     1.007825032230
      Gh(H)          -3.318821593158     2.250332847318    -0.000110599924     1.007825032230
      Gh(H)          -3.465800593158    -2.035663152682    -0.000035599924     1.007825032230
      Gh(H)          -4.636866593158     0.150045847318    -0.000101599924     1.007825032230
         O            4.505148406842    -0.115279152682     0.000079400076    15.994914619570
         H            4.932135406842     0.296315847318     0.754166400076     1.007825032230
         H            4.932134406842     0.296316847318    -0.754006599924     1.007825032230

  Running in c1 symmetry.

  Rotational constants: A =      0.18702  B =      0.01823  C =      0.01665 [cm^-1]
  Rotational constants: A =   5606.68338  B =    546.61877  C =    499.18852 [MHz]
  Nuclear repulsion =    9.176361681329736

  Charge       = 0
  Multiplicity = 1
  Electrons    = 10
  Nalpha       = 5
  Nbeta        = 5

  ==> Algorithm <==

  SCF Algorithm Type is DF.
  DIIS enabled.
  MOM disabled.
  Fractional occupation disabled.
  Guess Type is SAD.
  Energy threshold   = 1.00e-07
  Density threshold  = 1.00e-08
  Integral threshold = 0.00e+00

  ==> Primary Basis <==

  Basis Set: AUG-CC-PVQZ
    Blend: AUG-CC-PVQZ
    Number of shells: 263
    Number of basis function: 975
    Number of Cartesian functions: 1239
    Spherical Harmonics?: true
    Max angular momentum: 4

   => Loading Basis Set <=

    Name: (AUG-CC-PVQZ AUX)
    Role: JKFIT
    Keyword: DF_BASIS_SCF
    atoms 1           entry BR         line  1612 file /home/liuchw/anaconda3/envs/psi4env/share/psi4/basis/aug-cc-pvqz-jkfit.gbs 
    atoms 2-7         entry C          line   178 file /home/liuchw/anaconda3/envs/psi4env/share/psi4/basis/aug-cc-pvqz-jkfit.gbs 
    atoms 8-12, 14-15 entry H          line    70 file /home/liuchw/anaconda3/envs/psi4env/share/psi4/basis/aug-cc-pvqz-jkfit.gbs 
    atoms 13          entry O          line   318 file /home/liuchw/anaconda3/envs/psi4env/share/psi4/basis/aug-cc-pvqz-jkfit.gbs 

  ==> Pre-Iterations <==

   -------------------------------------------------------
    Irrep   Nso     Nmo     Nalpha   Nbeta   Ndocc  Nsocc
   -------------------------------------------------------
     A        975     975       0       0       0       0
   -------------------------------------------------------
    Total     975     975       5       5       5       0
   -------------------------------------------------------

  ==> Integral Setup <==

  DFHelper Memory: AOs need 10.733 GiB; user supplied 27.940 GiB. Using in-core AOs.

  ==> MemDFJK: Density-Fitted J/K Matrices <==

    J tasked:                   Yes
    K tasked:                   Yes
    wK tasked:                   No
    OpenMP threads:               6
    Memory [MiB]:             28610
    Algorithm:                 Core
    Schwarz Cutoff:           1E-12
    Mask sparsity (%):      17.9865
    Fitting Condition:        1E-10

   => Auxiliary Basis Set <=

  Basis Set: (AUG-CC-PVQZ AUX)
    Blend: AUG-CC-PVQZ-JKFIT
    Number of shells: 424
    Number of basis function: 1796
    Number of Cartesian functions: 2464
    Spherical Harmonics?: true
    Max angular momentum: 5

  Minimum eigenvalue in the overlap matrix is 2.4516212784E-07.
  Using Symmetric Orthogonalization.

  SCF Guess: Superposition of Atomic Densities via on-the-fly atomic UHF.

  ==> Iterations <==

                           Total Energy        Delta E     RMS |[F,P]|

   @DF-RHF iter SAD:   -75.48166860931626   -7.54817e+01   0.00000e+00 
   @DF-RHF iter   1:   -75.98105527118489   -4.99387e-01   4.81568e-04 DIIS
   @DF-RHF iter   2:   -76.03368018464614   -5.26249e-02   3.29191e-04 DIIS
   @DF-RHF iter   3:   -76.06536564297917   -3.16855e-02   2.24254e-05 DIIS
   @DF-RHF iter   4:   -76.06575577137936   -3.90128e-04   5.48582e-06 DIIS
   @DF-RHF iter   5:   -76.06578090780883   -2.51364e-05   1.24216e-06 DIIS
   @DF-RHF iter   6:   -76.06578297221728   -2.06441e-06   2.79036e-07 DIIS
   @DF-RHF iter   7:   -76.06578308775985   -1.15543e-07   5.18214e-08 DIIS
   @DF-RHF iter   8:   -76.06578309126296   -3.50310e-09   8.34094e-09 DIIS
  Energy and wave function converged.


  ==> Post-Iterations <==

    Orbital Energies [Eh]
    ---------------------

    Doubly Occupied:                                                      

       1A    -20.565481     2A     -1.352394     3A     -0.714906  
       4A     -0.586296     5A     -0.510569  

    Virtual:                                                              

       6A      0.017842     7A      0.023958     8A      0.030263  
       9A      0.037160    10A      0.041939    11A      0.045488  
      12A      0.052603    13A      0.060568    14A      0.071142  
      15A      0.077110    16A      0.084503    17A      0.084968  
      18A      0.086175    19A      0.086612    20A      0.095458  
      21A      0.097448    22A      0.112866    23A      0.113978  
      24A      0.116287    25A      0.120790    26A      0.123988  
      27A      0.124968    28A      0.126966    29A      0.131750  
      30A      0.136131    31A      0.143621    32A      0.145184  
      33A      0.153952    34A      0.155381    35A      0.162947  
      36A      0.169253    37A      0.173458    38A      0.181169  
      39A      0.184765    40A      0.189813    41A      0.194275  
      42A      0.208511    43A      0.211729    44A      0.211760  
      45A      0.217358    46A      0.220240    47A      0.232749  
      48A      0.233826    49A      0.241559    50A      0.244087  
      51A      0.248226    52A      0.250926    53A      0.256930  
      54A      0.263701    55A      0.273604    56A      0.276938  
      57A      0.282115    58A      0.286972    59A      0.290282  
      60A      0.294930    61A      0.299121    62A      0.303736  
      63A      0.306325    64A      0.308046    65A      0.309361  
      66A      0.310856    67A      0.317724    68A      0.318087  
      69A      0.324352    70A      0.327244    71A      0.335205  
      72A      0.337411    73A      0.340788    74A      0.348801  
      75A      0.349888    76A      0.356584    77A      0.361898  
      78A      0.365423    79A      0.368994    80A      0.371215  
      81A      0.373415    82A      0.378618    83A      0.390468  
      84A      0.390570    85A      0.400263    86A      0.407194  
      87A      0.409667    88A      0.413872    89A      0.428167  
      90A      0.433132    91A      0.433776    92A      0.439735  
      93A      0.443893    94A      0.447138    95A      0.469148  
      96A      0.472409    97A      0.473138    98A      0.477437  
      99A      0.484789   100A      0.488050   101A      0.491981  
     102A      0.499879   103A      0.501477   104A      0.508429  
     105A      0.510158   106A      0.515571   107A      0.520444  
     108A      0.529365   109A      0.537244   110A      0.539061  
     111A      0.545026   112A      0.547928   113A      0.549218  
     114A      0.555106   115A      0.558694   116A      0.564895  
     117A      0.570481   118A      0.571544   119A      0.575316  
     120A      0.577104   121A      0.584858   122A      0.589760  
     123A      0.598070   124A      0.610254   125A      0.613633  
     126A      0.618446   127A      0.624065   128A      0.638697  
     129A      0.638913   130A      0.645528   131A      0.656096  
     132A      0.667459   133A      0.670886   134A      0.682494  
     135A      0.684693   136A      0.690065   137A      0.694977  
     138A      0.698424   139A      0.705570   140A      0.709945  
     141A      0.718959   142A      0.728221   143A      0.740033  
     144A      0.740956   145A      0.749456   146A      0.749504  
     147A      0.758960   148A      0.769076   149A      0.772116  
     150A      0.775540   151A      0.777417   152A      0.779653  
     153A      0.784473   154A      0.785497   155A      0.792885  
     156A      0.800907   157A      0.802245   158A      0.805667  
     159A      0.812262   160A      0.817798   161A      0.818179  
     162A      0.823946   163A      0.824538   164A      0.826372  
     165A      0.846634   166A      0.856104   167A      0.859623  
     168A      0.867031   169A      0.867990   170A      0.873158  
     171A      0.876457   172A      0.880033   173A      0.887760  
     174A      0.889763   175A      0.898507   176A      0.903730  
     177A      0.905374   178A      0.922912   179A      0.931919  
     180A      0.934754   181A      0.935709   182A      0.943299  
     183A      0.944507   184A      0.947200   185A      0.955127  
     186A      0.959260   187A      0.962278   188A      0.971928  
     189A      0.976929   190A      0.981282   191A      0.987709  
     192A      0.997889   193A      1.003818   194A      1.004911  
     195A      1.005387   196A      1.032129   197A      1.036334  
     198A      1.039147   199A      1.048675   200A      1.050977  
     201A      1.058040   202A      1.060264   203A      1.064008  
     204A      1.067221   205A      1.072474   206A      1.073702  
     207A      1.076247   208A      1.078082   209A      1.084607  
     210A      1.100467   211A      1.100980   212A      1.104200  
     213A      1.105103   214A      1.124110   215A      1.137306  
     216A      1.138858   217A      1.153155   218A      1.153738  
     219A      1.156039   220A      1.176405   221A      1.181877  
     222A      1.187118   223A      1.192788   224A      1.216705  
     225A      1.219007   226A      1.231129   227A      1.232762  
     228A      1.237383   229A      1.244009   230A      1.257961  
     231A      1.270059   232A      1.282775   233A      1.286062  
     234A      1.304141   235A      1.317100   236A      1.333576  
     237A      1.347616   238A      1.352886   239A      1.358172  
     240A      1.362748   241A      1.364221   242A      1.365686  
     243A      1.389314   244A      1.394654   245A      1.405204  
     246A      1.419084   247A      1.426197   248A      1.441345  
     249A      1.455891   250A      1.472544   251A      1.491829  
     252A      1.505337   253A      1.509422   254A      1.511959  
     255A      1.518563   256A      1.526543   257A      1.527689  
     258A      1.530340   259A      1.540660   260A      1.552424  
     261A      1.556472   262A      1.560538   263A      1.564420  
     264A      1.572183   265A      1.576687   266A      1.589818  
     267A      1.593171   268A      1.595921   269A      1.595967  
     270A      1.599670   271A      1.607748   272A      1.607801  
     273A      1.618277   274A      1.631108   275A      1.644411  
     276A      1.647011   277A      1.651919   278A      1.654482  
     279A      1.659660   280A      1.665551   281A      1.666008  
     282A      1.681150   283A      1.692672   284A      1.695210  
     285A      1.702115   286A      1.711986   287A      1.725694  
     288A      1.737286   289A      1.740386   290A      1.748402  
     291A      1.756668   292A      1.767674   293A      1.777776  
     294A      1.778405   295A      1.790129   296A      1.790989  
     297A      1.793394   298A      1.801165   299A      1.806151  
     300A      1.809392   301A      1.810814   302A      1.812501  
     303A      1.813660   304A      1.821610   305A      1.834076  
     306A      1.834690   307A      1.840814   308A      1.854944  
     309A      1.864307   310A      1.865037   311A      1.884435  
     312A      1.885104   313A      1.898276   314A      1.900431  
     315A      1.906012   316A      1.909509   317A      1.912733  
     318A      1.914714   319A      1.920042   320A      1.923197  
     321A      1.924744   322A      1.941394   323A      1.956163  
     324A      1.957696   325A      1.974411   326A      1.982063  
     327A      1.983400   328A      1.986091   329A      1.994531  
     330A      1.997992   331A      2.007048   332A      2.008933  
     333A      2.020343   334A      2.022338   335A      2.029032  
     336A      2.031655   337A      2.041713   338A      2.045098  
     339A      2.048566   340A      2.055436   341A      2.057282  
     342A      2.060311   343A      2.066831   344A      2.072612  
     345A      2.088956   346A      2.097889   347A      2.101237  
     348A      2.103602   349A      2.119303   350A      2.129765  
     351A      2.132052   352A      2.133090   353A      2.156574  
     354A      2.164987   355A      2.174759   356A      2.177046  
     357A      2.195057   358A      2.199448   359A      2.202030  
     360A      2.206714   361A      2.211426   362A      2.212224  
     363A      2.231537   364A      2.237238   365A      2.246630  
     366A      2.249903   367A      2.254422   368A      2.259869  
     369A      2.273413   370A      2.279053   371A      2.282246  
     372A      2.287872   373A      2.299481   374A      2.301280  
     375A      2.312569   376A      2.324169   377A      2.331751  
     378A      2.349230   379A      2.352144   380A      2.363986  
     381A      2.390032   382A      2.391329   383A      2.391943  
     384A      2.396034   385A      2.400704   386A      2.408175  
     387A      2.414907   388A      2.439923   389A      2.443976  
     390A      2.444288   391A      2.478513   392A      2.501995  
     393A      2.509765   394A      2.518930   395A      2.526347  
     396A      2.528298   397A      2.534210   398A      2.545195  
     399A      2.555767   400A      2.562085   401A      2.570476  
     402A      2.576822   403A      2.593972   404A      2.602345  
     405A      2.607843   406A      2.617664   407A      2.632768  
     408A      2.639323   409A      2.666414   410A      2.671692  
     411A      2.684028   412A      2.686542   413A      2.690665  
     414A      2.718739   415A      2.725103   416A      2.732383  
     417A      2.733713   418A      2.749237   419A      2.757328  
     420A      2.763170   421A      2.767364   422A      2.809219  
     423A      2.815395   424A      2.821936   425A      2.822763  
     426A      2.840304   427A      2.851777   428A      2.859165  
     429A      2.867971   430A      2.891165   431A      2.900711  
     432A      2.934237   433A      2.944493   434A      2.952871  
     435A      2.956169   436A      2.962892   437A      2.971142  
     438A      2.974504   439A      2.980662   440A      2.988473  
     441A      2.991892   442A      3.006003   443A      3.020787  
     444A      3.024637   445A      3.025084   446A      3.045562  
     447A      3.048126   448A      3.055187   449A      3.065820  
     450A      3.071956   451A      3.082228   452A      3.092871  
     453A      3.096253   454A      3.099967   455A      3.103491  
     456A      3.106668   457A      3.108419   458A      3.137227  
     459A      3.153991   460A      3.160100   461A      3.176111  
     462A      3.195551   463A      3.202701   464A      3.232410  
     465A      3.234537   466A      3.253677   467A      3.257157  
     468A      3.257791   469A      3.258498   470A      3.272061  
     471A      3.283043   472A      3.289706   473A      3.296506  
     474A      3.298190   475A      3.307873   476A      3.315120  
     477A      3.321166   478A      3.322837   479A      3.347600  
     480A      3.363423   481A      3.380621   482A      3.388558  
     483A      3.411662   484A      3.418072   485A      3.428671  
     486A      3.433416   487A      3.445379   488A      3.460234  
     489A      3.479858   490A      3.488193   491A      3.494793  
     492A      3.517385   493A      3.525340   494A      3.532384  
     495A      3.540451   496A      3.545239   497A      3.547730  
     498A      3.616635   499A      3.628264   500A      3.631711  
     501A      3.644756   502A      3.645738   503A      3.664440  
     504A      3.678045   505A      3.685419   506A      3.707813  
     507A      3.708605   508A      3.722742   509A      3.736740  
     510A      3.736816   511A      3.745731   512A      3.768849  
     513A      3.786593   514A      3.788200   515A      3.802083  
     516A      3.821148   517A      3.827444   518A      3.836511  
     519A      3.860518   520A      3.881662   521A      3.917629  
     522A      3.925848   523A      3.939239   524A      3.963834  
     525A      3.985495   526A      3.996420   527A      4.001348  
     528A      4.009119   529A      4.038013   530A      4.042248  
     531A      4.076921   532A      4.107505   533A      4.124296  
     534A      4.128433   535A      4.144862   536A      4.148736  
     537A      4.172684   538A      4.182605   539A      4.182916  
     540A      4.197952   541A      4.201030   542A      4.207890  
     543A      4.208705   544A      4.212245   545A      4.219975  
     546A      4.230210   547A      4.243353   548A      4.255711  
     549A      4.260763   550A      4.314108   551A      4.320772  
     552A      4.325423   553A      4.348476   554A      4.350163  
     555A      4.362470   556A      4.368732   557A      4.378290  
     558A      4.393375   559A      4.403143   560A      4.410227  
     561A      4.428510   562A      4.431549   563A      4.442206  
     564A      4.461765   565A      4.486922   566A      4.510647  
     567A      4.516578   568A      4.536623   569A      4.537782  
     570A      4.560889   571A      4.595744   572A      4.598452  
     573A      4.599646   574A      4.607126   575A      4.643076  
     576A      4.677135   577A      4.707004   578A      4.712572  
     579A      4.714293   580A      4.741668   581A      4.754074  
     582A      4.763435   583A      4.770321   584A      4.784715  
     585A      4.789600   586A      4.803961   587A      4.810233  
     588A      4.818226   589A      4.825307   590A      4.831949  
     591A      4.865228   592A      4.894246   593A      4.903369  
     594A      4.916104   595A      4.920923   596A      4.925996  
     597A      4.933655   598A      4.939423   599A      4.945849  
     600A      4.952309   601A      4.968371   602A      4.990520  
     603A      4.991660   604A      5.007638   605A      5.011405  
     606A      5.023263   607A      5.027261   608A      5.031348  
     609A      5.042673   610A      5.050371   611A      5.070233  
     612A      5.082016   613A      5.108712   614A      5.133558  
     615A      5.177669   616A      5.186391   617A      5.190418  
     618A      5.222365   619A      5.230357   620A      5.263941  
     621A      5.272056   622A      5.284770   623A      5.295054  
     624A      5.305197   625A      5.309882   626A      5.336178  
     627A      5.350603   628A      5.359921   629A      5.378710  
     630A      5.433420   631A      5.442793   632A      5.460559  
     633A      5.461371   634A      5.498049   635A      5.499082  
     636A      5.566197   637A      5.575487   638A      5.612243  
     639A      5.622630   640A      5.629534   641A      5.642884  
     642A      5.661838   643A      5.672194   644A      5.686093  
     645A      5.826479   646A      5.871629   647A      5.876316  
     648A      5.900341   649A      5.936856   650A      5.961337  
     651A      5.975853   652A      5.985625   653A      6.068342  
     654A      6.092165   655A      6.143077   656A      6.152300  
     657A      6.248092   658A      6.268904   659A      6.313130  
     660A      6.321741   661A      6.362404   662A      6.393027  
     663A      6.462942   664A      6.468016   665A      6.479438  
     666A      6.488150   667A      6.488797   668A      6.498727  
     669A      6.550734   670A      6.573332   671A      6.581195  
[...]
     524A      3.327976   525A      3.335427   526A      3.344256  
     527A      3.362189   528A      3.369336   529A      3.374909  
     530A      3.411216   531A      3.426907   532A      3.454365  
     533A      3.462579   534A      3.468693   535A      3.470691  
     536A      3.482892   537A      3.507478   538A      3.513580  
     539A      3.532549   540A      3.533095   541A      3.550193  
     542A      3.560867   543A      3.577778   544A      3.583947  
     545A      3.593009   546A      3.604282   547A      3.626864  
     548A      3.642438   549A      3.654709   550A      3.656736  
     551A      3.672868   552A      3.676914   553A      3.682230  
     554A      3.705804   555A      3.711873   556A      3.744739  
     557A      3.746252   558A      3.751160   559A      3.766973  
     560A      3.772338   561A      3.787220   562A      3.787277  
     563A      3.789349   564A      3.794520   565A      3.796278  
     566A      3.823303   567A      3.850073   568A      3.858770  
     569A      3.865137   570A      3.874568   571A      3.889950  
     572A      3.893095   573A      3.894331   574A      3.908942  
     575A      3.931475   576A      3.941396   577A      3.947689  
     578A      3.959321   579A      3.964382   580A      3.974018  
     581A      3.985155   582A      3.991888   583A      4.013317  
     584A      4.015860   585A      4.020010   586A      4.027045  
     587A      4.033284   588A      4.050818   589A      4.073652  
     590A      4.093757   591A      4.112602   592A      4.120546  
     593A      4.122590   594A      4.136531   595A      4.150506  
     596A      4.159659   597A      4.188544   598A      4.195954  
     599A      4.204463   600A      4.205902   601A      4.239190  
     602A      4.250363   603A      4.270520   604A      4.278415  
     605A      4.286739   606A      4.316225   607A      4.322816  
     608A      4.329079   609A      4.330754   610A      4.333596  
     611A      4.351850   612A      4.369748   613A      4.370176  
     614A      4.373110   615A      4.373954   616A      4.399033  
     617A      4.405858   618A      4.407614   619A      4.409138  
     620A      4.416594   621A      4.421758   622A      4.429119  
     623A      4.465394   624A      4.465943   625A      4.474887  
     626A      4.497409   627A      4.520894   628A      4.525835  
     629A      4.540464   630A      4.555554   631A      4.578795  
     632A      4.598894   633A      4.600559   634A      4.608255  
     635A      4.614967   636A      4.615168   637A      4.617312  
     638A      4.729038   639A      4.734388   640A      4.748416  
     641A      4.760016   642A      4.780377   643A      4.787616  
     644A      4.803081   645A      4.805361   646A      4.814264  
     647A      4.874859   648A      4.894199   649A      4.895080  
     650A      4.897543   651A      4.910739   652A      4.918240  
     653A      4.942472   654A      4.962536   655A      4.981350  
     656A      4.994566   657A      4.994894   658A      5.047164  
     659A      5.055235   660A      5.073954   661A      5.108332  
     662A      5.116511   663A      5.127595   664A      5.140653  
     665A      5.182525   666A      5.267117   667A      5.272473  
     668A      5.302497   669A      5.335099   670A      5.371641  
     671A      5.424817   672A      5.428845   673A      5.446528  
     674A      5.536958   675A      5.566622   676A      5.591296  
     677A      5.619132   678A      5.643601   679A      5.689400  
     680A      5.722362   681A      5.760054   682A      5.788075  
     683A      5.804020   684A      5.839205   685A      5.842213  
     686A      5.876073   687A      5.896605   688A      5.904499  
     689A      5.929459   690A      5.933311   691A      5.991133  
     692A      6.021239   693A      6.025687   694A      6.025808  
     695A      6.053545   696A      6.090132   697A      6.095028  
     698A      6.107179   699A      6.124771   700A      6.178322  
     701A      6.240382   702A      6.258495   703A      6.278201  
     704A      6.291133   705A      6.293757   706A      6.295982  
     707A      6.304162   708A      6.305977   709A      6.323679  
     710A      6.366592   711A      6.372603   712A      6.387258  
     713A      6.421115   714A      6.422936   715A      6.452279  
     716A      6.461408   717A      6.478527   718A      6.488081  
     719A      6.553800   720A      6.608574   721A      6.610589  
     722A      6.610777   723A      6.610828   724A      6.627666  
     725A      6.642813   726A      6.681623   727A      6.685525  
     728A      6.703496   729A      6.711013   730A      6.744806  
     731A      6.769867   732A      6.770785   733A      6.810996  
     734A      6.819940   735A      6.820097   736A      6.845393  
     737A      6.855236   738A      6.856264   739A      6.878514  
     740A      6.886305   741A      6.900917   742A      6.907957  
     743A      6.911891   744A      6.947704   745A      6.955917  
     746A      6.972893   747A      6.987268   748A      6.989526  
     749A      6.998189   750A      7.011384   751A      7.013363  
     752A      7.034824   753A      7.045668   754A      7.076538  
     755A      7.091692   756A      7.096053   757A      7.100471  
     758A      7.104728   759A      7.145014   760A      7.157997  
     761A      7.181827   762A      7.185497   763A      7.195705  
     764A      7.213473   765A      7.214734   766A      7.253690  
     767A      7.262983   768A      7.267005   769A      7.274458  
     770A      7.283120   771A      7.293187   772A      7.313740  
     773A      7.330531   774A      7.383358   775A      7.395456  
     776A      7.427354   777A      7.443216   778A      7.450201  
     779A      7.471244   780A      7.506780   781A      7.514964  
     782A      7.567611   783A      7.587714   784A      7.608328  
     785A      7.628999   786A      7.631024   787A      7.646200  
     788A      7.677108   789A      7.691892   790A      7.692706  
     791A      7.710478   792A      7.726912   793A      7.740864  
     794A      7.751937   795A      7.769193   796A      7.779445  
     797A      7.811650   798A      7.841840   799A      7.842377  
     800A      7.848658   801A      7.850080   802A      7.863421  
     803A      7.875318   804A      7.878005   805A      7.912261  
     806A      7.926623   807A      7.947257   808A      7.955913  
     809A      7.957292   810A      7.972052   811A      7.991548  
     812A      7.999202   813A      8.017773   814A      8.039969  
     815A      8.066328   816A      8.095095   817A      8.097810  
     818A      8.112833   819A      8.135156   820A      8.206925  
     821A      8.218804   822A      8.228038   823A      8.234687  
     824A      8.282619   825A      8.295152   826A      8.305439  
     827A      8.321330   828A      8.343852   829A      8.377518  
     830A      8.383490   831A      8.459387   832A      8.470649  
     833A      8.488306   834A      8.518545   835A      8.548246  
     836A      8.575225   837A      8.610525   838A      8.653390  
     839A      8.659591   840A      8.660749   841A      8.685911  
     842A      8.687258   843A      8.722205   844A      8.724304  
     845A      8.754522   846A      8.767254   847A      8.768675  
     848A      8.787981   849A      8.802181   850A      8.814669  
     851A      8.836174   852A      8.860812   853A      8.902834  
     854A      8.907319   855A      8.926241   856A      8.940287  
     857A      8.944938   858A      8.958689   859A      9.005436  
     860A      9.029701   861A      9.048821   862A      9.050209  
     863A      9.065283   864A      9.082997   865A      9.108406  
     866A      9.135612   867A      9.200739   868A      9.229216  
     869A      9.244759   870A      9.341955   871A      9.349123  
     872A      9.350062   873A      9.366798   874A      9.438771  
     875A      9.478380   876A      9.504480   877A      9.520022  
     878A      9.536493   879A      9.554128   880A      9.564781  
     881A      9.572115   882A      9.594493   883A      9.595565  
     884A      9.676392   885A      9.688184   886A      9.710533  
     887A      9.715899   888A      9.735791   889A      9.824740  
     890A      9.832166   891A      9.871358   892A      9.941387  
     893A      9.950584   894A      9.990196   895A     10.007830  
     896A     10.014162   897A     10.031587   898A     10.037125  
     899A     10.048760   900A     10.086437   901A     10.115566  
     902A     10.241902   903A     10.251036   904A     10.259625  
     905A     10.270465   906A     10.338451   907A     10.360726  
     908A     10.382707   909A     10.397862   910A     10.407467  
     911A     10.419363   912A     10.467690   913A     10.480264  
     914A     10.481952   915A     10.526353   916A     10.568388  
     917A     10.749846   918A     10.757083   919A     10.761575  
     920A     10.778090   921A     10.801999   922A     10.810686  
     923A     10.823412   924A     10.844062   925A     10.913708  
     926A     10.987913   927A     11.053742   928A     11.059191  
     929A     11.064565   930A     11.094989   931A     11.110839  
     932A     11.239918   933A     11.314443   934A     11.316241  
     935A     11.390789   936A     11.452666   937A     11.460955  
     938A     11.487345   939A     11.682168   940A     11.712901  
     941A     11.733117   942A     11.734608   943A     11.750433  
     944A     11.814774   945A     11.866071   946A     12.039271  
     947A     12.222955   948A     12.235343   949A     12.245566  
     950A     12.652830   951A     12.762379   952A     12.860613  
     953A     12.921773   954A     13.176694   955A     13.178902  
     956A     13.325955   957A     13.389650   958A     13.466862  
     959A     13.633445   960A     14.007222   961A     14.051054  
     962A     14.521467   963A     14.813895   964A     14.917215  
     965A     15.271368   966A     15.835462   967A     16.945942  
     968A     17.339859   969A     25.492094   970A     26.156223  
     971A     26.469472   972A     26.705318   973A     27.087852  
     974A     27.190757   975A     45.658067  

    Final Occupation by Irrep:
              A 
    DOCC [    43 ]

  @DF-RHF Final Energy: -2878.73986624980353

   => Energetics <=

    Nuclear Repulsion Energy =            526.6899437678420099
    One-Electron Energy =               -5046.8749437598962686
    Two-Electron Energy =                1641.4451337422506185
    Total Energy =                      -2878.7398662498035264

Computation Completed


Properties will be evaluated at   0.000000,   0.000000,   0.000000 [a0]

Properties computed using the SCF density matrix

  Nuclear Dipole Moment: [e a0]
     X:   -12.4559      Y:     1.3503      Z:    -0.0003

  Electronic Dipole Moment: [e a0]
     X:    12.4600      Y:    -0.8121      Z:     0.0003

  Dipole Moment: [e a0]
     X:     0.0041      Y:     0.5382      Z:    -0.0000     Total:     0.5382

  Dipole Moment: [D]
     X:     0.0105      Y:     1.3679      Z:    -0.0000     Total:     1.3679


*** tstop() called on node70.bme.utexas.edu at Sat Apr 11 17:02:54 2020
Module time:
	user time   =     429.08 seconds =       7.15 minutes
	system time =       6.88 seconds =       0.11 minutes
	total time  =         82 seconds =       1.37 minutes
Total time:
	user time   =    2510.94 seconds =      41.85 minutes
	system time =      53.13 seconds =       0.89 minutes
	total time  =        519 seconds =       8.65 minutes

*** tstart() called on node70.bme.utexas.edu
*** at Sat Apr 11 17:02:54 2020


  //>>>>>>>>>>>>>>>>>>>>>>>>>>>>>>>>>>>//
  //               DFMP2               //
  //<<<<<<<<<<<<<<<<<<<<<<<<<<<<<<<<<<<//

   => Loading Basis Set <=

    Name: (AUG-CC-PVQZ AUX)
    Role: RIFIT
    Keyword: DF_BASIS_MP2
    atoms 1           entry BR         line  1518 file /home/liuchw/anaconda3/envs/psi4env/share/psi4/basis/aug-cc-pvqz-ri.gbs 
    atoms 2-7         entry C          line   184 file /home/liuchw/anaconda3/envs/psi4env/share/psi4/basis/aug-cc-pvqz-ri.gbs 
    atoms 8-12, 14-15 entry H          line    30 file /home/liuchw/anaconda3/envs/psi4env/share/psi4/basis/aug-cc-pvqz-ri.gbs 
    atoms 13          entry O          line   332 file /home/liuchw/anaconda3/envs/psi4env/share/psi4/basis/aug-cc-pvqz-ri.gbs 

	 --------------------------------------------------------
	                          DF-MP2                         
	      2nd-Order Density-Fitted Moller-Plesset Theory     
	              RMP2 Wavefunction,   6 Threads             
	                                                         
	        Rob Parrish, Justin Turney, Andy Simmonett,      
	           Ed Hohenstein, and C. David Sherrill          
	 --------------------------------------------------------

   => Auxiliary Basis Set <=

  Basis Set: (AUG-CC-PVQZ AUX)
    Blend: AUG-CC-PVQZ-RI
    Number of shells: 444
    Number of basis function: 1998
    Number of Cartesian functions: 2781
    Spherical Harmonics?: true
    Max angular momentum: 6

	 --------------------------------------------------------
	                 NBF =   975, NAUX =  1998
	 --------------------------------------------------------
	   CLASS    FOCC     OCC    AOCC    AVIR     VIR    FVIR
	   PAIRS       0      43      43     932     932       0
	 --------------------------------------------------------

	-----------------------------------------------------------
	 ==================> DF-MP2 Energies <==================== 
	-----------------------------------------------------------
	 Reference Energy          =   -2878.7398662498035264 [Eh]
	 Singles Energy            =      -0.0000000000000000 [Eh]
	 Same-Spin Energy          =      -0.4695827352432586 [Eh]
	 Opposite-Spin Energy      =      -1.4270954562704214 [Eh]
	 Correlation Energy        =      -1.8966781915136801 [Eh]
	 Total Energy              =   -2880.6365444413172554 [Eh]
	-----------------------------------------------------------
	 ================> DF-SCS-MP2 Energies <================== 
	-----------------------------------------------------------
	 SCS Same-Spin Scale       =       0.3333333333333333 [-]
	 SCS Opposite-Spin Scale   =       1.2000000000000000 [-]
	 SCS Same-Spin Energy      =      -0.1565275784144195 [Eh]
	 SCS Opposite-Spin Energy  =      -1.7125145475245056 [Eh]
	 SCS Correlation Energy    =      -1.8690421259389252 [Eh]
	 SCS Total Energy          =   -2880.6089083757424305 [Eh]
	-----------------------------------------------------------


*** tstop() called on node70.bme.utexas.edu at Sat Apr 11 17:03:55 2020
Module time:
	user time   =     302.33 seconds =       5.04 minutes
	system time =       5.92 seconds =       0.10 minutes
	total time  =         61 seconds =       1.02 minutes
Total time:
	user time   =    2813.28 seconds =      46.89 minutes
	system time =      59.05 seconds =       0.98 minutes
	total time  =        580 seconds =       9.67 minutes

  //>>>>>>>>>>>>>>>>>>>>>>>>>>>>>>>>>>>//
  //  CBS Results: mp2/aug-cc-pv[tq]z  //
  //<<<<<<<<<<<<<<<<<<<<<<<<<<<<<<<<<<<//


   ==> HF <==

   HI-zeta (4) Energy:               -2878.739866249804


   ==> Helgaker 2-point correlated extrapolation for method: MP2 <==

   LO-zeta (3) Energy:               -2880.367271367947
   HI-zeta (4) Energy:               -2880.636544441317
   Alpha (exponent) Value:             3.000000000000
   Extrapolated Energy:              -2880.833041008371

   @Extrapolated MP2/(T,Q):          -2880.833041008371



   ==> Helgaker 2-point correlated extrapolation for method: HF <==

   LO-zeta (3) Energy:               -2878.718697902787
   HI-zeta (4) Energy:               -2878.739866249804
   Alpha (exponent) Value:             3.000000000000
   Extrapolated Energy:              -2878.755313421950

   @Extrapolated HF/(T,Q):           -2878.755313421950


   ==> Components <==

  ---------------------------------------------------------------------------------------------------------
                          Method / Basis                      Rqd      Energy [Eh]   Variable
  ---------------------------------------------------------------------------------------------------------
                              hf / aug-cc-pvtz                  *   -2878.71869790   HF TOTAL ENERGY
                             mp2 / aug-cc-pvtz                  *   -2880.36727137   MP2 TOTAL ENERGY
                              hf / aug-cc-pvqz                  *   -2878.73986625   HF TOTAL ENERGY
                             mp2 / aug-cc-pvqz                  *   -2880.63654444   MP2 TOTAL ENERGY
  ---------------------------------------------------------------------------------------------------------

   ==> Stages <==

  ---------------------------------------------------------------------------------------------------------
      Stage               Method / Basis                       Wt      Energy [Eh]   Scheme
  ---------------------------------------------------------------------------------------------------------
        scf                   hf / aug-cc-pvqz                  1   -2878.73986625   xtpl_highest_1
       corl                  mp2 / aug-cc-pv[tq]z               1   -2880.83304101   corl_xtpl_helgaker_2
       corl                   hf / aug-cc-pv[tq]z              -1   -2878.75531342   corl_xtpl_helgaker_2
  ---------------------------------------------------------------------------------------------------------

   ==> CBS <==

  ---------------------------------------------------------------------------------------------------------
      Stage               Method / Basis                               Energy [Eh]   Scheme
  ---------------------------------------------------------------------------------------------------------
        scf                   hf / aug-cc-pvqz                      -2878.73986625   xtpl_highest_1
       corl                  mp2 / aug-cc-pv[tq]z                      -2.07772759   corl_xtpl_helgaker_2
      total                  CBS                                    -2880.81759384   
  ---------------------------------------------------------------------------------------------------------
   => Loading Basis Set <=

    Name: DEF2-SVP
    Role: ORBITAL
    Keyword: BASIS
    atoms 1           entry BR         line  1084 file /home/liuchw/anaconda3/envs/psi4env/share/psi4/basis/def2-svp.gbs 
    atoms 2-7         entry C          line    90 file /home/liuchw/anaconda3/envs/psi4env/share/psi4/basis/def2-svp.gbs 
    atoms 8-12, 14-15 entry H          line    15 file /home/liuchw/anaconda3/envs/psi4env/share/psi4/basis/def2-svp.gbs 
    atoms 13          entry O          line   130 file /home/liuchw/anaconda3/envs/psi4env/share/psi4/basis/def2-svp.gbs 


       N-Body: Complex Energy (fragments = (1, 2), basis = (1, 2): -2880.81759383622421)

   ==> N-Body: Counterpoise Corrected (CP) energies <==

   n-Body     Total Energy [Eh]       I.E. [kcal/mol]      Delta [kcal/mol]
        1    -2880.815365260642        0.000000000000        0.000000000000
        2    -2880.817249275089       -1.182236914013       -1.182236914013

   => Loading Basis Set <=

    Name: DEF2-SVP
    Role: ORBITAL
    Keyword: BASIS
    atoms 1           entry BR         line  1084 file /home/liuchw/anaconda3/envs/psi4env/share/psi4/basis/def2-svp.gbs 
    atoms 2-7         entry C          line    90 file /home/liuchw/anaconda3/envs/psi4env/share/psi4/basis/def2-svp.gbs 
    atoms 8-12, 14-15 entry H          line    15 file /home/liuchw/anaconda3/envs/psi4env/share/psi4/basis/def2-svp.gbs 
    atoms 13          entry O          line   130 file /home/liuchw/anaconda3/envs/psi4env/share/psi4/basis/def2-svp.gbs 


    Psi4 stopped on: Saturday, 11 April 2020 05:03PM
    Psi4 wall time for execution: 0:09:41.27

*** Psi4 exiting successfully. Buy a developer a beer!
