
    -----------------------------------------------------------------------
          Psi4: An Open-Source Ab Initio Electronic Structure Package
                               Psi4 1.4a2.dev224 

                         Git: Rev {master} e453b16 


    R. M. Parrish, L. A. Burns, D. G. A. Smith, A. C. Simmonett,
    A. E. DePrince III, E. G. Hohenstein, U. Bozkaya, A. Yu. Sokolov,
    R. Di Remigio, R. M. Richard, J. F. Gonthier, A. M. James,
    H. R. McAlexander, A. Kumar, M. Saitow, X. Wang, B. P. Pritchard,
    P. Verma, H. F. Schaefer III, K. Patkowski, R. A. King, E. F. Valeev,
    F. A. Evangelista, J. M. Turney, T. D. Crawford, and C. D. Sherrill,
    J. Chem. Theory Comput. 13(7) pp 3185--3197 (2017).
    (doi: 10.1021/acs.jctc.7b00174)


                         Additional Contributions by
    P. Kraus, H. Kruse, M. H. Lechner, M. C. Schieber, R. A. Shaw,
    A. Alenaizan, R. Galvelis, Z. L. Glick, S. Lehtola, and J. P. Misiewicz

    -----------------------------------------------------------------------


    Psi4 started on: Saturday, 11 April 2020 11:35AM

    Process ID: 54325
    Host:       node73.bme.utexas.edu
    PSIDATADIR: /home/liuchw/anaconda3/envs/psi4env/share/psi4
    Memory:     500.0 MiB
    Threads:    6
    
  ==> Input File <==

--------------------------------------------------------------------------
#Generated by lconvert.py for cbs job

memory 40 GB

molecule  {
0 1
 Br        2.1195960    -0.1313640     0.0000500
  C        0.2381660    -0.0649990     0.0000080
  C       -0.4072490     1.1696050    -0.0000290
  C       -0.4903420    -1.2524990     0.0000140
  C       -1.7997610     1.2104450    -0.0000600
  C       -1.8823350    -1.1975750    -0.0000180
  C       -2.5405810     0.0304420    -0.0000550
  H        0.1730180     2.0809810    -0.0000330
  H        0.0263100    -2.2013810     0.0000420
  H       -2.3028230     2.1677980    -0.0000880
  H       -2.4498020    -2.1181980    -0.0000130
  H       -3.6208680     0.0675110    -0.0000790
--
0 1
  O        4.3872960    -0.1756640     0.0000850
  H        4.8142830     0.2359310     0.7541710
  H        4.8142820     0.2359320    -0.7540010
units angstrom
no_reorient
symmetry c1
}

set {
scf_type DF
mp2_type DF
e_convergence 7
reference rhf
}

energy('mp2/aug-cc-pv[tq]z', bsse_type='cp')
--------------------------------------------------------------------------

  Memory set to  37.253 GiB by Python driver.

Scratch directory: /scratch//


   ===> N-Body Interaction Abacus <===
        BSSE Treatment:                     cp
        Number of 1-body computations:     4
        Number of 2-body computations:     1

   ==> N-Body: Now computing 1-body complexes <==


       N-Body: Computing complex (1/4) with fragments (2,) in the basis of fragments (2,).


Scratch directory: /scratch//

  //>>>>>>>>>>>>>>>>>>>>>>>>>>>>>>>>>>>//
  //   CBS Setup: mp2/aug-cc-pv[tq]z   //
  //<<<<<<<<<<<<<<<<<<<<<<<<<<<<<<<<<<<//

    Naive listing of computations required.
             hf / aug-cc-pvqz              for  HF TOTAL ENERGY
            mp2 / aug-cc-pvtz              for  MP2 TOTAL ENERGY
            mp2 / aug-cc-pvqz              for  MP2 TOTAL ENERGY
             hf / aug-cc-pvtz              for  HF TOTAL ENERGY
             hf / aug-cc-pvqz              for  HF TOTAL ENERGY

    Enlightened listing of computations required.
            mp2 / aug-cc-pvtz              for  MP2 TOTAL ENERGY
            mp2 / aug-cc-pvqz              for  MP2 TOTAL ENERGY

    Full listing of computations to be obtained (required and bonus).
             hf / aug-cc-pvtz              for  HF TOTAL ENERGY
            mp2 / aug-cc-pvtz              for  MP2 TOTAL ENERGY
             hf / aug-cc-pvqz              for  HF TOTAL ENERGY
            mp2 / aug-cc-pvqz              for  MP2 TOTAL ENERGY

  //>>>>>>>>>>>>>>>>>>>>>>>>>>>>>>>>>>>>//
  // CBS Computation: MP2 / AUG-CC-PVTZ //
  //<<<<<<<<<<<<<<<<<<<<<<<<<<<<<<<<<<<<//


Scratch directory: /scratch//

*** tstart() called on node73.bme.utexas.edu
*** at Sat Apr 11 11:35:12 2020

   => Loading Basis Set <=

    Name: AUG-CC-PVTZ
    Role: ORBITAL
    Keyword: BASIS
    atoms 1   entry O          line   331 file /home/liuchw/anaconda3/envs/psi4env/share/psi4/basis/aug-cc-pvtz.gbs 
    atoms 2-3 entry H          line    40 file /home/liuchw/anaconda3/envs/psi4env/share/psi4/basis/aug-cc-pvtz.gbs 


         ---------------------------------------------------------
                                   SCF
               by Justin Turney, Rob Parrish, Andy Simmonett
                          and Daniel G. A. Smith
                              RHF Reference
                        6 Threads,  38146 MiB Core
         ---------------------------------------------------------

  ==> Geometry <==

    Molecular point group: c1
    Full point group: C1

    Geometry (in Angstrom), charge = 0, multiplicity = 1:

       Center              X                  Y                   Z               Mass       
    ------------   -----------------  -----------------  -----------------  -----------------
         O            3.488682751019    -0.095422298231     0.000064165845    15.994914619570
         H            3.915669751019     0.316172701769     0.754150165845     1.007825032230
         H            3.915668751019     0.316173701769    -0.754021834155     1.007825032230

  Running in c1 symmetry.

  Rotational constants: A =     11.56381  B =      0.07462  C =      0.07434 [cm^-1]
  Rotational constants: A = 346674.18271  B =   2236.93616  C =   2228.70310 [MHz]
  Nuclear repulsion =    9.176365529451367

  Charge       = 0
  Multiplicity = 1
  Electrons    = 10
  Nalpha       = 5
  Nbeta        = 5

  ==> Algorithm <==

  SCF Algorithm Type is DF.
  DIIS enabled.
  MOM disabled.
  Fractional occupation disabled.
  Guess Type is SAD.
  Energy threshold   = 1.00e-07
  Density threshold  = 1.00e-08
  Integral threshold = 0.00e+00

  ==> Primary Basis <==

  Basis Set: AUG-CC-PVTZ
    Blend: AUG-CC-PVTZ
    Number of shells: 32
    Number of basis function: 92
    Number of Cartesian functions: 105
    Spherical Harmonics?: true
    Max angular momentum: 3

   => Loading Basis Set <=

    Name: (AUG-CC-PVTZ AUX)
    Role: JKFIT
    Keyword: DF_BASIS_SCF
    atoms 1   entry O          line   286 file /home/liuchw/anaconda3/envs/psi4env/share/psi4/basis/aug-cc-pvtz-jkfit.gbs 
    atoms 2-3 entry H          line    70 file /home/liuchw/anaconda3/envs/psi4env/share/psi4/basis/aug-cc-pvtz-jkfit.gbs 

  ==> Pre-Iterations <==

   -------------------------------------------------------
    Irrep   Nso     Nmo     Nalpha   Nbeta   Ndocc  Nsocc
   -------------------------------------------------------
     A         92      92       0       0       0       0
   -------------------------------------------------------
    Total      92      92       5       5       5       0
   -------------------------------------------------------

  ==> Integral Setup <==

  DFHelper Memory: AOs need 0.015 GiB; user supplied 27.940 GiB. Using in-core AOs.

  ==> MemDFJK: Density-Fitted J/K Matrices <==

    J tasked:                   Yes
    K tasked:                   Yes
    wK tasked:                   No
    OpenMP threads:               6
    Memory [MiB]:             28610
    Algorithm:                 Core
    Schwarz Cutoff:           1E-12
    Mask sparsity (%):       0.0000
    Fitting Condition:        1E-10

   => Auxiliary Basis Set <=

  Basis Set: (AUG-CC-PVTZ AUX)
    Blend: AUG-CC-PVTZ-JKFIT
    Number of shells: 58
    Number of basis function: 196
    Number of Cartesian functions: 241
    Spherical Harmonics?: true
    Max angular momentum: 4

  Minimum eigenvalue in the overlap matrix is 3.8786127361E-04.
  Using Symmetric Orthogonalization.

  SCF Guess: Superposition of Atomic Densities via on-the-fly atomic UHF.

  ==> Iterations <==

                           Total Energy        Delta E     RMS |[F,P]|

   @DF-RHF iter SAD:   -75.47652743026741   -7.54765e+01   0.00000e+00 
   @DF-RHF iter   1:   -75.97596109994460   -4.99434e-01   5.09253e-03 DIIS
   @DF-RHF iter   2:   -76.02848328714515   -5.25222e-02   3.47320e-03 DIIS
   @DF-RHF iter   3:   -76.05996864480747   -3.14854e-02   2.35862e-04 DIIS
   @DF-RHF iter   4:   -76.06035665312258   -3.88008e-04   5.64388e-05 DIIS
   @DF-RHF iter   5:   -76.06038089381065   -2.42407e-05   1.28216e-05 DIIS
   @DF-RHF iter   6:   -76.06038287583108   -1.98202e-06   2.80246e-06 DIIS
   @DF-RHF iter   7:   -76.06038297988636   -1.04055e-07   5.02563e-07 DIIS
   @DF-RHF iter   8:   -76.06038298282725   -2.94089e-09   8.41809e-08 DIIS
   @DF-RHF iter   9:   -76.06038298289157   -6.43183e-11   2.05462e-08 DIIS
   @DF-RHF iter  10:   -76.06038298289542   -3.85114e-12   3.04531e-09 DIIS
  Energy and wave function converged.


  ==> Post-Iterations <==

    Orbital Energies [Eh]
    ---------------------

    Doubly Occupied:                                                      

       1A    -20.567958     2A     -1.353147     3A     -0.714965  
       4A     -0.586269     5A     -0.510444  

    Virtual:                                                              

       6A      0.029354     7A      0.047731     8A      0.135815  
       9A      0.158763    10A      0.175325    11A      0.183189  
      12A      0.227147    13A      0.245085    14A      0.265602  
      15A      0.299622    16A      0.309908    17A      0.365950  
      18A      0.437756    19A      0.466409    20A      0.599007  
      21A      0.659180    22A      0.707711    23A      0.723046  
      24A      0.731621    25A      0.831672    26A      0.847047  
      27A      0.892096    28A      0.912959    29A      0.917480  
      30A      0.922893    31A      0.931451    32A      0.960709  
      33A      1.021609    34A      1.043681    35A      1.082638  
      36A      1.108518    37A      1.177213    38A      1.183226  
      39A      1.260428    40A      1.510680    41A      1.531472  
      42A      1.582642    43A      1.805136    44A      1.826159  
      45A      1.984918    46A      2.120027    47A      2.263546  
      48A      2.316305    49A      2.327082    50A      2.419026  
      51A      2.421969    52A      2.443683    53A      2.480883  
      54A      2.675006    55A      2.697449    56A      2.774383  
      57A      2.811674    58A      2.885349    59A      3.656913  
      60A      3.740097    61A      4.022209    62A      4.084791  
      63A      4.159153    64A      4.253288    65A      4.282636  
      66A      4.370983    67A      4.378204    68A      4.407624  
      69A      4.522200    70A      4.729744    71A      4.851403  
      72A      5.152829    73A      5.157652    74A      5.248752  
      75A      5.330402    76A      5.529844    77A      5.660487  
      78A      6.185838    79A      6.513993    80A      6.715137  
      81A      6.912181    82A      7.137312    83A      7.260273  
      84A      7.299123    85A      7.321408    86A      7.339986  
      87A      7.360955    88A      7.539280    89A      7.897835  
      90A      7.935129    91A      8.818890    92A     15.765933  

    Final Occupation by Irrep:
              A 
    DOCC [     5 ]

  @DF-RHF Final Energy:   -76.06038298289542

   => Energetics <=

    Nuclear Repulsion Energy =              9.1763655294513669
    One-Electron Energy =                -123.0079317704333022
    Two-Electron Energy =                  37.7711832580865163
    Total Energy =                        -76.0603829828954190

Computation Completed


Properties will be evaluated at   0.000000,   0.000000,   0.000000 [a0]

Properties computed using the SCF density matrix

  Nuclear Dipole Moment: [e a0]
     X:    67.5403      Y:    -0.2476      Z:     0.0012

  Electronic Dipole Moment: [e a0]
     X:   -66.9741      Y:     0.7934      Z:    -0.0012

  Dipole Moment: [e a0]
     X:     0.5662      Y:     0.5458      Z:    -0.0000     Total:     0.7864

  Dipole Moment: [D]
     X:     1.4391      Y:     1.3872      Z:    -0.0000     Total:     1.9988


*** tstop() called on node73.bme.utexas.edu at Sat Apr 11 11:35:13 2020
Module time:
	user time   =       5.46 seconds =       0.09 minutes
	system time =       0.33 seconds =       0.01 minutes
	total time  =          1 seconds =       0.02 minutes
Total time:
	user time   =       5.46 seconds =       0.09 minutes
	system time =       0.33 seconds =       0.01 minutes
	total time  =          1 seconds =       0.02 minutes

*** tstart() called on node73.bme.utexas.edu
*** at Sat Apr 11 11:35:13 2020


  //>>>>>>>>>>>>>>>>>>>>>>>>>>>>>>>>>>>//
  //               DFMP2               //
  //<<<<<<<<<<<<<<<<<<<<<<<<<<<<<<<<<<<//

   => Loading Basis Set <=

    Name: (AUG-CC-PVTZ AUX)
    Role: RIFIT
    Keyword: DF_BASIS_MP2
    atoms 1   entry O          line   264 file /home/liuchw/anaconda3/envs/psi4env/share/psi4/basis/aug-cc-pvtz-ri.gbs 
    atoms 2-3 entry H          line    30 file /home/liuchw/anaconda3/envs/psi4env/share/psi4/basis/aug-cc-pvtz-ri.gbs 

	 --------------------------------------------------------
	                          DF-MP2                         
	      2nd-Order Density-Fitted Moller-Plesset Theory     
	              RMP2 Wavefunction,   6 Threads             
	                                                         
	        Rob Parrish, Justin Turney, Andy Simmonett,      
	           Ed Hohenstein, and C. David Sherrill          
	 --------------------------------------------------------

   => Auxiliary Basis Set <=

  Basis Set: (AUG-CC-PVTZ AUX)
    Blend: AUG-CC-PVTZ-RI
    Number of shells: 56
    Number of basis function: 198
    Number of Cartesian functions: 246
    Spherical Harmonics?: true
    Max angular momentum: 4

	 --------------------------------------------------------
	                 NBF =    92, NAUX =   198
	 --------------------------------------------------------
	   CLASS    FOCC     OCC    AOCC    AVIR     VIR    FVIR
	   PAIRS       0       5       5      87      87       0
	 --------------------------------------------------------

	-----------------------------------------------------------
	 ==================> DF-MP2 Energies <==================== 
	-----------------------------------------------------------
	 Reference Energy          =     -76.0603829828954190 [Eh]
	 Singles Energy            =      -0.0000000000000000 [Eh]
	 Same-Spin Energy          =      -0.0683894364334563 [Eh]
	 Opposite-Spin Energy      =      -0.2153098389327116 [Eh]
	 Correlation Energy        =      -0.2836992753661679 [Eh]
	 Total Energy              =     -76.3440822582615937 [Eh]
	-----------------------------------------------------------
	 ================> DF-SCS-MP2 Energies <================== 
	-----------------------------------------------------------
	 SCS Same-Spin Scale       =       0.3333333333333333 [-]
	 SCS Opposite-Spin Scale   =       1.2000000000000000 [-]
	 SCS Same-Spin Energy      =      -0.0227964788111521 [Eh]
	 SCS Opposite-Spin Energy  =      -0.2583718067192539 [Eh]
	 SCS Correlation Energy    =      -0.2811682855304060 [Eh]
	 SCS Total Energy          =     -76.3415512684258317 [Eh]
	-----------------------------------------------------------


*** tstop() called on node73.bme.utexas.edu at Sat Apr 11 11:35:14 2020
Module time:
	user time   =       2.44 seconds =       0.04 minutes
	system time =       0.17 seconds =       0.00 minutes
	total time  =          1 seconds =       0.02 minutes
Total time:
	user time   =       7.90 seconds =       0.13 minutes
	system time =       0.50 seconds =       0.01 minutes
	total time  =          2 seconds =       0.03 minutes

  //>>>>>>>>>>>>>>>>>>>>>>>>>>>>>>>>>>>>//
  // CBS Computation: MP2 / AUG-CC-PVQZ //
  //<<<<<<<<<<<<<<<<<<<<<<<<<<<<<<<<<<<<//


Scratch directory: /scratch//

*** tstart() called on node73.bme.utexas.edu
*** at Sat Apr 11 11:35:14 2020

   => Loading Basis Set <=

    Name: AUG-CC-PVQZ
    Role: ORBITAL
    Keyword: BASIS
    atoms 1   entry O          line   423 file /home/liuchw/anaconda3/envs/psi4env/share/psi4/basis/aug-cc-pvqz.gbs 
    atoms 2-3 entry H          line    40 file /home/liuchw/anaconda3/envs/psi4env/share/psi4/basis/aug-cc-pvqz.gbs 


         ---------------------------------------------------------
                                   SCF
               by Justin Turney, Rob Parrish, Andy Simmonett
                          and Daniel G. A. Smith
                              RHF Reference
                        6 Threads,  38146 MiB Core
         ---------------------------------------------------------

  ==> Geometry <==

    Molecular point group: c1
    Full point group: C1

    Geometry (in Angstrom), charge = 0, multiplicity = 1:

       Center              X                  Y                   Z               Mass       
    ------------   -----------------  -----------------  -----------------  -----------------
         O            3.488682751019    -0.095422298231     0.000064165845    15.994914619570
         H            3.915669751019     0.316172701769     0.754150165845     1.007825032230
         H            3.915668751019     0.316173701769    -0.754021834155     1.007825032230

  Running in c1 symmetry.

  Rotational constants: A =     11.56381  B =      0.07462  C =      0.07434 [cm^-1]
  Rotational constants: A = 346674.18271  B =   2236.93616  C =   2228.70310 [MHz]
  Nuclear repulsion =    9.176365529451367

  Charge       = 0
  Multiplicity = 1
  Electrons    = 10
  Nalpha       = 5
  Nbeta        = 5

  ==> Algorithm <==

  SCF Algorithm Type is DF.
  DIIS enabled.
  MOM disabled.
  Fractional occupation disabled.
  Guess Type is SAD.
  Energy threshold   = 1.00e-07
  Density threshold  = 1.00e-08
  Integral threshold = 0.00e+00

  ==> Primary Basis <==

  Basis Set: AUG-CC-PVQZ
    Blend: AUG-CC-PVQZ
    Number of shells: 48
    Number of basis function: 172
    Number of Cartesian functions: 215
    Spherical Harmonics?: true
    Max angular momentum: 4

   => Loading Basis Set <=

    Name: (AUG-CC-PVQZ AUX)
    Role: JKFIT
    Keyword: DF_BASIS_SCF
    atoms 1   entry O          line   318 file /home/liuchw/anaconda3/envs/psi4env/share/psi4/basis/aug-cc-pvqz-jkfit.gbs 
    atoms 2-3 entry H          line    70 file /home/liuchw/anaconda3/envs/psi4env/share/psi4/basis/aug-cc-pvqz-jkfit.gbs 

  ==> Pre-Iterations <==

   -------------------------------------------------------
    Irrep   Nso     Nmo     Nalpha   Nbeta   Ndocc  Nsocc
   -------------------------------------------------------
     A        172     172       0       0       0       0
   -------------------------------------------------------
    Total     172     172       5       5       5       0
   -------------------------------------------------------

  ==> Integral Setup <==

  DFHelper Memory: AOs need 0.074 GiB; user supplied 27.940 GiB. Using in-core AOs.

  ==> MemDFJK: Density-Fitted J/K Matrices <==

    J tasked:                   Yes
    K tasked:                   Yes
    wK tasked:                   No
    OpenMP threads:               6
    Memory [MiB]:             28610
    Algorithm:                 Core
    Schwarz Cutoff:           1E-12
    Mask sparsity (%):       0.0000
    Fitting Condition:        1E-10

   => Auxiliary Basis Set <=

  Basis Set: (AUG-CC-PVQZ AUX)
    Blend: AUG-CC-PVQZ-JKFIT
    Number of shells: 70
    Number of basis function: 294
    Number of Cartesian functions: 400
    Spherical Harmonics?: true
    Max angular momentum: 5

  Minimum eigenvalue in the overlap matrix is 8.7138715269E-05.
  Using Symmetric Orthogonalization.

  SCF Guess: Superposition of Atomic Densities via on-the-fly atomic UHF.

  ==> Iterations <==

                           Total Energy        Delta E     RMS |[F,P]|

   @DF-RHF iter SAD:   -75.48166910900389   -7.54817e+01   0.00000e+00 
   @DF-RHF iter   1:   -75.98104194161043   -4.99373e-01   2.72974e-03 DIIS
   @DF-RHF iter   2:   -76.03366454658141   -5.26226e-02   1.86597e-03 DIIS
   @DF-RHF iter   3:   -76.06534906327980   -3.16845e-02   1.27115e-04 DIIS
   @DF-RHF iter   4:   -76.06573914942221   -3.90086e-04   3.10944e-05 DIIS
   @DF-RHF iter   5:   -76.06576428084175   -2.51314e-05   7.04002e-06 DIIS
   @DF-RHF iter   6:   -76.06576634430330   -2.06346e-06   1.58122e-06 DIIS
   @DF-RHF iter   7:   -76.06576645973101   -1.15428e-07   2.93379e-07 DIIS
   @DF-RHF iter   8:   -76.06576646322006   -3.48905e-09   4.71789e-08 DIIS
   @DF-RHF iter   9:   -76.06576646329283   -7.27738e-11   1.12552e-08 DIIS
   @DF-RHF iter  10:   -76.06576646329671   -3.87956e-12   1.69905e-09 DIIS
  Energy and wave function converged.


  ==> Post-Iterations <==

    Orbital Energies [Eh]
    ---------------------

    Doubly Occupied:                                                      

       1A    -20.565507     2A     -1.352419     3A     -0.714931  
       4A     -0.586317     5A     -0.510576  

    Virtual:                                                              

       6A      0.026875     7A      0.043123     8A      0.114061  
       9A      0.133495    10A      0.151198    11A      0.158751  
      12A      0.184941    13A      0.197117    14A      0.209436  
      15A      0.237193    16A      0.256929    17A      0.291757  
      18A      0.357840    19A      0.390181    20A      0.469694  
      21A      0.508982    22A      0.542007    23A      0.547840  
      24A      0.556355    25A      0.614508    26A      0.632273  
      27A      0.647169    28A      0.663377    29A      0.665607  
      30A      0.684460    31A      0.706519    32A      0.719507  
      33A      0.769871    34A      0.789612    35A      0.802317  
      36A      0.802951    37A      0.843022    38A      0.853933  
      39A      0.967959    40A      1.122322    41A      1.136981  
      42A      1.209164    43A      1.332554    44A      1.441552  
      45A      1.482875    46A      1.509624    47A      1.513453  
      48A      1.526324    49A      1.554013    50A      1.589566  
      51A      1.621278    52A      1.638400    53A      1.662132  
      54A      1.664353    55A      1.688497    56A      1.702828  
      57A      1.737028    58A      1.751668    59A      1.766238  
      60A      1.775539    61A      1.844406    62A      1.864586  
      63A      1.895079    64A      1.916731    65A      1.984458  
      66A      2.007689    67A      2.033921    68A      2.040111  
      69A      2.099421    70A      2.205990    71A      2.216179  
      72A      2.314518    73A      2.435917    74A      2.627381  
      75A      2.632965    76A      2.888255    77A      2.959897  
      78A      2.995080    79A      3.041525    80A      3.056388  
      81A      3.086625    82A      3.267486    83A      3.307174  
      84A      3.310926    85A      3.489175    86A      3.588355  
      87A      3.643256    88A      3.687913    89A      3.720446  
      90A      3.782592    91A      3.923256    92A      4.078828  
      93A      4.166130    94A      4.167491    95A      4.178309  
      96A      4.178698    97A      4.231737    98A      4.329819  
      99A      4.432907   100A      4.582152   101A      4.731166  
     102A      4.745797   103A      4.778213   104A      4.780862  
     105A      4.810717   106A      4.879425   107A      4.995723  
     108A      5.235759   109A      5.313769   110A      5.523953  
     111A      5.537531   112A      5.859452   113A      5.890668  
     114A      6.074897   115A      6.236636   116A      6.823859  
     117A      6.887528   118A      6.891849   119A      6.907084  
     120A      7.732992   121A      7.778544   122A      7.785609  
     123A      7.822777   124A      7.840589   125A      7.900023  
     126A      7.925027   127A      8.022642   128A      8.165244  
     129A      8.201514   130A      8.533415   131A      8.625223  
     132A      8.655013   133A      8.692664   134A      8.790352  
     135A      8.847710   136A      8.986176   137A      9.042256  
     138A      9.225274   139A      9.674236   140A      9.907011  
     141A      9.921995   142A      9.945714   143A      9.993507  
     144A     10.326936   145A     10.451648   146A     10.677203  
     147A     11.019275   148A     11.072474   149A     11.093742  
     150A     11.269713   151A     11.309419   152A     11.413833  
     153A     11.717544   154A     11.796609   155A     11.830587  
     156A     11.990134   157A     12.205091   158A     12.207960  
     159A     12.629346   160A     12.743668   161A     12.832611  
     162A     12.909247   163A     13.174544   164A     14.005017  
     165A     14.017640   166A     14.513134   167A     14.810723  
     168A     14.910306   169A     15.261902   170A     16.843507  
     171A     17.298505   172A     45.508111  

    Final Occupation by Irrep:
              A 
    DOCC [     5 ]

  @DF-RHF Final Energy:   -76.06576646329671

   => Energetics <=

    Nuclear Repulsion Energy =              9.1763655294513669
    One-Electron Energy =                -123.0247665778577186
    Two-Electron Energy =                  37.7826345851096264
    Total Energy =                        -76.0657664632967112

Computation Completed


Properties will be evaluated at   0.000000,   0.000000,   0.000000 [a0]

Properties computed using the SCF density matrix

  Nuclear Dipole Moment: [e a0]
     X:    67.5403      Y:    -0.2476      Z:     0.0012

  Electronic Dipole Moment: [e a0]
     X:   -66.9748      Y:     0.7928      Z:    -0.0012

  Dipole Moment: [e a0]
     X:     0.5656      Y:     0.5452      Z:    -0.0000     Total:     0.7855

  Dipole Moment: [D]
     X:     1.4375      Y:     1.3857      Z:    -0.0000     Total:     1.9967


*** tstop() called on node73.bme.utexas.edu at Sat Apr 11 11:35:15 2020
Module time:
	user time   =       8.48 seconds =       0.14 minutes
	system time =       0.45 seconds =       0.01 minutes
	total time  =          1 seconds =       0.02 minutes
Total time:
	user time   =      16.42 seconds =       0.27 minutes
	system time =       0.95 seconds =       0.02 minutes
	total time  =          3 seconds =       0.05 minutes

*** tstart() called on node73.bme.utexas.edu
*** at Sat Apr 11 11:35:15 2020


  //>>>>>>>>>>>>>>>>>>>>>>>>>>>>>>>>>>>//
  //               DFMP2               //
  //<<<<<<<<<<<<<<<<<<<<<<<<<<<<<<<<<<<//

   => Loading Basis Set <=

    Name: (AUG-CC-PVQZ AUX)
    Role: RIFIT
    Keyword: DF_BASIS_MP2
    atoms 1   entry O          line   332 file /home/liuchw/anaconda3/envs/psi4env/share/psi4/basis/aug-cc-pvqz-ri.gbs 
    atoms 2-3 entry H          line    30 file /home/liuchw/anaconda3/envs/psi4env/share/psi4/basis/aug-cc-pvqz-ri.gbs 

	 --------------------------------------------------------
	                          DF-MP2                         
	      2nd-Order Density-Fitted Moller-Plesset Theory     
	              RMP2 Wavefunction,   6 Threads             
	                                                         
	        Rob Parrish, Justin Turney, Andy Simmonett,      
	           Ed Hohenstein, and C. David Sherrill          
	 --------------------------------------------------------

   => Auxiliary Basis Set <=

  Basis Set: (AUG-CC-PVQZ AUX)
    Blend: AUG-CC-PVQZ-RI
    Number of shells: 76
    Number of basis function: 328
    Number of Cartesian functions: 447
    Spherical Harmonics?: true
    Max angular momentum: 5

	 --------------------------------------------------------
	                 NBF =   172, NAUX =   328
	 --------------------------------------------------------
	   CLASS    FOCC     OCC    AOCC    AVIR     VIR    FVIR
	   PAIRS       0       5       5     167     167       0
	 --------------------------------------------------------

	-----------------------------------------------------------
	 ==================> DF-MP2 Energies <==================== 
	-----------------------------------------------------------
	 Reference Energy          =     -76.0657664632967112 [Eh]
	 Singles Energy            =      -0.0000000000000000 [Eh]
	 Same-Spin Energy          =      -0.0727171722880623 [Eh]
	 Opposite-Spin Energy      =      -0.2442472982752949 [Eh]
	 Correlation Energy        =      -0.3169644705633572 [Eh]
	 Total Energy              =     -76.3827309338600742 [Eh]
	-----------------------------------------------------------
	 ================> DF-SCS-MP2 Energies <================== 
	-----------------------------------------------------------
	 SCS Same-Spin Scale       =       0.3333333333333333 [-]
	 SCS Opposite-Spin Scale   =       1.2000000000000000 [-]
	 SCS Same-Spin Energy      =      -0.0242390574293541 [Eh]
	 SCS Opposite-Spin Energy  =      -0.2930967579303539 [Eh]
	 SCS Correlation Energy    =      -0.3173358153597080 [Eh]
	 SCS Total Energy          =     -76.3831022786564233 [Eh]
	-----------------------------------------------------------


*** tstop() called on node73.bme.utexas.edu at Sat Apr 11 11:35:16 2020
Module time:
	user time   =       3.36 seconds =       0.06 minutes
	system time =       0.19 seconds =       0.00 minutes
	total time  =          1 seconds =       0.02 minutes
Total time:
	user time   =      19.78 seconds =       0.33 minutes
	system time =       1.15 seconds =       0.02 minutes
	total time  =          4 seconds =       0.07 minutes

  //>>>>>>>>>>>>>>>>>>>>>>>>>>>>>>>>>>>//
  //  CBS Results: mp2/aug-cc-pv[tq]z  //
  //<<<<<<<<<<<<<<<<<<<<<<<<<<<<<<<<<<<//


   ==> HF <==

   HI-zeta (4) Energy:               -76.065766463297


   ==> Helgaker 2-point correlated extrapolation for method: MP2 <==

   LO-zeta (3) Energy:               -76.344082258262
   HI-zeta (4) Energy:               -76.382730933860
   Alpha (exponent) Value:             3.000000000000
   Extrapolated Energy:              -76.410934021459

   @Extrapolated MP2/(T,Q):          -76.410934021459



   ==> Helgaker 2-point correlated extrapolation for method: HF <==

   LO-zeta (3) Energy:               -76.060382982895
   HI-zeta (4) Energy:               -76.065766463297
   Alpha (exponent) Value:             3.000000000000
   Extrapolated Energy:              -76.069694948995

   @Extrapolated HF/(T,Q):           -76.069694948995


   ==> Components <==

  ---------------------------------------------------------------------------------------------------------
                          Method / Basis                      Rqd      Energy [Eh]   Variable
  ---------------------------------------------------------------------------------------------------------
                              hf / aug-cc-pvtz                  *     -76.06038298   HF TOTAL ENERGY
                             mp2 / aug-cc-pvtz                  *     -76.34408226   MP2 TOTAL ENERGY
                              hf / aug-cc-pvqz                  *     -76.06576646   HF TOTAL ENERGY
                             mp2 / aug-cc-pvqz                  *     -76.38273093   MP2 TOTAL ENERGY
  ---------------------------------------------------------------------------------------------------------

   ==> Stages <==

  ---------------------------------------------------------------------------------------------------------
      Stage               Method / Basis                       Wt      Energy [Eh]   Scheme
  ---------------------------------------------------------------------------------------------------------
        scf                   hf / aug-cc-pvqz                  1     -76.06576646   xtpl_highest_1
       corl                  mp2 / aug-cc-pv[tq]z               1     -76.41093402   corl_xtpl_helgaker_2
       corl                   hf / aug-cc-pv[tq]z              -1     -76.06969495   corl_xtpl_helgaker_2
  ---------------------------------------------------------------------------------------------------------

   ==> CBS <==

  ---------------------------------------------------------------------------------------------------------
      Stage               Method / Basis                               Energy [Eh]   Scheme
  ---------------------------------------------------------------------------------------------------------
        scf                   hf / aug-cc-pvqz                        -76.06576646   xtpl_highest_1
       corl                  mp2 / aug-cc-pv[tq]z                      -0.34123907   corl_xtpl_helgaker_2
      total                  CBS                                      -76.40700554   
  ---------------------------------------------------------------------------------------------------------
   => Loading Basis Set <=

    Name: DEF2-SVP
    Role: ORBITAL
    Keyword: BASIS
    atoms 1   entry O          line   130 file /home/liuchw/anaconda3/envs/psi4env/share/psi4/basis/def2-svp.gbs 
    atoms 2-3 entry H          line    15 file /home/liuchw/anaconda3/envs/psi4env/share/psi4/basis/def2-svp.gbs 


       N-Body: Complex Energy (fragments = (2,), basis = (2,):   -76.40700553576072)

       N-Body: Computing complex (2/4) with fragments (2,) in the basis of fragments (1, 2).


Scratch directory: /scratch//

  //>>>>>>>>>>>>>>>>>>>>>>>>>>>>>>>>>>>//
  //   CBS Setup: mp2/aug-cc-pv[tq]z   //
  //<<<<<<<<<<<<<<<<<<<<<<<<<<<<<<<<<<<//

    Naive listing of computations required.
             hf / aug-cc-pvqz              for  HF TOTAL ENERGY
            mp2 / aug-cc-pvtz              for  MP2 TOTAL ENERGY
            mp2 / aug-cc-pvqz              for  MP2 TOTAL ENERGY
             hf / aug-cc-pvtz              for  HF TOTAL ENERGY
             hf / aug-cc-pvqz              for  HF TOTAL ENERGY

    Enlightened listing of computations required.
            mp2 / aug-cc-pvtz              for  MP2 TOTAL ENERGY
            mp2 / aug-cc-pvqz              for  MP2 TOTAL ENERGY

    Full listing of computations to be obtained (required and bonus).
             hf / aug-cc-pvtz              for  HF TOTAL ENERGY
            mp2 / aug-cc-pvtz              for  MP2 TOTAL ENERGY
             hf / aug-cc-pvqz              for  HF TOTAL ENERGY
            mp2 / aug-cc-pvqz              for  MP2 TOTAL ENERGY

  //>>>>>>>>>>>>>>>>>>>>>>>>>>>>>>>>>>>>//
  // CBS Computation: MP2 / AUG-CC-PVTZ //
  //<<<<<<<<<<<<<<<<<<<<<<<<<<<<<<<<<<<<//


Scratch directory: /scratch//

*** tstart() called on node73.bme.utexas.edu
*** at Sat Apr 11 11:35:17 2020

   => Loading Basis Set <=

    Name: AUG-CC-PVTZ
    Role: ORBITAL
    Keyword: BASIS
    atoms 1           entry BR         line  4208 file /home/liuchw/anaconda3/envs/psi4env/share/psi4/basis/aug-cc-pvtz.gbs 
    atoms 2-7         entry C          line   239 file /home/liuchw/anaconda3/envs/psi4env/share/psi4/basis/aug-cc-pvtz.gbs 
    atoms 8-12, 14-15 entry H          line    40 file /home/liuchw/anaconda3/envs/psi4env/share/psi4/basis/aug-cc-pvtz.gbs 
    atoms 13          entry O          line   331 file /home/liuchw/anaconda3/envs/psi4env/share/psi4/basis/aug-cc-pvtz.gbs 


         ---------------------------------------------------------
                                   SCF
               by Justin Turney, Rob Parrish, Andy Simmonett
                          and Daniel G. A. Smith
                              RHF Reference
                        6 Threads,  38146 MiB Core
         ---------------------------------------------------------

  ==> Geometry <==

    Molecular point group: c1
    Full point group: C1

    Geometry (in Angstrom), charge = 0, multiplicity = 1:

       Center              X                  Y                   Z               Mass       
    ------------   -----------------  -----------------  -----------------  -----------------
      Gh(BR)          1.220982751019    -0.051122298231     0.000029165845    78.918337600000
      Gh(C)          -0.660447248981     0.015242701769    -0.000012834155    12.000000000000
      Gh(C)          -1.305862248981     1.249846701769    -0.000049834155    12.000000000000
      Gh(C)          -1.388955248981    -1.172257298231    -0.000006834155    12.000000000000
      Gh(C)          -2.698374248981     1.290686701769    -0.000080834155    12.000000000000
      Gh(C)          -2.780948248981    -1.117333298231    -0.000038834155    12.000000000000
      Gh(C)          -3.439194248981     0.110683701769    -0.000075834155    12.000000000000
      Gh(H)          -0.725595248981     2.161222701769    -0.000053834155     1.007825032230
      Gh(H)          -0.872303248981    -2.121139298231     0.000021165845     1.007825032230
      Gh(H)          -3.201436248981     2.248039701769    -0.000108834155     1.007825032230
      Gh(H)          -3.348415248981    -2.037956298231    -0.000033834155     1.007825032230
      Gh(H)          -4.519481248981     0.147752701769    -0.000099834155     1.007825032230
         O            3.488682751019    -0.095422298231     0.000064165845    15.994914619570
         H            3.915669751019     0.316172701769     0.754150165845     1.007825032230
         H            3.915668751019     0.316173701769    -0.754021834155     1.007825032230

  Running in c1 symmetry.

  Rotational constants: A =      0.18704  B =      0.02220  C =      0.01990 [cm^-1]
  Rotational constants: A =   5607.36008  B =    665.56590  C =    596.55837 [MHz]
  Nuclear repulsion =    9.176365529451367

  Charge       = 0
  Multiplicity = 1
  Electrons    = 10
  Nalpha       = 5
  Nbeta        = 5

  ==> Algorithm <==

  SCF Algorithm Type is DF.
  DIIS enabled.
  MOM disabled.
  Fractional occupation disabled.
  Guess Type is SAD.
  Energy threshold   = 1.00e-07
  Density threshold  = 1.00e-08
  Integral threshold = 0.00e+00

  ==> Primary Basis <==

  Basis Set: AUG-CC-PVTZ
    Blend: AUG-CC-PVTZ
    Number of shells: 180
    Number of basis function: 542
    Number of Cartesian functions: 629
    Spherical Harmonics?: true
    Max angular momentum: 3

   => Loading Basis Set <=

    Name: (AUG-CC-PVTZ AUX)
    Role: JKFIT
    Keyword: DF_BASIS_SCF
    atoms 1           entry BR         line  1492 file /home/liuchw/anaconda3/envs/psi4env/share/psi4/basis/aug-cc-pvtz-jkfit.gbs 
    atoms 2-7         entry C          line   162 file /home/liuchw/anaconda3/envs/psi4env/share/psi4/basis/aug-cc-pvtz-jkfit.gbs 
    atoms 8-12, 14-15 entry H          line    70 file /home/liuchw/anaconda3/envs/psi4env/share/psi4/basis/aug-cc-pvtz-jkfit.gbs 
    atoms 13          entry O          line   286 file /home/liuchw/anaconda3/envs/psi4env/share/psi4/basis/aug-cc-pvtz-jkfit.gbs 

  ==> Pre-Iterations <==

   -------------------------------------------------------
    Irrep   Nso     Nmo     Nalpha   Nbeta   Ndocc  Nsocc
   -------------------------------------------------------
     A        542     542       0       0       0       0
   -------------------------------------------------------
    Total     542     542       5       5       5       0
   -------------------------------------------------------

  ==> Integral Setup <==

  DFHelper Memory: AOs need 2.672 GiB; user supplied 27.940 GiB. Using in-core AOs.

  ==> MemDFJK: Density-Fitted J/K Matrices <==

    J tasked:                   Yes
    K tasked:                   Yes
    wK tasked:                   No
    OpenMP threads:               6
    Memory [MiB]:             28610
    Algorithm:                 Core
    Schwarz Cutoff:           1E-12
    Mask sparsity (%):       8.9214
    Fitting Condition:        1E-10

   => Auxiliary Basis Set <=

  Basis Set: (AUG-CC-PVTZ AUX)
    Blend: AUG-CC-PVTZ-JKFIT
    Number of shells: 366
    Number of basis function: 1298
    Number of Cartesian functions: 1631
    Spherical Harmonics?: true
    Max angular momentum: 4

  Minimum eigenvalue in the overlap matrix is 6.6117951015E-07.
  Using Symmetric Orthogonalization.

  SCF Guess: Superposition of Atomic Densities via on-the-fly atomic UHF.

  ==> Iterations <==

                           Total Energy        Delta E     RMS |[F,P]|

   @DF-RHF iter SAD:   -75.47652739624716   -7.54765e+01   0.00000e+00 
   @DF-RHF iter   1:   -75.97606599695764   -4.99539e-01   8.64503e-04 DIIS
   @DF-RHF iter   2:   -76.02860223945635   -5.25362e-02   5.89564e-04 DIIS
   @DF-RHF iter   3:   -76.06008013681101   -3.14779e-02   4.00455e-05 DIIS
   @DF-RHF iter   4:   -76.06046837306988   -3.88236e-04   9.59566e-06 DIIS
   @DF-RHF iter   5:   -76.06049270534456   -2.43323e-05   2.17933e-06 DIIS
   @DF-RHF iter   6:   -76.06049469405848   -1.98871e-06   4.76740e-07 DIIS
   @DF-RHF iter   7:   -76.06049479870121   -1.04643e-07   8.57112e-08 DIIS
   @DF-RHF iter   8:   -76.06049480168244   -2.98122e-09   1.43943e-08 DIIS
   @DF-RHF iter   9:   -76.06049480174804   -6.55973e-11   3.50637e-09 DIIS
  Energy and wave function converged.


  ==> Post-Iterations <==

    Orbital Energies [Eh]
    ---------------------

    Doubly Occupied:                                                      

       1A    -20.567730     2A     -1.353013     3A     -0.714834  
       4A     -0.586163     5A     -0.510410  

    Virtual:                                                              

       6A      0.019661     7A      0.026654     8A      0.034593  
       9A      0.043279    10A      0.046543    11A      0.051584  
      12A      0.059892    13A      0.073191    14A      0.080601  
      15A      0.089956    16A      0.097097    17A      0.100539  
      18A      0.101633    19A      0.104354    20A      0.110003  
      21A      0.113492    22A      0.129670    23A      0.135395  
      24A      0.136731    25A      0.139760    26A      0.140456  
      27A      0.142333    28A      0.151291    29A      0.152156  
      30A      0.162570    31A      0.167383    32A      0.169689  
      33A      0.180189    34A      0.185374    35A      0.190803  
      36A      0.198262    37A      0.202417    38A      0.219235  
      39A      0.220905    40A      0.228564    41A      0.243305  
      42A      0.243493    43A      0.254667    44A      0.259362  
      45A      0.261613    46A      0.268989    47A      0.279075  
      48A      0.289554    49A      0.292262    50A      0.306772  
      51A      0.310190    52A      0.310588    53A      0.317064  
      54A      0.317200    55A      0.327190    56A      0.328992  
      57A      0.347209    58A      0.353991    59A      0.356995  
      60A      0.359152    61A      0.366121    62A      0.369274  
      63A      0.370778    64A      0.371367    65A      0.373607  
      66A      0.376672    67A      0.382989    68A      0.394728  
      69A      0.403859    70A      0.407842    71A      0.410327  
      72A      0.410798    73A      0.413276    74A      0.426278  
      75A      0.426914    76A      0.436084    77A      0.438896  
      78A      0.448760    79A      0.458349    80A      0.459019  
      81A      0.469540    82A      0.473513    83A      0.474355  
      84A      0.496519    85A      0.504065    86A      0.520542  
      87A      0.525811    88A      0.530841    89A      0.535138  
      90A      0.537531    91A      0.537937    92A      0.552469  
      93A      0.578604    94A      0.594487    95A      0.595281  
      96A      0.603616    97A      0.607683    98A      0.608464  
      99A      0.620814   100A      0.628291   101A      0.628859  
     102A      0.646983   103A      0.655017   104A      0.668476  
     105A      0.673260   106A      0.681819   107A      0.682495  
     108A      0.685699   109A      0.688459   110A      0.692161  
     111A      0.696259   112A      0.711396   113A      0.713744  
     114A      0.726009   115A      0.733667   116A      0.739711  
     117A      0.743459   118A      0.744721   119A      0.746060  
     120A      0.764548   121A      0.767226   122A      0.771101  
     123A      0.772428   124A      0.787739   125A      0.802835  
     126A      0.805662   127A      0.821879   128A      0.824917  
     129A      0.829025   130A      0.857606   131A      0.870832  
     132A      0.871846   133A      0.896319   134A      0.899265  
     135A      0.910226   136A      0.918734   137A      0.927389  
     138A      0.934914   139A      0.937770   140A      0.956536  
     141A      0.963387   142A      0.963718   143A      0.977355  
     144A      1.009378   145A      1.012717   146A      1.021274  
     147A      1.031817   148A      1.032806   149A      1.039358  
     150A      1.044886   151A      1.053186   152A      1.057724  
     153A      1.062941   154A      1.065913   155A      1.068789  
     156A      1.070552   157A      1.080242   158A      1.089191  
     159A      1.095044   160A      1.097468   161A      1.113985  
     162A      1.116651   163A      1.119729   164A      1.125533  
     165A      1.135388   166A      1.147007   167A      1.147868  
     168A      1.156499   169A      1.164638   170A      1.177868  
     171A      1.184898   172A      1.192591   173A      1.205343  
     174A      1.206433   175A      1.207717   176A      1.209217  
     177A      1.227533   178A      1.237702   179A      1.243542  
     180A      1.255024   181A      1.256385   182A      1.268248  
     183A      1.271894   184A      1.273123   185A      1.296262  
     186A      1.303642   187A      1.309166   188A      1.310755  
     189A      1.311109   190A      1.316112   191A      1.317051  
     192A      1.317102   193A      1.321150   194A      1.330289  
     195A      1.350377   196A      1.362420   197A      1.367621  
     198A      1.375697   199A      1.386517   200A      1.403136  
     201A      1.420368   202A      1.425842   203A      1.429408  
     204A      1.441101   205A      1.441998   206A      1.462702  
     207A      1.477810   208A      1.481705   209A      1.497761  
     210A      1.498055   211A      1.511653   212A      1.531116  
     213A      1.540512   214A      1.543360   215A      1.553412  
     216A      1.556464   217A      1.562318   218A      1.572126  
     219A      1.573048   220A      1.583436   221A      1.589241  
     222A      1.597157   223A      1.601852   224A      1.617483  
     225A      1.629288   226A      1.645419   227A      1.653490  
     228A      1.661855   229A      1.671687   230A      1.678144  
     231A      1.681722   232A      1.685098   233A      1.708040  
     234A      1.733095   235A      1.735808   236A      1.751848  
     237A      1.761128   238A      1.828919   239A      1.856952  
     240A      1.876228   241A      1.877227   242A      1.885783  
     243A      1.892157   244A      1.894333   245A      1.919386  
     246A      1.922133   247A      1.933806   248A      1.934156  
     249A      1.983587   250A      2.009319   251A      2.013881  
     252A      2.022634   253A      2.053920   254A      2.088934  
     255A      2.096822   256A      2.132737   257A      2.136894  
     258A      2.148467   259A      2.165887   260A      2.170039  
     261A      2.176073   262A      2.189626   263A      2.195269  
     264A      2.205143   265A      2.220130   266A      2.227069  
     267A      2.229026   268A      2.245761   269A      2.254971  
     270A      2.286007   271A      2.292264   272A      2.297558  
     273A      2.339639   274A      2.340128   275A      2.342242  
     276A      2.352146   277A      2.354147   278A      2.364037  
     279A      2.365616   280A      2.372899   281A      2.376030  
     282A      2.378010   283A      2.403175   284A      2.451311  
     285A      2.451611   286A      2.471181   287A      2.489746  
     288A      2.506127   289A      2.519589   290A      2.534185  
     291A      2.537544   292A      2.537821   293A      2.549386  
     294A      2.553065   295A      2.569583   296A      2.579088  
     297A      2.589966   298A      2.592846   299A      2.628027  
     300A      2.678102   301A      2.697707   302A      2.701720  
     303A      2.714668   304A      2.746676   305A      2.769174  
     306A      2.773691   307A      2.777738   308A      2.809356  
     309A      2.814269   310A      2.848847   311A      2.872317  
     312A      2.884706   313A      2.896411   314A      2.918889  
     315A      2.928128   316A      2.938611   317A      2.945560  
     318A      2.981810   319A      3.079003   320A      3.124060  
     321A      3.151330   322A      3.190801   323A      3.223657  
     324A      3.255663   325A      3.260921   326A      3.292395  
     327A      3.316814   328A      3.383555   329A      3.383709  
     330A      3.414875   331A      3.452165   332A      3.456304  
     333A      3.507283   334A      3.519563   335A      3.525531  
     336A      3.557082   337A      3.626019   338A      3.680540  
     339A      3.696709   340A      3.717428   341A      3.733612  
     342A      3.777149   343A      3.811784   344A      3.830181  
     345A      3.856137   346A      3.878284   347A      3.891320  
     348A      3.966045   349A      3.981345   350A      4.013655  
     351A      4.017998   352A      4.024141   353A      4.056425  
     354A      4.060577   355A      4.066400   356A      4.067702  
     357A      4.085028   358A      4.107310   359A      4.114272  
     360A      4.120224   361A      4.155104   362A      4.176386  
     363A      4.183949   364A      4.201453   365A      4.219622  
     366A      4.229385   367A      4.240102   368A      4.267146  
     369A      4.267793   370A      4.278218   371A      4.296857  
     372A      4.309808   373A      4.313600   374A      4.328472  
     375A      4.341021   376A      4.347879   377A      4.360042  
     378A      4.373637   379A      4.404224   380A      4.417761  
     381A      4.465477   382A      4.513179   383A      4.514477  
     384A      4.519023   385A      4.520770   386A      4.537046  
     387A      4.543479   388A      4.566558   389A      4.573697  
     390A      4.578273   391A      4.592250   392A      4.600705  
     393A      4.625551   394A      4.641285   395A      4.651343  
     396A      4.658231   397A      4.696155   398A      4.715705  
     399A      4.723891   400A      4.767836   401A      4.802287  
     402A      4.812052   403A      4.829500   404A      4.869549  
     405A      4.882794   406A      4.885202   407A      4.924750  
     408A      4.937544   409A      4.972591   410A      4.976036  
     411A      5.015934   412A      5.033625   413A      5.064264  
     414A      5.068297   415A      5.073969   416A      5.131524  
     417A      5.135492   418A      5.158573   419A      5.170178  
     420A      5.179809   421A      5.192401   422A      5.200618  
     423A      5.217656   424A      5.226089   425A      5.237639  
     426A      5.249690   427A      5.267265   428A      5.303416  
     429A      5.314859   430A      5.329950   431A      5.371284  
     432A      5.388142   433A      5.421539   434A      5.424384  
     435A      5.482978   436A      5.495009   437A      5.501719  
     438A      5.509433   439A      5.556988   440A      5.558109  
     441A      5.609648   442A      5.611914   443A      5.634979  
     444A      5.643453   445A      5.654547   446A      5.705778  
     447A      5.730500   448A      5.731617   449A      5.738092  
     450A      5.778291   451A      5.789347   452A      5.795361  
     453A      5.807781   454A      5.822733   455A      5.898632  
     456A      5.943297   457A      5.953458   458A      6.001439  
     459A      6.032471   460A      6.059799   461A      6.065096  
     462A      6.142144   463A      6.165790   464A      6.181167  
     465A      6.204617   466A      6.280642   467A      6.322925  
     468A      6.358550   469A      6.398681   470A      6.444952  
     471A      6.461690   472A      6.562149   473A      6.621042  
     474A      6.679454   475A      6.779882   476A      6.876295  
     477A      6.892877   478A      6.912207   479A      6.980275  
     480A      7.013130   481A      7.071556   482A      7.072428  
     483A      7.098661   484A      7.116266   485A      7.149917  
     486A      7.219439   487A      7.257404   488A      7.318433  
     489A      7.366346   490A      7.391465   491A      7.413922  
     492A      7.431323   493A      7.440441   494A      7.452212  
     495A      7.530910   496A      7.569754   497A      7.623605  
     498A      7.697894   499A      7.739860   500A      7.882485  
     501A      7.942300   502A      7.967121   503A      8.026758  
     504A      8.056226   505A      8.126354   506A      8.215137  
     507A      8.306126   508A      8.357324   509A      8.694369  
     510A      8.899605   511A      8.946402   512A      9.276080  
     513A      9.318238   514A      9.380420   515A      9.975169  
     516A     10.064950   517A     10.872309   518A     11.069467  
     519A     11.101124   520A     11.291196   521A     11.385481  
     522A     12.526090   523A     13.836067   524A     14.219984  
     525A     14.922624   526A     16.388358   527A     26.260369  
     528A     26.322203   529A     26.434738   530A     26.615236  
     531A     27.069413   532A     47.384469   533A     49.449173  
     534A     49.655541   535A     50.976504   536A     54.817682  
     537A     56.025977   538A     56.330020   539A    138.966223  
     540A    139.617154   541A    140.867910   542A    714.476178  

    Final Occupation by Irrep:
              A 
    DOCC [     5 ]

  @DF-RHF Final Energy:   -76.06049480174804

   => Energetics <=

    Nuclear Repulsion Energy =              9.1763655294513669
    One-Electron Energy =                -123.0094184082954456
    Two-Electron Energy =                  37.7725580770960363
    Total Energy =                        -76.0604948017480496

Computation Completed


Properties will be evaluated at   0.000000,   0.000000,   0.000000 [a0]

Properties computed using the SCF density matrix

  Nuclear Dipole Moment: [e a0]
     X:    67.5403      Y:    -0.2476      Z:     0.0012

  Electronic Dipole Moment: [e a0]
     X:   -66.9749      Y:     0.7926      Z:    -0.0012

  Dipole Moment: [e a0]
     X:     0.5654      Y:     0.5449      Z:     0.0000     Total:     0.7853

  Dipole Moment: [D]
     X:     1.4372      Y:     1.3851      Z:     0.0000     Total:     1.9960


*** tstop() called on node73.bme.utexas.edu at Sat Apr 11 11:35:34 2020
Module time:
	user time   =      74.19 seconds =       1.24 minutes
	system time =       1.92 seconds =       0.03 minutes
	total time  =         17 seconds =       0.28 minutes
Total time:
	user time   =      96.02 seconds =       1.60 minutes
	system time =       3.14 seconds =       0.05 minutes
	total time  =         22 seconds =       0.37 minutes

*** tstart() called on node73.bme.utexas.edu
*** at Sat Apr 11 11:35:34 2020


  //>>>>>>>>>>>>>>>>>>>>>>>>>>>>>>>>>>>//
  //               DFMP2               //
  //<<<<<<<<<<<<<<<<<<<<<<<<<<<<<<<<<<<//

   => Loading Basis Set <=

    Name: (AUG-CC-PVTZ AUX)
    Role: RIFIT
    Keyword: DF_BASIS_MP2
    atoms 1           entry BR         line  1248 file /home/liuchw/anaconda3/envs/psi4env/share/psi4/basis/aug-cc-pvtz-ri.gbs 
    atoms 2-7         entry C          line   148 file /home/liuchw/anaconda3/envs/psi4env/share/psi4/basis/aug-cc-pvtz-ri.gbs 
    atoms 8-12, 14-15 entry H          line    30 file /home/liuchw/anaconda3/envs/psi4env/share/psi4/basis/aug-cc-pvtz-ri.gbs 
    atoms 13          entry O          line   264 file /home/liuchw/anaconda3/envs/psi4env/share/psi4/basis/aug-cc-pvtz-ri.gbs 

	 --------------------------------------------------------
	                          DF-MP2                         
	      2nd-Order Density-Fitted Moller-Plesset Theory     
	              RMP2 Wavefunction,   6 Threads             
	                                                         
	        Rob Parrish, Justin Turney, Andy Simmonett,      
	           Ed Hohenstein, and C. David Sherrill          
	 --------------------------------------------------------

   => Auxiliary Basis Set <=

  Basis Set: (AUG-CC-PVTZ AUX)
    Blend: AUG-CC-PVTZ-RI
    Number of shells: 337
    Number of basis function: 1255
    Number of Cartesian functions: 1598
    Spherical Harmonics?: true
    Max angular momentum: 5

	 --------------------------------------------------------
	                 NBF =   542, NAUX =  1255
	 --------------------------------------------------------
	   CLASS    FOCC     OCC    AOCC    AVIR     VIR    FVIR
	   PAIRS       0       5       5     537     537       0
	 --------------------------------------------------------

	-----------------------------------------------------------
	 ==================> DF-MP2 Energies <==================== 
	-----------------------------------------------------------
	 Reference Energy          =     -76.0604948017480353 [Eh]
	 Singles Energy            =      -0.0000000000000000 [Eh]
	 Same-Spin Energy          =      -0.0684720298918805 [Eh]
	 Opposite-Spin Energy      =      -0.2160667908613055 [Eh]
	 Correlation Energy        =      -0.2845388207531860 [Eh]
	 Total Energy              =     -76.3450336225012194 [Eh]
	-----------------------------------------------------------
	 ================> DF-SCS-MP2 Energies <================== 
	-----------------------------------------------------------
	 SCS Same-Spin Scale       =       0.3333333333333333 [-]
	 SCS Opposite-Spin Scale   =       1.2000000000000000 [-]
	 SCS Same-Spin Energy      =      -0.0228240099639602 [Eh]
	 SCS Opposite-Spin Energy  =      -0.2592801490335666 [Eh]
	 SCS Correlation Energy    =      -0.2821041589975268 [Eh]
	 SCS Total Energy          =     -76.3425989607455620 [Eh]
	-----------------------------------------------------------


*** tstop() called on node73.bme.utexas.edu at Sat Apr 11 11:35:41 2020
Module time:
	user time   =      32.38 seconds =       0.54 minutes
	system time =       0.90 seconds =       0.02 minutes
	total time  =          7 seconds =       0.12 minutes
Total time:
	user time   =     128.41 seconds =       2.14 minutes
	system time =       4.04 seconds =       0.07 minutes
	total time  =         29 seconds =       0.48 minutes

  //>>>>>>>>>>>>>>>>>>>>>>>>>>>>>>>>>>>>//
  // CBS Computation: MP2 / AUG-CC-PVQZ //
  //<<<<<<<<<<<<<<<<<<<<<<<<<<<<<<<<<<<<//


Scratch directory: /scratch//

*** tstart() called on node73.bme.utexas.edu
*** at Sat Apr 11 11:35:41 2020

   => Loading Basis Set <=

    Name: AUG-CC-PVQZ
    Role: ORBITAL
    Keyword: BASIS
    atoms 1           entry BR         line  5448 file /home/liuchw/anaconda3/envs/psi4env/share/psi4/basis/aug-cc-pvqz.gbs 
    atoms 2-7         entry C          line   303 file /home/liuchw/anaconda3/envs/psi4env/share/psi4/basis/aug-cc-pvqz.gbs 
    atoms 8-12, 14-15 entry H          line    40 file /home/liuchw/anaconda3/envs/psi4env/share/psi4/basis/aug-cc-pvqz.gbs 
    atoms 13          entry O          line   423 file /home/liuchw/anaconda3/envs/psi4env/share/psi4/basis/aug-cc-pvqz.gbs 


         ---------------------------------------------------------
                                   SCF
               by Justin Turney, Rob Parrish, Andy Simmonett
                          and Daniel G. A. Smith
                              RHF Reference
                        6 Threads,  38146 MiB Core
         ---------------------------------------------------------

  ==> Geometry <==

    Molecular point group: c1
    Full point group: C1

    Geometry (in Angstrom), charge = 0, multiplicity = 1:

       Center              X                  Y                   Z               Mass       
    ------------   -----------------  -----------------  -----------------  -----------------
      Gh(BR)          1.220982751019    -0.051122298231     0.000029165845    78.918337600000
      Gh(C)          -0.660447248981     0.015242701769    -0.000012834155    12.000000000000
      Gh(C)          -1.305862248981     1.249846701769    -0.000049834155    12.000000000000
      Gh(C)          -1.388955248981    -1.172257298231    -0.000006834155    12.000000000000
      Gh(C)          -2.698374248981     1.290686701769    -0.000080834155    12.000000000000
      Gh(C)          -2.780948248981    -1.117333298231    -0.000038834155    12.000000000000
      Gh(C)          -3.439194248981     0.110683701769    -0.000075834155    12.000000000000
      Gh(H)          -0.725595248981     2.161222701769    -0.000053834155     1.007825032230
      Gh(H)          -0.872303248981    -2.121139298231     0.000021165845     1.007825032230
      Gh(H)          -3.201436248981     2.248039701769    -0.000108834155     1.007825032230
      Gh(H)          -3.348415248981    -2.037956298231    -0.000033834155     1.007825032230
      Gh(H)          -4.519481248981     0.147752701769    -0.000099834155     1.007825032230
         O            3.488682751019    -0.095422298231     0.000064165845    15.994914619570
         H            3.915669751019     0.316172701769     0.754150165845     1.007825032230
         H            3.915668751019     0.316173701769    -0.754021834155     1.007825032230

  Running in c1 symmetry.

  Rotational constants: A =      0.18704  B =      0.02220  C =      0.01990 [cm^-1]
  Rotational constants: A =   5607.36008  B =    665.56590  C =    596.55837 [MHz]
  Nuclear repulsion =    9.176365529451367

  Charge       = 0
  Multiplicity = 1
  Electrons    = 10
  Nalpha       = 5
  Nbeta        = 5

  ==> Algorithm <==

  SCF Algorithm Type is DF.
  DIIS enabled.
  MOM disabled.
  Fractional occupation disabled.
  Guess Type is SAD.
  Energy threshold   = 1.00e-07
  Density threshold  = 1.00e-08
  Integral threshold = 0.00e+00

  ==> Primary Basis <==

  Basis Set: AUG-CC-PVQZ
    Blend: AUG-CC-PVQZ
    Number of shells: 263
    Number of basis function: 975
    Number of Cartesian functions: 1239
    Spherical Harmonics?: true
    Max angular momentum: 4

   => Loading Basis Set <=

    Name: (AUG-CC-PVQZ AUX)
    Role: JKFIT
    Keyword: DF_BASIS_SCF
    atoms 1           entry BR         line  1612 file /home/liuchw/anaconda3/envs/psi4env/share/psi4/basis/aug-cc-pvqz-jkfit.gbs 
    atoms 2-7         entry C          line   178 file /home/liuchw/anaconda3/envs/psi4env/share/psi4/basis/aug-cc-pvqz-jkfit.gbs 
    atoms 8-12, 14-15 entry H          line    70 file /home/liuchw/anaconda3/envs/psi4env/share/psi4/basis/aug-cc-pvqz-jkfit.gbs 
    atoms 13          entry O          line   318 file /home/liuchw/anaconda3/envs/psi4env/share/psi4/basis/aug-cc-pvqz-jkfit.gbs 

  ==> Pre-Iterations <==

   -------------------------------------------------------
    Irrep   Nso     Nmo     Nalpha   Nbeta   Ndocc  Nsocc
   -------------------------------------------------------
     A        975     975       0       0       0       0
   -------------------------------------------------------
    Total     975     975       5       5       5       0
   -------------------------------------------------------

  ==> Integral Setup <==

  DFHelper Memory: AOs need 11.244 GiB; user supplied 27.940 GiB. Using in-core AOs.

  ==> MemDFJK: Density-Fitted J/K Matrices <==

    J tasked:                   Yes
    K tasked:                   Yes
    wK tasked:                   No
    OpenMP threads:               6
    Memory [MiB]:             28610
    Algorithm:                 Core
    Schwarz Cutoff:           1E-12
    Mask sparsity (%):      13.9712
    Fitting Condition:        1E-10

   => Auxiliary Basis Set <=

  Basis Set: (AUG-CC-PVQZ AUX)
    Blend: AUG-CC-PVQZ-JKFIT
    Number of shells: 424
    Number of basis function: 1796
    Number of Cartesian functions: 2464
    Spherical Harmonics?: true
    Max angular momentum: 5

  Minimum eigenvalue in the overlap matrix is 2.4019655986E-07.
  Using Symmetric Orthogonalization.

  SCF Guess: Superposition of Atomic Densities via on-the-fly atomic UHF.

  ==> Iterations <==

                           Total Energy        Delta E     RMS |[F,P]|

   @DF-RHF iter SAD:   -75.48166907445750   -7.54817e+01   0.00000e+00 
   @DF-RHF iter   1:   -75.98108360460303   -4.99415e-01   4.81567e-04 DIIS
   @DF-RHF iter   2:   -76.03371100216248   -5.26274e-02   3.29188e-04 DIIS
   @DF-RHF iter   3:   -76.06539080742266   -3.16798e-02   2.24277e-05 DIIS
   @DF-RHF iter   4:   -76.06578099720664   -3.90190e-04   5.48594e-06 DIIS
   @DF-RHF iter   5:   -76.06580613511554   -2.51379e-05   1.24271e-06 DIIS
   @DF-RHF iter   6:   -76.06580820117603   -2.06606e-06   2.79149e-07 DIIS
   @DF-RHF iter   7:   -76.06580831683321   -1.15657e-07   5.18616e-08 DIIS
   @DF-RHF iter   8:   -76.06580832034381   -3.51059e-09   8.35445e-09 DIIS
  Energy and wave function converged.


  ==> Post-Iterations <==

    Orbital Energies [Eh]
    ---------------------

    Doubly Occupied:                                                      

       1A    -20.565464     2A     -1.352372     3A     -0.714886  
       4A     -0.586283     5A     -0.510561  

    Virtual:                                                              

       6A      0.017565     7A      0.024032     8A      0.030561  
       9A      0.038811    10A      0.041726    11A      0.045485  
      12A      0.054158    13A      0.061994    14A      0.071777  
      15A      0.079905    16A      0.084613    17A      0.085338  
      18A      0.086290    19A      0.089564    20A      0.094941  
      21A      0.097450    22A      0.113900    23A      0.114036  
      24A      0.119156    25A      0.119246    26A      0.124303  
      27A      0.127342    28A      0.129474    29A      0.131270  
      30A      0.137862    31A      0.145519    32A      0.146652  
      33A      0.159343    34A      0.160063    35A      0.164193  
      36A      0.170450    37A      0.174115    38A      0.189527  
      39A      0.192636    40A      0.195355    41A      0.198458  
      42A      0.211531    43A      0.212328    44A      0.215285  
      45A      0.218880    46A      0.222039    47A      0.233871  
      48A      0.234660    49A      0.243451    50A      0.245113  
      51A      0.251982    52A      0.263956    53A      0.268676  
      54A      0.274684    55A      0.275234    56A      0.283213  
      57A      0.284094    58A      0.288606    59A      0.295819  
      60A      0.298219    61A      0.302909    62A      0.305181  
      63A      0.308998    64A      0.310652    65A      0.315823  
      66A      0.316021    67A      0.322075    68A      0.326150  
      69A      0.331031    70A      0.335103    71A      0.339061  
      72A      0.339149    73A      0.342908    74A      0.349774  
      75A      0.358569    76A      0.359842    77A      0.369199  
      78A      0.371340    79A      0.378972    80A      0.382840  
      81A      0.389644    82A      0.392782    83A      0.397906  
      84A      0.403046    85A      0.410670    86A      0.415779  
      87A      0.423899    88A      0.425019    89A      0.432083  
      90A      0.432848    91A      0.439946    92A      0.449655  
      93A      0.451630    94A      0.465122    95A      0.473471  
      96A      0.475041    97A      0.483443    98A      0.487466  
      99A      0.490387   100A      0.494730   101A      0.502550  
     102A      0.507539   103A      0.509679   104A      0.516372  
     105A      0.522122   106A      0.528556   107A      0.529510  
     108A      0.539358   109A      0.542016   110A      0.543906  
     111A      0.549719   112A      0.549815   113A      0.558237  
     114A      0.564144   115A      0.568971   116A      0.572767  
     117A      0.573603   118A      0.575279   119A      0.580780  
     120A      0.585015   121A      0.586238   122A      0.610490  
     123A      0.615695   124A      0.620492   125A      0.626223  
     126A      0.632649   127A      0.643707   128A      0.644620  
     129A      0.653749   130A      0.655572   131A      0.671532  
     132A      0.676440   133A      0.686340   134A      0.688757  
     135A      0.693836   136A      0.699746   137A      0.712427  
     138A      0.714129   139A      0.718190   140A      0.731066  
     141A      0.744975   142A      0.747990   143A      0.749626  
     144A      0.764279   145A      0.764315   146A      0.771372  
     147A      0.771448   148A      0.779290   149A      0.781665  
     150A      0.782573   151A      0.791023   152A      0.794602  
     153A      0.804630   154A      0.806278   155A      0.806282  
     156A      0.811350   157A      0.820901   158A      0.826042  
     159A      0.826656   160A      0.833377   161A      0.839099  
     162A      0.842410   163A      0.846619   164A      0.850129  
     165A      0.861175   166A      0.866863   167A      0.871781  
     168A      0.881949   169A      0.890746   170A      0.894087  
     171A      0.900853   172A      0.906424   173A      0.906673  
     174A      0.926638   175A      0.927951   176A      0.931310  
     177A      0.940865   178A      0.941857   179A      0.950383  
     180A      0.950845   181A      0.957985   182A      0.966743  
     183A      0.967500   184A      0.970187   185A      0.976552  
     186A      0.979288   187A      0.985921   188A      0.994108  
     189A      1.005020   190A      1.008050   191A      1.012719  
     192A      1.016923   193A      1.031296   194A      1.038243  
     195A      1.041882   196A      1.053591   197A      1.055509  
     198A      1.055656   199A      1.059843   200A      1.063803  
     201A      1.063939   202A      1.070780   203A      1.076124  
     204A      1.078646   205A      1.083733   206A      1.092079  
     207A      1.104704   208A      1.105143   209A      1.106434  
     210A      1.115595   211A      1.116787   212A      1.120357  
     213A      1.141107   214A      1.151475   215A      1.153345  
     216A      1.153858   217A      1.177358   218A      1.194393  
     219A      1.195005   220A      1.207850   221A      1.214021  
     222A      1.219317   223A      1.237113   224A      1.245855  
     225A      1.248135   226A      1.250417   227A      1.256001  
     228A      1.258538   229A      1.273172   230A      1.304149  
     231A      1.309548   232A      1.311217   233A      1.322813  
     234A      1.335732   235A      1.349845   236A      1.353181  
     237A      1.357180   238A      1.364767   239A      1.368543  
     240A      1.378744   241A      1.382079   242A      1.394090  
     243A      1.406307   244A      1.428197   245A      1.442996  
     246A      1.444595   247A      1.461030   248A      1.467731  
     249A      1.491059   250A      1.508422   251A      1.510819  
     252A      1.511720   253A      1.517273   254A      1.530063  
     255A      1.537828   256A      1.538472   257A      1.545967  
     258A      1.547989   259A      1.559893   260A      1.564773  
     261A      1.581800   262A      1.590416   263A      1.594919  
     264A      1.600575   265A      1.601367   266A      1.601777  
     267A      1.603156   268A      1.618196   269A      1.622053  
     270A      1.632597   271A      1.637372   272A      1.647298  
     273A      1.651625   274A      1.657243   275A      1.672550  
     276A      1.676063   277A      1.684776   278A      1.690882  
     279A      1.699701   280A      1.705417   281A      1.713785  
     282A      1.716516   283A      1.719423   284A      1.743483  
     285A      1.754624   286A      1.761226   287A      1.762227  
     288A      1.768906   289A      1.770952   290A      1.782758  
     291A      1.793522   292A      1.799663   293A      1.799863  
     294A      1.804542   295A      1.808078   296A      1.815059  
     297A      1.823767   298A      1.824687   299A      1.830299  
     300A      1.833943   301A      1.836481   302A      1.838881  
     303A      1.859737   304A      1.862764   305A      1.870070  
     306A      1.877140   307A      1.883958   308A      1.889243  
     309A      1.898873   310A      1.899749   311A      1.909181  
     312A      1.912933   313A      1.918706   314A      1.921235  
     315A      1.923174   316A      1.940095   317A      1.944941  
     318A      1.945983   319A      1.960445   320A      1.960643  
     321A      1.968816   322A      1.975255   323A      1.977544  
     324A      1.983069   325A      1.999926   326A      2.005268  
     327A      2.008697   328A      2.010853   329A      2.019433  
     330A      2.028368   331A      2.034213   332A      2.044877  
     333A      2.053281   334A      2.058042   335A      2.062355  
     336A      2.066785   337A      2.075913   338A      2.077197  
     339A      2.088438   340A      2.096716   341A      2.107521  
     342A      2.114856   343A      2.120494   344A      2.120712  
     345A      2.129525   346A      2.142487   347A      2.153799  
     348A      2.172088   349A      2.172682   350A      2.177182  
     351A      2.183152   352A      2.189144   353A      2.192565  
     354A      2.203003   355A      2.207250   356A      2.221499  
     357A      2.227525   358A      2.236776   359A      2.251120  
     360A      2.257865   361A      2.259975   362A      2.261871  
     363A      2.277956   364A      2.280409   365A      2.288184  
     366A      2.297677   367A      2.302771   368A      2.313347  
     369A      2.314770   370A      2.329787   371A      2.345827  
     372A      2.356790   373A      2.361811   374A      2.371110  
     375A      2.376643   376A      2.381783   377A      2.390972  
     378A      2.398396   379A      2.407699   380A      2.413389  
     381A      2.428261   382A      2.435789   383A      2.448298  
     384A      2.456984   385A      2.466830   386A      2.494171  
     387A      2.500137   388A      2.502825   389A      2.524720  
     390A      2.529895   391A      2.530461   392A      2.533148  
     393A      2.547751   394A      2.562769   395A      2.565463  
     396A      2.574716   397A      2.581999   398A      2.593331  
     399A      2.596671   400A      2.611841   401A      2.623614  
     402A      2.626087   403A      2.638145   404A      2.656630  
     405A      2.658475   406A      2.664398   407A      2.689041  
     408A      2.689456   409A      2.698116   410A      2.708545  
     411A      2.731071   412A      2.736850   413A      2.736877  
     414A      2.742869   415A      2.748495   416A      2.753423  
     417A      2.759219   418A      2.766377   419A      2.785330  
     420A      2.790803   421A      2.825167   422A      2.826100  
     423A      2.829418   424A      2.844748   425A      2.871270  
     426A      2.891580   427A      2.907071   428A      2.916875  
     429A      2.924333   430A      2.938803   431A      2.952498  
     432A      2.960323   433A      2.969259   434A      2.975302  
     435A      2.980269   436A      2.990327   437A      2.994800  
     438A      3.008361   439A      3.023503   440A      3.027251  
     441A      3.031096   442A      3.040689   443A      3.059618  
     444A      3.074704   445A      3.083785   446A      3.094373  
     447A      3.095336   448A      3.102018   449A      3.104326  
     450A      3.114880   451A      3.115613   452A      3.123021  
     453A      3.128952   454A      3.131890   455A      3.140458  
     456A      3.161313   457A      3.168493   458A      3.186013  
     459A      3.200220   460A      3.226827   461A      3.243591  
     462A      3.248468   463A      3.252866   464A      3.260488  
     465A      3.264972   466A      3.275930   467A      3.283513  
     468A      3.286257   469A      3.289644   470A      3.296326  
     471A      3.303457   472A      3.305301   473A      3.308133  
     474A      3.334143   475A      3.337623   476A      3.352619  
     477A      3.358016   478A      3.373093   479A      3.382240  
     480A      3.404545   481A      3.422888   482A      3.423972  
     483A      3.435545   484A      3.449312   485A      3.452965  
     486A      3.474207   487A      3.485996   488A      3.506193  
     489A      3.525098   490A      3.534475   491A      3.541349  
     492A      3.549700   493A      3.571931   494A      3.574203  
     495A      3.608593   496A      3.608628   497A      3.621408  
     498A      3.644955   499A      3.656390   500A      3.665034  
     501A      3.680672   502A      3.688952   503A      3.710366  
     504A      3.713261   505A      3.726866   506A      3.733743  
     507A      3.748851   508A      3.761182   509A      3.774061  
     510A      3.776378   511A      3.812908   512A      3.818007  
     513A      3.830148   514A      3.833477   515A      3.842388  
     516A      3.862074   517A      3.876064   518A      3.891137  
     519A      3.907792   520A      3.923766   521A      3.928413  
     522A      3.957521   523A      3.986454   524A      4.003836  
     525A      4.011754   526A      4.024361   527A      4.041797  
     528A      4.052249   529A      4.069584   530A      4.079998  
     531A      4.098684   532A      4.128084   533A      4.131875  
     534A      4.142844   535A      4.153626   536A      4.185756  
     537A      4.196647   538A      4.200554   539A      4.211915  
     540A      4.217842   541A      4.220476   542A      4.226789  
     543A      4.257985   544A      4.272310   545A      4.284505  
     546A      4.300695   547A      4.335129   548A      4.355086  
     549A      4.358405   550A      4.358572   551A      4.370266  
     552A      4.375106   553A      4.397368   554A      4.399427  
     555A      4.408657   556A      4.421658   557A      4.426498  
     558A      4.433235   559A      4.458503   560A      4.465723  
     561A      4.492367   562A      4.511493   563A      4.541924  
     564A      4.549874   565A      4.565324   566A      4.577845  
     567A      4.579155   568A      4.602683   569A      4.614558  
     570A      4.639203   571A      4.649342   572A      4.650522  
     573A      4.666102   574A      4.689011   575A      4.696891  
     576A      4.711249   577A      4.750230   578A      4.760942  
     579A      4.771369   580A      4.780598   581A      4.786529  
     582A      4.793973   583A      4.801801   584A      4.823744  
     585A      4.836906   586A      4.851170   587A      4.877909  
     588A      4.891642   589A      4.905621   590A      4.927715  
     591A      4.932789   592A      4.941392   593A      4.948654  
     594A      4.965104   595A      4.967309   596A      4.977502  
     597A      4.998743   598A      5.008894   599A      5.016804  
     600A      5.016938   601A      5.021259   602A      5.027715  
     603A      5.037418   604A      5.046114   605A      5.047267  
     606A      5.051107   607A      5.084727   608A      5.090041  
     609A      5.108727   610A      5.126021   611A      5.166337  
     612A      5.186503   613A      5.194831   614A      5.215774  
     615A      5.220420   616A      5.242968   617A      5.245424  
     618A      5.272134   619A      5.288683   620A      5.289788  
     621A      5.309868   622A      5.311557   623A      5.322705  
     624A      5.362164   625A      5.367319   626A      5.383952  
     627A      5.406339   628A      5.414351   629A      5.454399  
     630A      5.484887   631A      5.494622   632A      5.501892  
     633A      5.515657   634A      5.518921   635A      5.538777  
     636A      5.585979   637A      5.598064   638A      5.633303  
     639A      5.636731   640A      5.641567   641A      5.668884  
     642A      5.686605   643A      5.717584   644A      5.821114  
     645A      5.886025   646A      5.915460   647A      5.934152  
     648A      5.973587   649A      5.989204   650A      6.009840  
     651A      6.082953   652A      6.085642   653A      6.094360  
     654A      6.158636   655A      6.161416   656A      6.202290  
     657A      6.271126   658A      6.286377   659A      6.338263  
     660A      6.367666   661A      6.400611   662A      6.461838  
     663A      6.473864   664A      6.478809   665A      6.490706  
     666A      6.491893   667A      6.497645   668A      6.504058  
     669A      6.573981   670A      6.590627   671A      6.611885  
[...]
     524A      3.310700   525A      3.318245   526A      3.322675  
     527A      3.323021   528A      3.355420   529A      3.363976  
     530A      3.398888   531A      3.402393   532A      3.447677  
     533A      3.448383   534A      3.449424   535A      3.463251  
     536A      3.467697   537A      3.472521   538A      3.481622  
     539A      3.491852   540A      3.509218   541A      3.512728  
     542A      3.545621   543A      3.547457   544A      3.568650  
     545A      3.576077   546A      3.594052   547A      3.599222  
     548A      3.621806   549A      3.630453   550A      3.633695  
     551A      3.644916   552A      3.645908   553A      3.653537  
     554A      3.682253   555A      3.690602   556A      3.703858  
     557A      3.704245   558A      3.728459   559A      3.744496  
     560A      3.745924   561A      3.757087   562A      3.776084  
     563A      3.782240   564A      3.782723   565A      3.785080  
     566A      3.788877   567A      3.813761   568A      3.849410  
     569A      3.851981   570A      3.855775   571A      3.868318  
     572A      3.878117   573A      3.883724   574A      3.898941  
     575A      3.923056   576A      3.935571   577A      3.937269  
     578A      3.942290   579A      3.947467   580A      3.957203  
     581A      3.965165   582A      3.977168   583A      4.004233  
     584A      4.004258   585A      4.009985   586A      4.022053  
     587A      4.032073   588A      4.044896   589A      4.069293  
     590A      4.084113   591A      4.092777   592A      4.107540  
     593A      4.112908   594A      4.113810   595A      4.127234  
     596A      4.154961   597A      4.169168   598A      4.173420  
     599A      4.180064   600A      4.181521   601A      4.182794  
     602A      4.202474   603A      4.234425   604A      4.247302  
     605A      4.269570   606A      4.270131   607A      4.298576  
     608A      4.307435   609A      4.322514   610A      4.324168  
     611A      4.340653   612A      4.347397   613A      4.349528  
     614A      4.361538   615A      4.366801   616A      4.370096  
     617A      4.388593   618A      4.392061   619A      4.402539  
     620A      4.404182   621A      4.408258   622A      4.416680  
     623A      4.442825   624A      4.450176   625A      4.450382  
     626A      4.466514   627A      4.514139   628A      4.516250  
     629A      4.532621   630A      4.547177   631A      4.568100  
     632A      4.586771   633A      4.587835   634A      4.602558  
     635A      4.605625   636A      4.609237   637A      4.611673  
     638A      4.719774   639A      4.730014   640A      4.734703  
     641A      4.749715   642A      4.753001   643A      4.780657  
     644A      4.783408   645A      4.793421   646A      4.797461  
     647A      4.816140   648A      4.853090   649A      4.881979  
     650A      4.889837   651A      4.898783   652A      4.912412  
     653A      4.932007   654A      4.948400   655A      4.956728  
     656A      4.982519   657A      4.988924   658A      5.000718  
     659A      5.037334   660A      5.069261   661A      5.103704  
     662A      5.106842   663A      5.107959   664A      5.130895  
     665A      5.175118   666A      5.245404   667A      5.262806  
     668A      5.296144   669A      5.318873   670A      5.362829  
     671A      5.416816   672A      5.422114   673A      5.440612  
     674A      5.525636   675A      5.530966   676A      5.541841  
     677A      5.582144   678A      5.613438   679A      5.676658  
     680A      5.713466   681A      5.754827   682A      5.777204  
     683A      5.799787   684A      5.834617   685A      5.837948  
     686A      5.860788   687A      5.861800   688A      5.882290  
     689A      5.894051   690A      5.925983   691A      5.986085  
     692A      6.004041   693A      6.005914   694A      6.020143  
     695A      6.048956   696A      6.077062   697A      6.078389  
     698A      6.102625   699A      6.118530   700A      6.174018  
     701A      6.223922   702A      6.247078   703A      6.253947  
     704A      6.272333   705A      6.285920   706A      6.288885  
     707A      6.290936   708A      6.298912   709A      6.310565  
     710A      6.361649   711A      6.365298   712A      6.379122  
     713A      6.416209   714A      6.417685   715A      6.444543  
     716A      6.454727   717A      6.471116   718A      6.471463  
     719A      6.538635   720A      6.601004   721A      6.603083  
     722A      6.605586   723A      6.606246   724A      6.621112  
     725A      6.637532   726A      6.675792   727A      6.675891  
     728A      6.697779   729A      6.705494   730A      6.739063  
     731A      6.759595   732A      6.764966   733A      6.804452  
     734A      6.811668   735A      6.814401   736A      6.827362  
     737A      6.834729   738A      6.849360   739A      6.874034  
     740A      6.882762   741A      6.889897   742A      6.894394  
     743A      6.907467   744A      6.910042   745A      6.940543  
     746A      6.946314   747A      6.978625   748A      6.980403  
     749A      6.993244   750A      7.001832   751A      7.007793  
     752A      7.022280   753A      7.039685   754A      7.067249  
     755A      7.087624   756A      7.091805   757A      7.096070  
     758A      7.100942   759A      7.133187   760A      7.153273  
     761A      7.175516   762A      7.177246   763A      7.188580  
     764A      7.209075   765A      7.210448   766A      7.248051  
     767A      7.257951   768A      7.259526   769A      7.268299  
     770A      7.275541   771A      7.287839   772A      7.309474  
     773A      7.321820   774A      7.378900   775A      7.390592  
     776A      7.421015   777A      7.437567   778A      7.444714  
     779A      7.465226   780A      7.502344   781A      7.509147  
     782A      7.562769   783A      7.582245   784A      7.601624  
     785A      7.623965   786A      7.625958   787A      7.639989  
     788A      7.672718   789A      7.685680   790A      7.688453  
     791A      7.706040   792A      7.719186   793A      7.735813  
     794A      7.747808   795A      7.762662   796A      7.780831  
     797A      7.791123   798A      7.807596   799A      7.825337  
     800A      7.837493   801A      7.842901   802A      7.844881  
     803A      7.857266   804A      7.870841   805A      7.902454  
     806A      7.906148   807A      7.930134   808A      7.944272  
     809A      7.951316   810A      7.966723   811A      7.987132  
     812A      7.994827   813A      8.011887   814A      8.027651  
     815A      8.061376   816A      8.089539   817A      8.090615  
     818A      8.103293   819A      8.130501   820A      8.169787  
     821A      8.203873   822A      8.212932   823A      8.222161  
     824A      8.276671   825A      8.289868   826A      8.301125  
     827A      8.309628   828A      8.336877   829A      8.371124  
     830A      8.377882   831A      8.453562   832A      8.465639  
     833A      8.479904   834A      8.514482   835A      8.536409  
     836A      8.570239   837A      8.598709   838A      8.629190  
     839A      8.655730   840A      8.657287   841A      8.678505  
     842A      8.683176   843A      8.696253   844A      8.717523  
     845A      8.720050   846A      8.749202   847A      8.763776  
     848A      8.777046   849A      8.794857   850A      8.797780  
     851A      8.831194   852A      8.852225   853A      8.856061  
     854A      8.894717   855A      8.921600   856A      8.934309  
     857A      8.937368   858A      8.953320   859A      8.988864  
     860A      9.015821   861A      9.044593   862A      9.045707  
     863A      9.058477   864A      9.078677   865A      9.102721  
     866A      9.130729   867A      9.192282   868A      9.225336  
     869A      9.228545   870A      9.336322   871A      9.336674  
     872A      9.345804   873A      9.363260   874A      9.434292  
     875A      9.469497   876A      9.500053   877A      9.514104  
     878A      9.528588   879A      9.546587   880A      9.550377  
     881A      9.567807   882A      9.589217   883A      9.590352  
     884A      9.676503   885A      9.679234   886A      9.703209  
     887A      9.709931   888A      9.727255   889A      9.818040  
     890A      9.828412   891A      9.865164   892A      9.914254  
     893A      9.924538   894A      9.950010   895A      9.984609  
     896A      9.995875   897A     10.002860   898A     10.027153  
     899A     10.032722   900A     10.082291   901A     10.102372  
     902A     10.236882   903A     10.245617   904A     10.255798  
     905A     10.262253   906A     10.329876   907A     10.352259  
     908A     10.378245   909A     10.391871   910A     10.401748  
     911A     10.412871   912A     10.454981   913A     10.462373  
     914A     10.477822   915A     10.519926   916A     10.563120  
     917A     10.697102   918A     10.746095   919A     10.749769  
     920A     10.756686   921A     10.772316   922A     10.800957  
     923A     10.816339   924A     10.837898   925A     10.908106  
     926A     10.982588   927A     11.028158   928A     11.050583  
     929A     11.058486   930A     11.078506   931A     11.096726  
     932A     11.235586   933A     11.282844   934A     11.311818  
     935A     11.386188   936A     11.418880   937A     11.445906  
     938A     11.483209   939A     11.667199   940A     11.702690  
     941A     11.719906   942A     11.725942   943A     11.746075  
     944A     11.799547   945A     11.834163   946A     11.993632  
     947A     12.207638   948A     12.210390   949A     12.239280  
     950A     12.636269   951A     12.747325   952A     12.836404  
     953A     12.912176   954A     13.167378   955A     13.177321  
     956A     13.321055   957A     13.381889   958A     13.462066  
     959A     13.626387   960A     14.007946   961A     14.027546  
     962A     14.516429   963A     14.813265   964A     14.913023  
     965A     15.264930   966A     15.772805   967A     16.852546  
     968A     17.301248   969A     25.472686   970A     26.151251  
     971A     26.464596   972A     26.686593   973A     27.079165  
     974A     27.186204   975A     45.532764  

    Final Occupation by Irrep:
              A 
    DOCC [    43 ]

  @DF-RHF Final Energy: -2878.73952782187916

   => Energetics <=

    Nuclear Repulsion Energy =            493.9889945368716440
    One-Electron Energy =               -4981.0560872751420902
    Two-Electron Energy =                1608.3275649163915659
    Total Energy =                      -2878.7395278218791645

Computation Completed


Properties will be evaluated at   0.000000,   0.000000,   0.000000 [a0]

Properties computed using the SCF density matrix

  Nuclear Dipole Moment: [e a0]
     X:    -6.7496      Y:     1.2387      Z:    -0.0003

  Electronic Dipole Moment: [e a0]
     X:     6.5812      Y:    -0.6777      Z:     0.0002

  Dipole Moment: [e a0]
     X:    -0.1685      Y:     0.5611      Z:    -0.0000     Total:     0.5858

  Dipole Moment: [D]
     X:    -0.4282      Y:     1.4262      Z:    -0.0000     Total:     1.4891


*** tstop() called on node86.bme.utexas.edu at Thu Apr 23 12:18:19 2020
Module time:
	user time   =     459.18 seconds =       7.65 minutes
	system time =       8.20 seconds =       0.14 minutes
	total time  =         69 seconds =       1.15 minutes
Total time:
	user time   =    2687.29 seconds =      44.79 minutes
	system time =      58.41 seconds =       0.97 minutes
	total time  =        441 seconds =       7.35 minutes

*** tstart() called on node86.bme.utexas.edu
*** at Thu Apr 23 12:18:19 2020


  //>>>>>>>>>>>>>>>>>>>>>>>>>>>>>>>>>>>//
  //               DFMP2               //
  //<<<<<<<<<<<<<<<<<<<<<<<<<<<<<<<<<<<//

   => Loading Basis Set <=

    Name: (AUG-CC-PVQZ AUX)
    Role: RIFIT
    Keyword: DF_BASIS_MP2
    atoms 1           entry BR         line  1518 file /home/liuchw/anaconda3/envs/psi4env/share/psi4/basis/aug-cc-pvqz-ri.gbs 
    atoms 2-7         entry C          line   184 file /home/liuchw/anaconda3/envs/psi4env/share/psi4/basis/aug-cc-pvqz-ri.gbs 
    atoms 8-12, 14-15 entry H          line    30 file /home/liuchw/anaconda3/envs/psi4env/share/psi4/basis/aug-cc-pvqz-ri.gbs 
    atoms 13          entry O          line   332 file /home/liuchw/anaconda3/envs/psi4env/share/psi4/basis/aug-cc-pvqz-ri.gbs 

	 --------------------------------------------------------
	                          DF-MP2                         
	      2nd-Order Density-Fitted Moller-Plesset Theory     
	              RMP2 Wavefunction,   8 Threads             
	                                                         
	        Rob Parrish, Justin Turney, Andy Simmonett,      
	           Ed Hohenstein, and C. David Sherrill          
	 --------------------------------------------------------

   => Auxiliary Basis Set <=

  Basis Set: (AUG-CC-PVQZ AUX)
    Blend: AUG-CC-PVQZ-RI
    Number of shells: 444
    Number of basis function: 1998
    Number of Cartesian functions: 2781
    Spherical Harmonics?: true
    Max angular momentum: 6

	 --------------------------------------------------------
	                 NBF =   975, NAUX =  1998
	 --------------------------------------------------------
	   CLASS    FOCC     OCC    AOCC    AVIR     VIR    FVIR
	   PAIRS       0      43      43     932     932       0
	 --------------------------------------------------------

	-----------------------------------------------------------
	 ==================> DF-MP2 Energies <==================== 
	-----------------------------------------------------------
	 Reference Energy          =   -2878.7395278218791645 [Eh]
	 Singles Energy            =      -0.0000000000000000 [Eh]
	 Same-Spin Energy          =      -0.4686671432686782 [Eh]
	 Opposite-Spin Energy      =      -1.4259371081915795 [Eh]
	 Correlation Energy        =      -1.8946042514602577 [Eh]
	 Total Energy              =   -2880.6341320733395150 [Eh]
	-----------------------------------------------------------
	 ================> DF-SCS-MP2 Energies <================== 
	-----------------------------------------------------------
	 SCS Same-Spin Scale       =       0.3333333333333333 [-]
	 SCS Opposite-Spin Scale   =       1.2000000000000000 [-]
	 SCS Same-Spin Energy      =      -0.1562223810895594 [Eh]
	 SCS Opposite-Spin Energy  =      -1.7111245298298954 [Eh]
	 SCS Correlation Energy    =      -1.8673469109194547 [Eh]
	 SCS Total Energy          =   -2880.6068747327985875 [Eh]
	-----------------------------------------------------------


*** tstop() called on node86.bme.utexas.edu at Thu Apr 23 12:19:15 2020
Module time:
	user time   =     320.06 seconds =       5.33 minutes
	system time =       8.24 seconds =       0.14 minutes
	total time  =         56 seconds =       0.93 minutes
Total time:
	user time   =    3007.35 seconds =      50.12 minutes
	system time =      66.65 seconds =       1.11 minutes
	total time  =        497 seconds =       8.28 minutes

  //>>>>>>>>>>>>>>>>>>>>>>>>>>>>>>>>>>>//
  //  CBS Results: mp2/aug-cc-pv[tq]z  //
  //<<<<<<<<<<<<<<<<<<<<<<<<<<<<<<<<<<<//


   ==> HF <==

   HI-zeta (4) Energy:               -2878.739527821879


   ==> Helgaker 2-point correlated extrapolation for method: MP2 <==

   LO-zeta (3) Energy:               -2880.364648971708
   HI-zeta (4) Energy:               -2880.634132073340
   Alpha (exponent) Value:             3.000000000000
   Extrapolated Energy:              -2880.830781904260

   @Extrapolated MP2/(T,Q):          -2880.830781904260



   ==> Helgaker 2-point correlated extrapolation for method: HF <==

   LO-zeta (3) Energy:               -2878.718314791445
   HI-zeta (4) Energy:               -2878.739527821879
   Alpha (exponent) Value:             3.000000000000
   Extrapolated Energy:              -2878.755007600845

   @Extrapolated HF/(T,Q):           -2878.755007600845


   ==> Components <==

  ---------------------------------------------------------------------------------------------------------
                          Method / Basis                      Rqd      Energy [Eh]   Variable
  ---------------------------------------------------------------------------------------------------------
                              hf / aug-cc-pvtz                  *   -2878.71831479   HF TOTAL ENERGY
                             mp2 / aug-cc-pvtz                  *   -2880.36464897   MP2 TOTAL ENERGY
                              hf / aug-cc-pvqz                  *   -2878.73952782   HF TOTAL ENERGY
                             mp2 / aug-cc-pvqz                  *   -2880.63413207   MP2 TOTAL ENERGY
  ---------------------------------------------------------------------------------------------------------

   ==> Stages <==

  ---------------------------------------------------------------------------------------------------------
      Stage               Method / Basis                       Wt      Energy [Eh]   Scheme
  ---------------------------------------------------------------------------------------------------------
        scf                   hf / aug-cc-pvqz                  1   -2878.73952782   xtpl_highest_1
       corl                  mp2 / aug-cc-pv[tq]z               1   -2880.83078190   corl_xtpl_helgaker_2
       corl                   hf / aug-cc-pv[tq]z              -1   -2878.75500760   corl_xtpl_helgaker_2
  ---------------------------------------------------------------------------------------------------------

   ==> CBS <==

  ---------------------------------------------------------------------------------------------------------
      Stage               Method / Basis                               Energy [Eh]   Scheme
  ---------------------------------------------------------------------------------------------------------
        scf                   hf / aug-cc-pvqz                      -2878.73952782   xtpl_highest_1
       corl                  mp2 / aug-cc-pv[tq]z                      -2.07577430   corl_xtpl_helgaker_2
      total                  CBS                                    -2880.81530213   
  ---------------------------------------------------------------------------------------------------------
   => Loading Basis Set <=

    Name: DEF2-SVP
    Role: ORBITAL
    Keyword: BASIS
    atoms 1           entry BR         line  1084 file /home/liuchw/anaconda3/envs/psi4env/share/psi4/basis/def2-svp.gbs 
    atoms 2-7         entry C          line    90 file /home/liuchw/anaconda3/envs/psi4env/share/psi4/basis/def2-svp.gbs 
    atoms 8-12, 14-15 entry H          line    15 file /home/liuchw/anaconda3/envs/psi4env/share/psi4/basis/def2-svp.gbs 
    atoms 13          entry O          line   130 file /home/liuchw/anaconda3/envs/psi4env/share/psi4/basis/def2-svp.gbs 


       N-Body: Complex Energy (fragments = (1, 2), basis = (1, 2): -2880.81530212529469)

   ==> N-Body: Counterpoise Corrected (CP) energies <==

   n-Body     Total Energy [Eh]       I.E. [kcal/mol]      Delta [kcal/mol]
        1    -2880.815365162390        0.000000000000        0.000000000000
        2    -2880.815329133652        0.022608374500        0.022608374500

   => Loading Basis Set <=

    Name: DEF2-SVP
    Role: ORBITAL
    Keyword: BASIS
    atoms 1           entry BR         line  1084 file /home/liuchw/anaconda3/envs/psi4env/share/psi4/basis/def2-svp.gbs 
    atoms 2-7         entry C          line    90 file /home/liuchw/anaconda3/envs/psi4env/share/psi4/basis/def2-svp.gbs 
    atoms 8-12, 14-15 entry H          line    15 file /home/liuchw/anaconda3/envs/psi4env/share/psi4/basis/def2-svp.gbs 
    atoms 13          entry O          line   130 file /home/liuchw/anaconda3/envs/psi4env/share/psi4/basis/def2-svp.gbs 


    Psi4 stopped on: Thursday, 23 April 2020 12:19PM
    Psi4 wall time for execution: 0:08:17.64

*** Psi4 exiting successfully. Buy a developer a beer!
