
    -----------------------------------------------------------------------
          Psi4: An Open-Source Ab Initio Electronic Structure Package
                               Psi4 1.4a2.dev224 

                         Git: Rev {master} e453b16 


    R. M. Parrish, L. A. Burns, D. G. A. Smith, A. C. Simmonett,
    A. E. DePrince III, E. G. Hohenstein, U. Bozkaya, A. Yu. Sokolov,
    R. Di Remigio, R. M. Richard, J. F. Gonthier, A. M. James,
    H. R. McAlexander, A. Kumar, M. Saitow, X. Wang, B. P. Pritchard,
    P. Verma, H. F. Schaefer III, K. Patkowski, R. A. King, E. F. Valeev,
    F. A. Evangelista, J. M. Turney, T. D. Crawford, and C. D. Sherrill,
    J. Chem. Theory Comput. 13(7) pp 3185--3197 (2017).
    (doi: 10.1021/acs.jctc.7b00174)


                         Additional Contributions by
    P. Kraus, H. Kruse, M. H. Lechner, M. C. Schieber, R. A. Shaw,
    A. Alenaizan, R. Galvelis, Z. L. Glick, S. Lehtola, and J. P. Misiewicz

    -----------------------------------------------------------------------


    Psi4 started on: Saturday, 11 April 2020 04:27PM

    Process ID: 76821
    Host:       node52.bme.utexas.edu
    PSIDATADIR: /home/liuchw/anaconda3/envs/psi4env/share/psi4
    Memory:     500.0 MiB
    Threads:    6
    
  ==> Input File <==

--------------------------------------------------------------------------
#Generated by lconvert.py for cbs job

memory 40 GB

molecule  {
0 1
 Br        0.3777210     1.5497260     1.4344090
 Br       -0.3930130    -1.5625820     1.4284190
  C       -0.0131690    -0.0070870     2.4857150
  H       -0.8857710     0.2079010     3.0873280
  H        0.8531130    -0.2227370     3.0961620
--
0 1
 Br       -0.3936370    -1.5478070    -2.1466470
 Br        0.3747500     1.5666840    -2.1439130
  C        0.0162820     0.0021820    -1.0944270
  H        0.8974540    -0.2157200    -0.5075260
  H       -0.8347270     0.2115850    -0.4619750
units angstrom
no_reorient
symmetry c1
}

set {
scf_type DF
mp2_type DF
e_convergence 7
reference rhf
}

energy('mp2/aug-cc-pv[tq]z', bsse_type='cp')
--------------------------------------------------------------------------

  Memory set to  37.253 GiB by Python driver.

Scratch directory: /scratch//


   ===> N-Body Interaction Abacus <===
        BSSE Treatment:                     cp
        Number of 1-body computations:     4
        Number of 2-body computations:     1

   ==> N-Body: Now computing 1-body complexes <==


       N-Body: Computing complex (1/4) with fragments (2,) in the basis of fragments (2,).


Scratch directory: /scratch//

  //>>>>>>>>>>>>>>>>>>>>>>>>>>>>>>>>>>>//
  //   CBS Setup: mp2/aug-cc-pv[tq]z   //
  //<<<<<<<<<<<<<<<<<<<<<<<<<<<<<<<<<<<//

    Naive listing of computations required.
             hf / aug-cc-pvqz              for  HF TOTAL ENERGY
            mp2 / aug-cc-pvtz              for  MP2 TOTAL ENERGY
            mp2 / aug-cc-pvqz              for  MP2 TOTAL ENERGY
             hf / aug-cc-pvtz              for  HF TOTAL ENERGY
             hf / aug-cc-pvqz              for  HF TOTAL ENERGY

    Enlightened listing of computations required.
            mp2 / aug-cc-pvtz              for  MP2 TOTAL ENERGY
            mp2 / aug-cc-pvqz              for  MP2 TOTAL ENERGY

    Full listing of computations to be obtained (required and bonus).
             hf / aug-cc-pvtz              for  HF TOTAL ENERGY
            mp2 / aug-cc-pvtz              for  MP2 TOTAL ENERGY
             hf / aug-cc-pvqz              for  HF TOTAL ENERGY
            mp2 / aug-cc-pvqz              for  MP2 TOTAL ENERGY

  //>>>>>>>>>>>>>>>>>>>>>>>>>>>>>>>>>>>>//
  // CBS Computation: MP2 / AUG-CC-PVTZ //
  //<<<<<<<<<<<<<<<<<<<<<<<<<<<<<<<<<<<<//


Scratch directory: /scratch//

*** tstart() called on node52.bme.utexas.edu
*** at Sat Apr 11 16:27:44 2020

   => Loading Basis Set <=

    Name: AUG-CC-PVTZ
    Role: ORBITAL
    Keyword: BASIS
    atoms 1-2 entry BR         line  4208 file /home/liuchw/anaconda3/envs/psi4env/share/psi4/basis/aug-cc-pvtz.gbs 
    atoms 3   entry C          line   239 file /home/liuchw/anaconda3/envs/psi4env/share/psi4/basis/aug-cc-pvtz.gbs 
    atoms 4-5 entry H          line    40 file /home/liuchw/anaconda3/envs/psi4env/share/psi4/basis/aug-cc-pvtz.gbs 


         ---------------------------------------------------------
                                   SCF
               by Justin Turney, Rob Parrish, Andy Simmonett
                          and Daniel G. A. Smith
                              RHF Reference
                        6 Threads,  38146 MiB Core
         ---------------------------------------------------------

  ==> Geometry <==

    Molecular point group: c1
    Full point group: C1

    Geometry (in Angstrom), charge = 0, multiplicity = 1:

       Center              X                  Y                   Z               Mass       
    ------------   -----------------  -----------------  -----------------  -----------------
         BR          -0.385985984613    -1.548962608053    -1.882687838532    78.918337600000
         BR           0.382401015387     1.565528391947    -1.879953838532    78.918337600000
         C            0.023933015387     0.001026391947    -0.830467838532    12.000000000000
         H            0.905105015387    -0.216875608053    -0.243566838532     1.007825032230
         H           -0.827075984613     0.210429391947    -0.198015838532     1.007825032230

  Running in c1 symmetry.

  Rotational constants: A =      0.04135  B =      0.02964  C =      0.01732 [cm^-1]
  Rotational constants: A =   1239.72798  B =    888.72256  C =    519.35897 [MHz]
  Nuclear repulsion =  354.072650895805282

  Charge       = 0
  Multiplicity = 1
  Electrons    = 78
  Nalpha       = 39
  Nbeta        = 39

  ==> Algorithm <==

  SCF Algorithm Type is DF.
  DIIS enabled.
  MOM disabled.
  Fractional occupation disabled.
  Guess Type is SAD.
  Energy threshold   = 1.00e-07
  Density threshold  = 1.00e-08
  Integral threshold = 0.00e+00

  ==> Primary Basis <==

  Basis Set: AUG-CC-PVTZ
    Blend: AUG-CC-PVTZ
    Number of shells: 70
    Number of basis function: 210
    Number of Cartesian functions: 243
    Spherical Harmonics?: true
    Max angular momentum: 3

   => Loading Basis Set <=

    Name: (AUG-CC-PVTZ AUX)
    Role: JKFIT
    Keyword: DF_BASIS_SCF
    atoms 1-2 entry BR         line  1492 file /home/liuchw/anaconda3/envs/psi4env/share/psi4/basis/aug-cc-pvtz-jkfit.gbs 
    atoms 3   entry C          line   162 file /home/liuchw/anaconda3/envs/psi4env/share/psi4/basis/aug-cc-pvtz-jkfit.gbs 
    atoms 4-5 entry H          line    70 file /home/liuchw/anaconda3/envs/psi4env/share/psi4/basis/aug-cc-pvtz-jkfit.gbs 

  ==> Pre-Iterations <==

   -------------------------------------------------------
    Irrep   Nso     Nmo     Nalpha   Nbeta   Ndocc  Nsocc
   -------------------------------------------------------
     A        210     210       0       0       0       0
   -------------------------------------------------------
    Total     210     210      39      39      39       0
   -------------------------------------------------------

  ==> Integral Setup <==

  DFHelper Memory: AOs need 0.242 GiB; user supplied 27.940 GiB. Using in-core AOs.

  ==> MemDFJK: Density-Fitted J/K Matrices <==

    J tasked:                   Yes
    K tasked:                   Yes
    wK tasked:                   No
    OpenMP threads:               6
    Memory [MiB]:             28610
    Algorithm:                 Core
    Schwarz Cutoff:           1E-12
    Mask sparsity (%):       0.0771
    Fitting Condition:        1E-10

   => Auxiliary Basis Set <=

  Basis Set: (AUG-CC-PVTZ AUX)
    Blend: AUG-CC-PVTZ-JKFIT
    Number of shells: 174
    Number of basis function: 692
    Number of Cartesian functions: 899
    Spherical Harmonics?: true
    Max angular momentum: 4

  Minimum eigenvalue in the overlap matrix is 7.4628607845E-05.
  Using Symmetric Orthogonalization.

  SCF Guess: Superposition of Atomic Densities via on-the-fly atomic UHF.

  ==> Iterations <==

                           Total Energy        Delta E     RMS |[F,P]|

   @DF-RHF iter SAD: -5180.36478993904893   -5.18036e+03   0.00000e+00 
   @DF-RHF iter   1: -5183.63854067505872   -3.27375e+00   6.37280e-03 DIIS
   @DF-RHF iter   2: -5183.89348471844278   -2.54944e-01   3.02758e-03 DIIS
   @DF-RHF iter   3: -5183.96249573353907   -6.90110e-02   2.15834e-04 DIIS
   @DF-RHF iter   4: -5183.96379186916056   -1.29614e-03   1.05473e-04 DIIS
   @DF-RHF iter   5: -5183.96413555035906   -3.43681e-04   1.87374e-05 DIIS
   @DF-RHF iter   6: -5183.96416212646909   -2.65761e-05   5.73205e-06 DIIS
   @DF-RHF iter   7: -5183.96416425770349   -2.13123e-06   1.89522e-06 DIIS
   @DF-RHF iter   8: -5183.96416450249308   -2.44790e-07   4.04751e-07 DIIS
   @DF-RHF iter   9: -5183.96416451326604   -1.07730e-08   7.05551e-08 DIIS
   @DF-RHF iter  10: -5183.96416451358346   -3.17414e-10   1.91853e-08 DIIS
   @DF-RHF iter  11: -5183.96416451362620   -4.27463e-11   5.10154e-09 DIIS
  Energy and wave function converged.


  ==> Post-Iterations <==

    Orbital Energies [Eh]
    ---------------------

    Doubly Occupied:                                                      

       1A   -490.035197     2A   -490.035197     3A    -65.175152  
       4A    -65.175151     5A    -58.530480     6A    -58.530479  
       7A    -58.528996     8A    -58.528996     9A    -58.528960  
      10A    -58.528959    11A    -11.354879    12A     -9.848166  
      13A     -9.848162    14A     -7.459983    15A     -7.459981  
      16A     -7.452830    17A     -7.452827    18A     -7.452660  
      19A     -7.452659    20A     -3.203783    21A     -3.203756  
      22A     -3.200060    23A     -3.200058    24A     -3.199886  
      25A     -3.199884    26A     -3.190723    27A     -3.190722  
      28A     -3.190720    29A     -3.190719    30A     -1.120589  
      31A     -1.013984    32A     -0.876072    33A     -0.662979  
      34A     -0.578472    35A     -0.539860    36A     -0.431831  
      37A     -0.430019    38A     -0.414820    39A     -0.406039  

    Virtual:                                                              

      40A      0.029133    41A      0.043440    42A      0.053661  
      43A      0.058851    44A      0.098100    45A      0.101426  
      46A      0.104535    47A      0.107969    48A      0.113991  
      49A      0.124294    50A      0.132146    51A      0.147391  
      52A      0.158714    53A      0.173686    54A      0.181498  
      55A      0.215878    56A      0.217504    57A      0.238074  
      58A      0.269652    59A      0.289252    60A      0.301101  
      61A      0.303112    62A      0.313198    63A      0.327854  
      64A      0.346865    65A      0.351874    66A      0.367400  
      67A      0.380050    68A      0.389021    69A      0.391098  
      70A      0.395264    71A      0.421592    72A      0.427607  
      73A      0.431963    74A      0.441835    75A      0.450098  
      76A      0.461718    77A      0.502750    78A      0.516822  
      79A      0.529321    80A      0.563541    81A      0.574221  
      82A      0.600966    83A      0.604257    84A      0.645636  
      85A      0.676647    86A      0.699057    87A      0.709092  
      88A      0.750363    89A      0.763535    90A      0.778587  
      91A      0.780594    92A      0.794631    93A      0.812285  
      94A      0.842441    95A      0.850265    96A      0.864203  
      97A      0.890934    98A      0.907584    99A      0.915175  
     100A      0.918055   101A      0.938476   102A      0.949470  
     103A      0.967993   104A      0.970318   105A      0.973959  
     106A      0.992936   107A      1.015982   108A      1.040561  
     109A      1.054458   110A      1.063956   111A      1.077528  
     112A      1.089827   113A      1.100055   114A      1.148809  
     115A      1.167320   116A      1.167891   117A      1.247858  
     118A      1.257145   119A      1.261680   120A      1.295350  
     121A      1.321994   122A      1.363764   123A      1.382130  
     124A      1.393315   125A      1.434362   126A      1.462377  
     127A      1.491677   128A      1.496872   129A      1.547772  
     130A      1.575176   131A      1.611587   132A      1.615294  
     133A      1.676534   134A      1.688651   135A      1.692723  
     136A      1.727488   137A      1.747217   138A      1.754161  
     139A      1.903093   140A      1.996348   141A      2.011058  
     142A      2.034230   143A      2.078419   144A      2.194422  
     145A      2.215065   146A      2.254959   147A      2.255605  
     148A      2.259777   149A      2.298980   150A      2.304679  
     151A      2.312026   152A      2.328797   153A      2.333033  
     154A      2.339877   155A      2.340440   156A      2.346856  
     157A      2.348054   158A      2.414010   159A      2.425820  
     160A      2.441680   161A      2.444392   162A      2.459297  
     163A      2.475304   164A      2.518677   165A      2.546689  
     166A      2.566150   167A      2.566948   168A      2.594187  
     169A      2.619921   170A      2.631642   171A      2.673327  
     172A      2.687858   173A      2.771162   174A      3.066865  
     175A      3.117668   176A      3.385022   177A      3.473824  
     178A      3.515698   179A      3.520881   180A      3.552299  
     181A      3.655508   182A      3.664690   183A      3.707099  
     184A      3.899662   185A      3.950512   186A      3.960432  
     187A      4.015350   188A      4.015688   189A      4.032896  
     190A      4.100034   191A      4.108220   192A      4.176508  
     193A      4.269354   194A      4.355615   195A      4.458357  
     196A      4.703266   197A      4.882048   198A      4.884046  
     199A      4.885099   200A      5.085030   201A      5.100855  
     202A      5.231651   203A      5.307066   204A      5.348062  
     205A      5.501497   206A      5.742059   207A      5.744271  
     208A      6.018104   209A      6.566816   210A     15.862358  

    Final Occupation by Irrep:
              A 
    DOCC [    39 ]

  @DF-RHF Final Energy: -5183.96416451362620

   => Energetics <=

    Nuclear Repulsion Energy =            354.0726508958052818
    One-Electron Energy =               -7924.4242495358512315
    Two-Electron Energy =                2386.3874341264199757
    Total Energy =                      -5183.9641645136262014

Computation Completed


Properties will be evaluated at   0.000000,   0.000000,   0.000000 [a0]

Properties computed using the SCF density matrix

  Nuclear Dipole Moment: [e a0]
     X:     0.1817      Y:     1.0951      Z:  -259.1133

  Electronic Dipole Moment: [e a0]
     X:    -0.1656      Y:    -1.0997      Z:   259.7706

  Dipole Moment: [e a0]
     X:     0.0161      Y:    -0.0045      Z:     0.6573     Total:     0.6575

  Dipole Moment: [D]
     X:     0.0410      Y:    -0.0115      Z:     1.6708     Total:     1.6713


*** tstop() called on node52.bme.utexas.edu at Sat Apr 11 16:27:49 2020
Module time:
	user time   =      20.68 seconds =       0.34 minutes
	system time =       0.61 seconds =       0.01 minutes
	total time  =          5 seconds =       0.08 minutes
Total time:
	user time   =      20.68 seconds =       0.34 minutes
	system time =       0.61 seconds =       0.01 minutes
	total time  =          5 seconds =       0.08 minutes

*** tstart() called on node52.bme.utexas.edu
*** at Sat Apr 11 16:27:49 2020


  //>>>>>>>>>>>>>>>>>>>>>>>>>>>>>>>>>>>//
  //               DFMP2               //
  //<<<<<<<<<<<<<<<<<<<<<<<<<<<<<<<<<<<//

   => Loading Basis Set <=

    Name: (AUG-CC-PVTZ AUX)
    Role: RIFIT
    Keyword: DF_BASIS_MP2
    atoms 1-2 entry BR         line  1248 file /home/liuchw/anaconda3/envs/psi4env/share/psi4/basis/aug-cc-pvtz-ri.gbs 
    atoms 3   entry C          line   148 file /home/liuchw/anaconda3/envs/psi4env/share/psi4/basis/aug-cc-pvtz-ri.gbs 
    atoms 4-5 entry H          line    30 file /home/liuchw/anaconda3/envs/psi4env/share/psi4/basis/aug-cc-pvtz-ri.gbs 

	 --------------------------------------------------------
	                          DF-MP2                         
	      2nd-Order Density-Fitted Moller-Plesset Theory     
	              RMP2 Wavefunction,   6 Threads             
	                                                         
	        Rob Parrish, Justin Turney, Andy Simmonett,      
	           Ed Hohenstein, and C. David Sherrill          
	 --------------------------------------------------------

   => Auxiliary Basis Set <=

  Basis Set: (AUG-CC-PVTZ AUX)
    Blend: AUG-CC-PVTZ-RI
    Number of shells: 142
    Number of basis function: 580
    Number of Cartesian functions: 768
    Spherical Harmonics?: true
    Max angular momentum: 5

	 --------------------------------------------------------
	                 NBF =   210, NAUX =   580
	 --------------------------------------------------------
	   CLASS    FOCC     OCC    AOCC    AVIR     VIR    FVIR
	   PAIRS       0      39      39     171     171       0
	 --------------------------------------------------------

	-----------------------------------------------------------
	 ==================> DF-MP2 Energies <==================== 
	-----------------------------------------------------------
	 Reference Energy          =   -5183.9641645136262014 [Eh]
	 Singles Energy            =      -0.0000000000000000 [Eh]
	 Same-Spin Energy          =      -0.2177133539582537 [Eh]
	 Opposite-Spin Energy      =      -0.5531542954552990 [Eh]
	 Correlation Energy        =      -0.7708676494135528 [Eh]
	 Total Energy              =   -5184.7350321630401595 [Eh]
	-----------------------------------------------------------
	 ================> DF-SCS-MP2 Energies <================== 
	-----------------------------------------------------------
	 SCS Same-Spin Scale       =       0.3333333333333333 [-]
	 SCS Opposite-Spin Scale   =       1.2000000000000000 [-]
	 SCS Same-Spin Energy      =      -0.0725711179860846 [Eh]
	 SCS Opposite-Spin Energy  =      -0.6637851545463588 [Eh]
	 SCS Correlation Energy    =      -0.7363562725324433 [Eh]
	 SCS Total Energy          =   -5184.7005207861584495 [Eh]
	-----------------------------------------------------------


*** tstop() called on node52.bme.utexas.edu at Sat Apr 11 16:27:51 2020
Module time:
	user time   =       9.25 seconds =       0.15 minutes
	system time =       0.24 seconds =       0.00 minutes
	total time  =          2 seconds =       0.03 minutes
Total time:
	user time   =      29.94 seconds =       0.50 minutes
	system time =       0.85 seconds =       0.01 minutes
	total time  =          7 seconds =       0.12 minutes

  //>>>>>>>>>>>>>>>>>>>>>>>>>>>>>>>>>>>>//
  // CBS Computation: MP2 / AUG-CC-PVQZ //
  //<<<<<<<<<<<<<<<<<<<<<<<<<<<<<<<<<<<<//


Scratch directory: /scratch//

*** tstart() called on node52.bme.utexas.edu
*** at Sat Apr 11 16:27:51 2020

   => Loading Basis Set <=

    Name: AUG-CC-PVQZ
    Role: ORBITAL
    Keyword: BASIS
    atoms 1-2 entry BR         line  5448 file /home/liuchw/anaconda3/envs/psi4env/share/psi4/basis/aug-cc-pvqz.gbs 
    atoms 3   entry C          line   303 file /home/liuchw/anaconda3/envs/psi4env/share/psi4/basis/aug-cc-pvqz.gbs 
    atoms 4-5 entry H          line    40 file /home/liuchw/anaconda3/envs/psi4env/share/psi4/basis/aug-cc-pvqz.gbs 


         ---------------------------------------------------------
                                   SCF
               by Justin Turney, Rob Parrish, Andy Simmonett
                          and Daniel G. A. Smith
                              RHF Reference
                        6 Threads,  38146 MiB Core
         ---------------------------------------------------------

  ==> Geometry <==

    Molecular point group: c1
    Full point group: C1

    Geometry (in Angstrom), charge = 0, multiplicity = 1:

       Center              X                  Y                   Z               Mass       
    ------------   -----------------  -----------------  -----------------  -----------------
         BR          -0.385985984613    -1.548962608053    -1.882687838532    78.918337600000
         BR           0.382401015387     1.565528391947    -1.879953838532    78.918337600000
         C            0.023933015387     0.001026391947    -0.830467838532    12.000000000000
         H            0.905105015387    -0.216875608053    -0.243566838532     1.007825032230
         H           -0.827075984613     0.210429391947    -0.198015838532     1.007825032230

  Running in c1 symmetry.

  Rotational constants: A =      0.04135  B =      0.02964  C =      0.01732 [cm^-1]
  Rotational constants: A =   1239.72798  B =    888.72256  C =    519.35897 [MHz]
  Nuclear repulsion =  354.072650895805282

  Charge       = 0
  Multiplicity = 1
  Electrons    = 78
  Nalpha       = 39
  Nbeta        = 39

  ==> Algorithm <==

  SCF Algorithm Type is DF.
  DIIS enabled.
  MOM disabled.
  Fractional occupation disabled.
  Guess Type is SAD.
  Energy threshold   = 1.00e-07
  Density threshold  = 1.00e-08
  Integral threshold = 0.00e+00

  ==> Primary Basis <==

  Basis Set: AUG-CC-PVQZ
    Blend: AUG-CC-PVQZ
    Number of shells: 98
    Number of basis function: 358
    Number of Cartesian functions: 453
    Spherical Harmonics?: true
    Max angular momentum: 4

   => Loading Basis Set <=

    Name: (AUG-CC-PVQZ AUX)
    Role: JKFIT
    Keyword: DF_BASIS_SCF
    atoms 1-2 entry BR         line  1612 file /home/liuchw/anaconda3/envs/psi4env/share/psi4/basis/aug-cc-pvqz-jkfit.gbs 
    atoms 3   entry C          line   178 file /home/liuchw/anaconda3/envs/psi4env/share/psi4/basis/aug-cc-pvqz-jkfit.gbs 
    atoms 4-5 entry H          line    70 file /home/liuchw/anaconda3/envs/psi4env/share/psi4/basis/aug-cc-pvqz-jkfit.gbs 

  ==> Pre-Iterations <==

   -------------------------------------------------------
    Irrep   Nso     Nmo     Nalpha   Nbeta   Ndocc  Nsocc
   -------------------------------------------------------
     A        358     358       0       0       0       0
   -------------------------------------------------------
    Total     358     358      39      39      39       0
   -------------------------------------------------------

  ==> Integral Setup <==

  DFHelper Memory: AOs need 0.836 GiB; user supplied 27.940 GiB. Using in-core AOs.

  ==> MemDFJK: Density-Fitted J/K Matrices <==

    J tasked:                   Yes
    K tasked:                   Yes
    wK tasked:                   No
    OpenMP threads:               6
    Memory [MiB]:             28610
    Algorithm:                 Core
    Schwarz Cutoff:           1E-12
    Mask sparsity (%):       0.3012
    Fitting Condition:        1E-10

   => Auxiliary Basis Set <=

  Basis Set: (AUG-CC-PVQZ AUX)
    Blend: AUG-CC-PVQZ-JKFIT
    Number of shells: 190
    Number of basis function: 834
    Number of Cartesian functions: 1142
    Spherical Harmonics?: true
    Max angular momentum: 5

  Minimum eigenvalue in the overlap matrix is 1.3877190144E-05.
  Using Symmetric Orthogonalization.

  SCF Guess: Superposition of Atomic Densities via on-the-fly atomic UHF.

  ==> Iterations <==

                           Total Energy        Delta E     RMS |[F,P]|

   @DF-RHF iter SAD: -5180.33144653564159   -5.18033e+03   0.00000e+00 
   @DF-RHF iter   1: -5183.56916232053845   -3.23772e+00   4.77768e-03 DIIS
   @DF-RHF iter   2: -5183.86105284702899   -2.91891e-01   2.60707e-03 DIIS
   @DF-RHF iter   3: -5183.97045258608250   -1.09400e-01   1.18580e-04 DIIS
   @DF-RHF iter   4: -5183.97161367501212   -1.16109e-03   6.64284e-05 DIIS
   @DF-RHF iter   5: -5183.97196415311646   -3.50478e-04   1.28658e-05 DIIS
   @DF-RHF iter   6: -5183.97199799713599   -3.38440e-05   3.62869e-06 DIIS
   @DF-RHF iter   7: -5183.97200045635054   -2.45921e-06   1.23630e-06 DIIS
   @DF-RHF iter   8: -5183.97200073193198   -2.75581e-07   3.03972e-07 DIIS
   @DF-RHF iter   9: -5183.97200074894226   -1.70103e-08   4.59917e-08 DIIS
   @DF-RHF iter  10: -5183.97200074934062   -3.98359e-10   1.33212e-08 DIIS
   @DF-RHF iter  11: -5183.97200074937518   -3.45608e-11   3.77605e-09 DIIS
  Energy and wave function converged.


  ==> Post-Iterations <==

    Orbital Energies [Eh]
    ---------------------

    Doubly Occupied:                                                      

       1A   -490.034085     2A   -490.034084     3A    -65.174508  
       4A    -65.174507     5A    -58.529958     6A    -58.529957  
       7A    -58.528444     8A    -58.528444     9A    -58.528407  
      10A    -58.528407    11A    -11.353162    12A     -9.847863  
      13A     -9.847859    14A     -7.459585    15A     -7.459582  
      16A     -7.452673    17A     -7.452671    18A     -7.452505  
      19A     -7.452503    20A     -3.203373    21A     -3.203346  
      22A     -3.199719    23A     -3.199716    24A     -3.199546  
      25A     -3.199544    26A     -3.190577    27A     -3.190577  
      28A     -3.190574    29A     -3.190574    30A     -1.120071  
      31A     -1.013690    32A     -0.875828    33A     -0.662819  
      34A     -0.578336    35A     -0.539670    36A     -0.431788  
      37A     -0.429984    38A     -0.414807    39A     -0.406003  

    Virtual:                                                              

      40A      0.026033    41A      0.038870    42A      0.046029  
      43A      0.049679    44A      0.082585    45A      0.084125  
      46A      0.087899    47A      0.088868    48A      0.093655  
      49A      0.107533    50A      0.112972    51A      0.127760  
      52A      0.137476    53A      0.154801    54A      0.159919  
      55A      0.186726    56A      0.192285    57A      0.211680  
      58A      0.225709    59A      0.240632    60A      0.245853  
      61A      0.251232    62A      0.269036    63A      0.272158  
      64A      0.288024    65A      0.292040    66A      0.306983  
      67A      0.307598    68A      0.311007    69A      0.320283  
      70A      0.323400    71A      0.330287    72A      0.337449  
      73A      0.340030    74A      0.350347    75A      0.358504  
      76A      0.363508    77A      0.388240    78A      0.407358  
      79A      0.408174    80A      0.414638    81A      0.414958  
      82A      0.418092    83A      0.454725    84A      0.457622  
      85A      0.516161    86A      0.532828    87A      0.544238  
      88A      0.554990    89A      0.566482    90A      0.578299  
      91A      0.580030    92A      0.594460    93A      0.595459  
      94A      0.614273    95A      0.647496    96A      0.648364  
      97A      0.667732    98A      0.675686    99A      0.691853  
     100A      0.692034   101A      0.708329   102A      0.713838  
     103A      0.714833   104A      0.729899   105A      0.739866  
     106A      0.748005   107A      0.764520   108A      0.770953  
     109A      0.798422   110A      0.813516   111A      0.823471  
     112A      0.852390   113A      0.863403   114A      0.868500  
     115A      0.883325   116A      0.884537   117A      0.901267  
     118A      0.902934   119A      0.923154   120A      0.939247  
     121A      0.943435   122A      0.959828   123A      0.970989  
     124A      0.986272   125A      1.031826   126A      1.038299  
     127A      1.054810   128A      1.100060   129A      1.107202  
     130A      1.114202   131A      1.127032   132A      1.145222  
     133A      1.153120   134A      1.158209   135A      1.197653  
     136A      1.200207   137A      1.206410   138A      1.231129  
     139A      1.346603   140A      1.346796   141A      1.364845  
     142A      1.403023   143A      1.416219   144A      1.425717  
     145A      1.434610   146A      1.437889   147A      1.448580  
     148A      1.455484   149A      1.485733   150A      1.491092  
     151A      1.503647   152A      1.505676   153A      1.522161  
     154A      1.534963   155A      1.540285   156A      1.549799  
     157A      1.563416   158A      1.564342   159A      1.602111  
     160A      1.611750   161A      1.618031   162A      1.622780  
     163A      1.640008   164A      1.646460   165A      1.662510  
     166A      1.681890   167A      1.684927   168A      1.687526  
     169A      1.722041   170A      1.747162   171A      1.776646  
     172A      1.782659   173A      1.793067   174A      1.809248  
     175A      1.811182   176A      1.853476   177A      1.857713  
     178A      1.860810   179A      1.874786   180A      1.906996  
     181A      1.914684   182A      1.918229   183A      1.939231  
     184A      1.958460   185A      1.958598   186A      1.992535  
     187A      2.014882   188A      2.015526   189A      2.020544  
     190A      2.048354   191A      2.100286   192A      2.112804  
     193A      2.125200   194A      2.133936   195A      2.135329  
     196A      2.157583   197A      2.161213   198A      2.189583  
     199A      2.203584   200A      2.229330   201A      2.249668  
     202A      2.273009   203A      2.281154   204A      2.295646  
     205A      2.357074   206A      2.373212   207A      2.373897  
     208A      2.416433   209A      2.463005   210A      2.472097  
     211A      2.559260   212A      2.573695   213A      2.645963  
     214A      2.676026   215A      2.682424   216A      2.688209  
     217A      2.786822   218A      2.811571   219A      2.818423  
     220A      2.866851   221A      2.879914   222A      2.885746  
     223A      2.907955   224A      2.946389   225A      2.981337  
     226A      3.054791   227A      3.068450   228A      3.111544  
     229A      3.123869   230A      3.135522   231A      3.146604  
     232A      3.201123   233A      3.255863   234A      3.334942  
     235A      3.410577   236A      3.415616   237A      3.435999  
     238A      3.442664   239A      3.453953   240A      3.469127  
     241A      3.489943   242A      3.494155   243A      3.541205  
     244A      3.541803   245A      3.557829   246A      3.605239  
     247A      3.614501   248A      3.623254   249A      3.625346  
     250A      3.646184   251A      3.658086   252A      3.683588  
     253A      3.698289   254A      3.704827   255A      3.720931  
     256A      3.740277   257A      3.744603   258A      3.756589  
     259A      3.760472   260A      3.761270   261A      3.821801  
     262A      3.833619   263A      3.836266   264A      3.847942  
     265A      3.849225   266A      3.858735   267A      3.860780  
     268A      3.869428   269A      3.891739   270A      3.952819  
     271A      3.962683   272A      3.975047   273A      3.987867  
     274A      4.069259   275A      4.082005   276A      4.099104  
     277A      4.126834   278A      4.151132   279A      4.157112  
     280A      4.169554   281A      4.189706   282A      4.244563  
     283A      4.355427   284A      4.356517   285A      4.384270  
     286A      4.441223   287A      4.578835   288A      4.587385  
     289A      4.593582   290A      4.611618   291A      4.652183  
     292A      4.659967   293A      4.729865   294A      4.784305  
     295A      4.958716   296A      4.969549   297A      5.032606  
     298A      5.204444   299A      5.411960   300A      6.190323  
     301A      6.215068   302A      6.229345   303A      6.314751  
     304A      6.377997   305A      6.418424   306A      6.467462  
     307A      6.528839   308A      6.550966   309A      6.732197  
     310A      6.735205   311A      6.741697   312A      6.931306  
     313A      6.951664   314A      6.962595   315A      6.968050  
     316A      7.065968   317A      7.108388   318A      7.216069  
     319A      7.310579   320A      7.372535   321A      7.415242  
     322A      7.419111   323A      7.583861   324A      7.626491  
     325A      7.627668   326A      7.773424   327A      7.797545  
     328A      7.922144   329A      7.994155   330A      8.148893  
     331A      8.200876   332A      8.322624   333A      8.472904  
     334A      8.585750   335A      8.633293   336A      8.742525  
     337A      8.840111   338A      9.128198   339A      9.192167  
     340A      9.362355   341A      9.451324   342A      9.461357  
     343A      9.483326   344A      9.546241   345A      9.776565  
     346A      9.852576   347A      9.926065   348A     10.365111  
     349A     10.387274   350A     10.535978   351A     10.784812  
     352A     10.806121   353A     11.047007   354A     12.839953  
     355A     13.165212   356A     14.752849   357A     14.842123  
     358A     27.207031  

    Final Occupation by Irrep:
              A 
    DOCC [    39 ]

  @DF-RHF Final Energy: -5183.97200074937518

   => Energetics <=

    Nuclear Repulsion Energy =            354.0726508958052818
    One-Electron Energy =               -7924.4698102303718770
    Two-Electron Energy =                2386.4251585851925483
    Total Energy =                      -5183.9720007493742742

Computation Completed


Properties will be evaluated at   0.000000,   0.000000,   0.000000 [a0]

Properties computed using the SCF density matrix

  Nuclear Dipole Moment: [e a0]
     X:     0.1817      Y:     1.0951      Z:  -259.1133

  Electronic Dipole Moment: [e a0]
     X:    -0.1656      Y:    -1.0997      Z:   259.7690

  Dipole Moment: [e a0]
     X:     0.0161      Y:    -0.0045      Z:     0.6557     Total:     0.6559

  Dipole Moment: [D]
     X:     0.0409      Y:    -0.0115      Z:     1.6667     Total:     1.6672


*** tstop() called on node52.bme.utexas.edu at Sat Apr 11 16:28:01 2020
Module time:
	user time   =      42.18 seconds =       0.70 minutes
	system time =       0.95 seconds =       0.02 minutes
	total time  =         10 seconds =       0.17 minutes
Total time:
	user time   =      72.16 seconds =       1.20 minutes
	system time =       1.80 seconds =       0.03 minutes
	total time  =         17 seconds =       0.28 minutes

*** tstart() called on node52.bme.utexas.edu
*** at Sat Apr 11 16:28:01 2020


  //>>>>>>>>>>>>>>>>>>>>>>>>>>>>>>>>>>>//
  //               DFMP2               //
  //<<<<<<<<<<<<<<<<<<<<<<<<<<<<<<<<<<<//

   => Loading Basis Set <=

    Name: (AUG-CC-PVQZ AUX)
    Role: RIFIT
    Keyword: DF_BASIS_MP2
    atoms 1-2 entry BR         line  1518 file /home/liuchw/anaconda3/envs/psi4env/share/psi4/basis/aug-cc-pvqz-ri.gbs 
    atoms 3   entry C          line   184 file /home/liuchw/anaconda3/envs/psi4env/share/psi4/basis/aug-cc-pvqz-ri.gbs 
    atoms 4-5 entry H          line    30 file /home/liuchw/anaconda3/envs/psi4env/share/psi4/basis/aug-cc-pvqz-ri.gbs 

	 --------------------------------------------------------
	                          DF-MP2                         
	      2nd-Order Density-Fitted Moller-Plesset Theory     
	              RMP2 Wavefunction,   6 Threads             
	                                                         
	        Rob Parrish, Justin Turney, Andy Simmonett,      
	           Ed Hohenstein, and C. David Sherrill          
	 --------------------------------------------------------

   => Auxiliary Basis Set <=

  Basis Set: (AUG-CC-PVQZ AUX)
    Blend: AUG-CC-PVQZ-RI
    Number of shells: 180
    Number of basis function: 852
    Number of Cartesian functions: 1221
    Spherical Harmonics?: true
    Max angular momentum: 6

	 --------------------------------------------------------
	                 NBF =   358, NAUX =   852
	 --------------------------------------------------------
	   CLASS    FOCC     OCC    AOCC    AVIR     VIR    FVIR
	   PAIRS       0      39      39     319     319       0
	 --------------------------------------------------------

	-----------------------------------------------------------
	 ==================> DF-MP2 Energies <==================== 
	-----------------------------------------------------------
	 Reference Energy          =   -5183.9720007493751837 [Eh]
	 Singles Energy            =      -0.0000000000000000 [Eh]
	 Same-Spin Energy          =      -0.2842722841189732 [Eh]
	 Opposite-Spin Energy      =      -0.7133801922778387 [Eh]
	 Correlation Energy        =      -0.9976524763968119 [Eh]
	 Total Energy              =   -5184.9696532257721628 [Eh]
	-----------------------------------------------------------
	 ================> DF-SCS-MP2 Energies <================== 
	-----------------------------------------------------------
	 SCS Same-Spin Scale       =       0.3333333333333333 [-]
	 SCS Opposite-Spin Scale   =       1.2000000000000000 [-]
	 SCS Same-Spin Energy      =      -0.0947574280396577 [Eh]
	 SCS Opposite-Spin Energy  =      -0.8560562307334064 [Eh]
	 SCS Correlation Energy    =      -0.9508136587730641 [Eh]
	 SCS Total Energy          =   -5184.9228144081480423 [Eh]
	-----------------------------------------------------------


*** tstop() called on node52.bme.utexas.edu at Sat Apr 11 16:28:08 2020
Module time:
	user time   =      25.15 seconds =       0.42 minutes
	system time =       0.55 seconds =       0.01 minutes
	total time  =          7 seconds =       0.12 minutes
Total time:
	user time   =      97.31 seconds =       1.62 minutes
	system time =       2.35 seconds =       0.04 minutes
	total time  =         24 seconds =       0.40 minutes

  //>>>>>>>>>>>>>>>>>>>>>>>>>>>>>>>>>>>//
  //  CBS Results: mp2/aug-cc-pv[tq]z  //
  //<<<<<<<<<<<<<<<<<<<<<<<<<<<<<<<<<<<//


   ==> HF <==

   HI-zeta (4) Energy:               -5183.972000749374


   ==> Helgaker 2-point correlated extrapolation for method: MP2 <==

   LO-zeta (3) Energy:               -5184.735032163040
   HI-zeta (4) Energy:               -5184.969653225772
   Alpha (exponent) Value:             3.000000000000
   Extrapolated Energy:              -5185.140863190469

   @Extrapolated MP2/(T,Q):          -5185.140863190469



   ==> Helgaker 2-point correlated extrapolation for method: HF <==

   LO-zeta (3) Energy:               -5183.964164513626
   HI-zeta (4) Energy:               -5183.972000749374
   Alpha (exponent) Value:             3.000000000000
   Extrapolated Energy:              -5183.977719083569

   @Extrapolated HF/(T,Q):           -5183.977719083569


   ==> Components <==

  ---------------------------------------------------------------------------------------------------------
                          Method / Basis                      Rqd      Energy [Eh]   Variable
  ---------------------------------------------------------------------------------------------------------
                              hf / aug-cc-pvtz                  *   -5183.96416451   HF TOTAL ENERGY
                             mp2 / aug-cc-pvtz                  *   -5184.73503216   MP2 TOTAL ENERGY
                              hf / aug-cc-pvqz                  *   -5183.97200075   HF TOTAL ENERGY
                             mp2 / aug-cc-pvqz                  *   -5184.96965323   MP2 TOTAL ENERGY
  ---------------------------------------------------------------------------------------------------------

   ==> Stages <==

  ---------------------------------------------------------------------------------------------------------
      Stage               Method / Basis                       Wt      Energy [Eh]   Scheme
  ---------------------------------------------------------------------------------------------------------
        scf                   hf / aug-cc-pvqz                  1   -5183.97200075   xtpl_highest_1
       corl                  mp2 / aug-cc-pv[tq]z               1   -5185.14086319   corl_xtpl_helgaker_2
       corl                   hf / aug-cc-pv[tq]z              -1   -5183.97771908   corl_xtpl_helgaker_2
  ---------------------------------------------------------------------------------------------------------

   ==> CBS <==

  ---------------------------------------------------------------------------------------------------------
      Stage               Method / Basis                               Energy [Eh]   Scheme
  ---------------------------------------------------------------------------------------------------------
        scf                   hf / aug-cc-pvqz                      -5183.97200075   xtpl_highest_1
       corl                  mp2 / aug-cc-pv[tq]z                      -1.16314411   corl_xtpl_helgaker_2
      total                  CBS                                    -5185.13514486   
  ---------------------------------------------------------------------------------------------------------
   => Loading Basis Set <=

    Name: DEF2-SVP
    Role: ORBITAL
    Keyword: BASIS
    atoms 1-2 entry BR         line  1084 file /home/liuchw/anaconda3/envs/psi4env/share/psi4/basis/def2-svp.gbs 
    atoms 3   entry C          line    90 file /home/liuchw/anaconda3/envs/psi4env/share/psi4/basis/def2-svp.gbs 
    atoms 4-5 entry H          line    15 file /home/liuchw/anaconda3/envs/psi4env/share/psi4/basis/def2-svp.gbs 


       N-Body: Complex Energy (fragments = (2,), basis = (2,): -5185.13514485627366)

       N-Body: Computing complex (2/4) with fragments (2,) in the basis of fragments (1, 2).


Scratch directory: /scratch//

  //>>>>>>>>>>>>>>>>>>>>>>>>>>>>>>>>>>>//
  //   CBS Setup: mp2/aug-cc-pv[tq]z   //
  //<<<<<<<<<<<<<<<<<<<<<<<<<<<<<<<<<<<//

    Naive listing of computations required.
             hf / aug-cc-pvqz              for  HF TOTAL ENERGY
            mp2 / aug-cc-pvtz              for  MP2 TOTAL ENERGY
            mp2 / aug-cc-pvqz              for  MP2 TOTAL ENERGY
             hf / aug-cc-pvtz              for  HF TOTAL ENERGY
             hf / aug-cc-pvqz              for  HF TOTAL ENERGY

    Enlightened listing of computations required.
            mp2 / aug-cc-pvtz              for  MP2 TOTAL ENERGY
            mp2 / aug-cc-pvqz              for  MP2 TOTAL ENERGY

    Full listing of computations to be obtained (required and bonus).
             hf / aug-cc-pvtz              for  HF TOTAL ENERGY
            mp2 / aug-cc-pvtz              for  MP2 TOTAL ENERGY
             hf / aug-cc-pvqz              for  HF TOTAL ENERGY
            mp2 / aug-cc-pvqz              for  MP2 TOTAL ENERGY

  //>>>>>>>>>>>>>>>>>>>>>>>>>>>>>>>>>>>>//
  // CBS Computation: MP2 / AUG-CC-PVTZ //
  //<<<<<<<<<<<<<<<<<<<<<<<<<<<<<<<<<<<<//


Scratch directory: /scratch//

*** tstart() called on node52.bme.utexas.edu
*** at Sat Apr 11 16:28:09 2020

   => Loading Basis Set <=

    Name: AUG-CC-PVTZ
    Role: ORBITAL
    Keyword: BASIS
    atoms 1-2, 6-7  entry BR         line  4208 file /home/liuchw/anaconda3/envs/psi4env/share/psi4/basis/aug-cc-pvtz.gbs 
    atoms 3, 8      entry C          line   239 file /home/liuchw/anaconda3/envs/psi4env/share/psi4/basis/aug-cc-pvtz.gbs 
    atoms 4-5, 9-10 entry H          line    40 file /home/liuchw/anaconda3/envs/psi4env/share/psi4/basis/aug-cc-pvtz.gbs 


         ---------------------------------------------------------
                                   SCF
               by Justin Turney, Rob Parrish, Andy Simmonett
                          and Daniel G. A. Smith
                              RHF Reference
                        6 Threads,  38146 MiB Core
         ---------------------------------------------------------

  ==> Geometry <==

    Molecular point group: c1
    Full point group: C1

    Geometry (in Angstrom), charge = 0, multiplicity = 1:

       Center              X                  Y                   Z               Mass       
    ------------   -----------------  -----------------  -----------------  -----------------
      Gh(BR)          0.385372015387     1.548570391947     1.698368161468    78.918337600000
      Gh(BR)         -0.385361984613    -1.563737608053     1.692378161468    78.918337600000
      Gh(C)          -0.005517984613    -0.008242608053     2.749674161468    12.000000000000
      Gh(H)          -0.878119984613     0.206745391947     3.351287161468     1.007825032230
      Gh(H)           0.860764015387    -0.223892608053     3.360121161468     1.007825032230
         BR          -0.385985984613    -1.548962608053    -1.882687838532    78.918337600000
         BR           0.382401015387     1.565528391947    -1.879953838532    78.918337600000
         C            0.023933015387     0.001026391947    -0.830467838532    12.000000000000
         H            0.905105015387    -0.216875608053    -0.243566838532     1.007825032230
         H           -0.827075984613     0.210429391947    -0.198015838532     1.007825032230

  Running in c1 symmetry.

  Rotational constants: A =      0.02069  B =      0.01482  C =      0.00866 [cm^-1]
  Rotational constants: A =    620.15375  B =    444.33335  C =    259.72177 [MHz]
  Nuclear repulsion =  354.072650895805282

  Charge       = 0
  Multiplicity = 1
  Electrons    = 78
  Nalpha       = 39
  Nbeta        = 39

  ==> Algorithm <==

  SCF Algorithm Type is DF.
  DIIS enabled.
  MOM disabled.
  Fractional occupation disabled.
  Guess Type is SAD.
  Energy threshold   = 1.00e-07
  Density threshold  = 1.00e-08
  Integral threshold = 0.00e+00

  ==> Primary Basis <==

  Basis Set: AUG-CC-PVTZ
    Blend: AUG-CC-PVTZ
    Number of shells: 140
    Number of basis function: 420
    Number of Cartesian functions: 486
    Spherical Harmonics?: true
    Max angular momentum: 3

   => Loading Basis Set <=

    Name: (AUG-CC-PVTZ AUX)
    Role: JKFIT
    Keyword: DF_BASIS_SCF
    atoms 1-2, 6-7  entry BR         line  1492 file /home/liuchw/anaconda3/envs/psi4env/share/psi4/basis/aug-cc-pvtz-jkfit.gbs 
    atoms 3, 8      entry C          line   162 file /home/liuchw/anaconda3/envs/psi4env/share/psi4/basis/aug-cc-pvtz-jkfit.gbs 
    atoms 4-5, 9-10 entry H          line    70 file /home/liuchw/anaconda3/envs/psi4env/share/psi4/basis/aug-cc-pvtz-jkfit.gbs 

  ==> Pre-Iterations <==

   -------------------------------------------------------
    Irrep   Nso     Nmo     Nalpha   Nbeta   Ndocc  Nsocc
   -------------------------------------------------------
     A        420     420       0       0       0       0
   -------------------------------------------------------
    Total     420     420      39      39      39       0
   -------------------------------------------------------

  ==> Integral Setup <==

  DFHelper Memory: AOs need 1.828 GiB; user supplied 27.940 GiB. Using in-core AOs.

  ==> MemDFJK: Density-Fitted J/K Matrices <==

    J tasked:                   Yes
    K tasked:                   Yes
    wK tasked:                   No
    OpenMP threads:               6
    Memory [MiB]:             28610
    Algorithm:                 Core
    Schwarz Cutoff:           1E-12
    Mask sparsity (%):       2.6644
    Fitting Condition:        1E-10

   => Auxiliary Basis Set <=

  Basis Set: (AUG-CC-PVTZ AUX)
    Blend: AUG-CC-PVTZ-JKFIT
    Number of shells: 348
    Number of basis function: 1384
    Number of Cartesian functions: 1798
    Spherical Harmonics?: true
    Max angular momentum: 4

  Minimum eigenvalue in the overlap matrix is 4.2395685034E-05.
  Using Symmetric Orthogonalization.

  SCF Guess: Superposition of Atomic Densities via on-the-fly atomic UHF.

  ==> Iterations <==

                           Total Energy        Delta E     RMS |[F,P]|

   @DF-RHF iter SAD: -5180.36479222386697   -5.18036e+03   0.00000e+00 
   @DF-RHF iter   1: -5183.63725065567542   -3.27246e+00   3.21285e-03 DIIS
   @DF-RHF iter   2: -5183.89289574307895   -2.55645e-01   1.53032e-03 DIIS
   @DF-RHF iter   3: -5183.96258975534329   -6.96940e-02   1.07882e-04 DIIS
   @DF-RHF iter   4: -5183.96388415500041   -1.29440e-03   5.29659e-05 DIIS
   @DF-RHF iter   5: -5183.96422905583404   -3.44901e-04   9.41681e-06 DIIS
   @DF-RHF iter   6: -5183.96425589580031   -2.68400e-05   2.87593e-06 DIIS
   @DF-RHF iter   7: -5183.96425804065257   -2.14485e-06   9.52053e-07 DIIS
   @DF-RHF iter   8: -5183.96425828748033   -2.46828e-07   2.04414e-07 DIIS
   @DF-RHF iter   9: -5183.96425829845975   -1.09794e-08   3.53668e-08 DIIS
   @DF-RHF iter  10: -5183.96425829879627   -3.36513e-10   9.68993e-09 DIIS
  Energy and wave function converged.


  ==> Post-Iterations <==

    Orbital Energies [Eh]
    ---------------------

    Doubly Occupied:                                                      

       1A   -490.035428     2A   -490.035428     3A    -65.175317  
       4A    -65.175317     5A    -58.530654     6A    -58.530653  
       7A    -58.529169     8A    -58.529169     9A    -58.529133  
      10A    -58.529133    11A    -11.354825    12A     -9.848204  
      13A     -9.848200    14A     -7.460011    15A     -7.460009  
      16A     -7.452868    17A     -7.452866    18A     -7.452698  
      19A     -7.452697    20A     -3.203819    21A     -3.203793  
      22A     -3.200097    23A     -3.200095    24A     -3.199927  
      25A     -3.199925    26A     -3.190768    27A     -3.190764  
      28A     -3.190758    29A     -3.190755    30A     -1.120556  
      31A     -1.013958    32A     -0.876043    33A     -0.662937  
      34A     -0.578449    35A     -0.539836    36A     -0.431825  
      37A     -0.430000    38A     -0.414800    39A     -0.406031  

    Virtual:                                                              

      40A      0.018561    41A      0.036181    42A      0.044381  
      43A      0.045791    44A      0.057018    45A      0.061479  
      46A      0.067778    47A      0.072777    48A      0.087133  
      49A      0.093042    50A      0.103817    51A      0.107422  
      52A      0.111431    53A      0.117277    54A      0.120821  
      55A      0.125397    56A      0.127098    57A      0.128442  
      58A      0.132114    59A      0.147713    60A      0.150491  
      61A      0.151081    62A      0.163429    63A      0.165427  
      64A      0.178695    65A      0.179084    66A      0.186088  
      67A      0.186819    68A      0.220257    69A      0.223282  
      70A      0.232862    71A      0.238886    72A      0.251286  
      73A      0.272705    74A      0.274175    75A      0.284507  
      76A      0.288805    77A      0.297523    78A      0.303184  
      79A      0.306468    80A      0.325615    81A      0.339140  
      82A      0.343757    83A      0.345895    84A      0.350964  
      85A      0.351863    86A      0.360391    87A      0.362614  
      88A      0.366154    89A      0.371714    90A      0.378292  
      91A      0.378862    92A      0.392299    93A      0.405317  
      94A      0.416456    95A      0.417153    96A      0.423818  
      97A      0.429291    98A      0.433068    99A      0.439268  
     100A      0.451860   101A      0.460901   102A      0.461652  
     103A      0.462364   104A      0.472346   105A      0.484021  
     106A      0.488192   107A      0.497883   108A      0.508047  
     109A      0.523664   110A      0.523934   111A      0.527628  
     112A      0.540169   113A      0.547368   114A      0.548861  
     115A      0.566774   116A      0.577261   117A      0.582645  
     118A      0.584577   119A      0.593409   120A      0.606417  
     121A      0.608732   122A      0.621681   123A      0.627791  
     124A      0.648563   125A      0.652595   126A      0.673868  
     127A      0.674715   128A      0.684798   129A      0.692562  
     130A      0.723406   131A      0.728304   132A      0.737156  
     133A      0.748897   134A      0.783474   135A      0.785260  
     136A      0.798620   137A      0.804417   138A      0.804972  
     139A      0.819543   140A      0.838213   141A      0.842051  
     142A      0.850509   143A      0.859876   144A      0.871932  
     145A      0.898020   146A      0.906213   147A      0.927886  
     148A      0.935936   149A      0.953218   150A      0.975716  
     151A      0.989618   152A      0.992413   153A      0.993209  
     154A      0.999968   155A      1.010157   156A      1.013666  
     157A      1.028228   158A      1.032358   159A      1.032785  
     160A      1.042847   161A      1.048751   162A      1.050965  
     163A      1.058295   164A      1.069932   165A      1.072396  
     166A      1.080390   167A      1.081391   168A      1.098633  
     169A      1.111296   170A      1.111474   171A      1.134611  
     172A      1.138980   173A      1.143986   174A      1.157206  
     175A      1.170832   176A      1.183494   177A      1.185499  
     178A      1.190087   179A      1.190221   180A      1.194909  
     181A      1.200248   182A      1.228882   183A      1.232943  
     184A      1.243488   185A      1.245131   186A      1.253940  
     187A      1.260067   188A      1.265437   189A      1.267365  
     190A      1.301508   191A      1.305252   192A      1.317143  
     193A      1.322563   194A      1.354522   195A      1.358291  
     196A      1.368241   197A      1.376450   198A      1.393345  
     199A      1.394503   200A      1.399205   201A      1.407433  
     202A      1.419878   203A      1.429206   204A      1.447079  
     205A      1.450125   206A      1.455140   207A      1.464343  
     208A      1.484453   209A      1.492712   210A      1.493576  
     211A      1.513241   212A      1.528593   213A      1.530511  
     214A      1.570994   215A      1.585284   216A      1.620258  
     217A      1.630211   218A      1.634194   219A      1.640949  
     220A      1.642208   221A      1.657642   222A      1.685211  
     223A      1.699862   224A      1.732619   225A      1.747185  
     226A      1.751766   227A      1.759247   228A      1.764517  
     229A      1.782708   230A      1.796993   231A      1.812564  
     232A      1.842140   233A      1.849988   234A      1.859052  
     235A      1.884195   236A      1.933598   237A      1.949495  
     238A      1.955890   239A      1.971963   240A      1.985339  
     241A      2.003294   242A      2.023835   243A      2.034123  
     244A      2.066332   245A      2.081394   246A      2.088241  
     247A      2.116869   248A      2.158162   249A      2.166521  
     250A      2.220545   251A      2.233843   252A      2.255427  
     253A      2.275154   254A      2.278061   255A      2.284598  
     256A      2.311520   257A      2.317442   258A      2.322178  
     259A      2.347441   260A      2.360487   261A      2.376869  
     262A      2.386802   263A      2.390016   264A      2.406873  
     265A      2.407722   266A      2.431353   267A      2.436865  
     268A      2.450033   269A      2.451808   270A      2.474466  
     271A      2.475352   272A      2.490493   273A      2.491055  
     274A      2.522638   275A      2.539828   276A      2.593713  
     277A      2.599997   278A      2.603692   279A      2.619409  
     280A      2.651204   281A      2.665725   282A      2.676076  
     283A      2.729924   284A      2.736065   285A      2.775860  
     286A      2.811459   287A      2.859430   288A      2.866913  
     289A      2.989750   290A      3.019413   291A      3.134719  
     292A      3.153356   293A      3.160455   294A      3.187615  
     295A      3.268549   296A      3.288923   297A      3.292887  
     298A      3.309717   299A      3.324405   300A      3.324934  
     301A      3.326399   302A      3.354750   303A      3.361275  
     304A      3.386212   305A      3.392271   306A      3.414628  
     307A      3.431227   308A      3.435213   309A      3.452199  
     310A      3.475990   311A      3.490235   312A      3.506563  
     313A      3.516555   314A      3.537673   315A      3.544247  
     316A      3.575726   317A      3.580457   318A      3.593071  
     319A      3.622794   320A      3.631796   321A      3.654698  
     322A      3.677573   323A      3.749103   324A      3.759802  
     325A      3.773148   326A      3.842184   327A      3.932438  
     328A      3.943486   329A      3.987422   330A      4.010859  
     331A      4.019482   332A      4.059840   333A      4.087138  
     334A      4.105370   335A      4.111195   336A      4.146930  
     337A      4.193790   338A      4.243188   339A      4.245319  
     340A      4.264557   341A      4.269615   342A      4.273151  
     343A      4.306934   344A      4.333944   345A      4.378894  
     346A      4.463028   347A      4.505392   348A      4.507004  
     349A      4.526232   350A      4.541610   351A      4.659536  
     352A      4.685654   353A      4.795267   354A      4.817128  
     355A      4.858015   356A      4.887419   357A      4.908682  
     358A      4.919327   359A      4.947359   360A      4.957533  
     361A      5.001382   362A      5.096849   363A      5.160166  
     364A      5.211118   365A      5.317392   366A      5.327729  
     367A      5.358416   368A      5.360117   369A      5.367329  
     370A      5.393191   371A      5.416849   372A      5.477376  
     373A      5.618421   374A      5.649506   375A      5.772370  
     376A      5.844524   377A      5.857340   378A      5.877007  
     379A      5.916402   380A      6.095082   381A      6.140070  
     382A      6.233210   383A      6.363787   384A      6.617168  
     385A      7.047274   386A      7.348701   387A      7.720774  
     388A      7.748640   389A      8.180807   390A     10.001303  
     391A     11.333027   392A     11.440849   393A     13.621549  
     394A     13.703393   395A     13.851309   396A     14.008643  
     397A     14.217814   398A     14.620009   399A     17.273517  
     400A     26.281440   401A     26.351698   402A     26.360708  
     403A     26.362796   404A     26.364934   405A     26.380976  
     406A     26.452857   407A     26.506703   408A     26.724754  
     409A     26.733874   410A     46.696337   411A     46.767293  
     412A     49.582364   413A    138.673851   414A    138.800386  
     415A    139.050846   416A    139.287057   417A    139.584076  
     418A    140.299510   419A    712.294003   420A    712.497473  

    Final Occupation by Irrep:
              A 
    DOCC [    39 ]

  @DF-RHF Final Energy: -5183.96425829879627

   => Energetics <=

    Nuclear Repulsion Energy =            354.0726508958052818
    One-Electron Energy =               -7924.4199597937613362
    Two-Electron Energy =                2386.3830505991595601
    Total Energy =                      -5183.9642582987962669

Computation Completed


Properties will be evaluated at   0.000000,   0.000000,   0.000000 [a0]

Properties computed using the SCF density matrix

  Nuclear Dipole Moment: [e a0]
     X:     0.1817      Y:     1.0951      Z:  -259.1133

  Electronic Dipole Moment: [e a0]
     X:    -0.1656      Y:    -1.0997      Z:   259.7705

  Dipole Moment: [e a0]
     X:     0.0161      Y:    -0.0045      Z:     0.6572     Total:     0.6574

  Dipole Moment: [D]
     X:     0.0410      Y:    -0.0115      Z:     1.6705     Total:     1.6711


*** tstop() called on node52.bme.utexas.edu at Sat Apr 11 16:28:30 2020
Module time:
	user time   =      87.48 seconds =       1.46 minutes
	system time =       1.40 seconds =       0.02 minutes
	total time  =         21 seconds =       0.35 minutes
Total time:
	user time   =     186.44 seconds =       3.11 minutes
	system time =       3.79 seconds =       0.06 minutes
	total time  =         46 seconds =       0.77 minutes

*** tstart() called on node52.bme.utexas.edu
*** at Sat Apr 11 16:28:30 2020


  //>>>>>>>>>>>>>>>>>>>>>>>>>>>>>>>>>>>//
  //               DFMP2               //
  //<<<<<<<<<<<<<<<<<<<<<<<<<<<<<<<<<<<//

   => Loading Basis Set <=

    Name: (AUG-CC-PVTZ AUX)
    Role: RIFIT
    Keyword: DF_BASIS_MP2
    atoms 1-2, 6-7  entry BR         line  1248 file /home/liuchw/anaconda3/envs/psi4env/share/psi4/basis/aug-cc-pvtz-ri.gbs 
    atoms 3, 8      entry C          line   148 file /home/liuchw/anaconda3/envs/psi4env/share/psi4/basis/aug-cc-pvtz-ri.gbs 
    atoms 4-5, 9-10 entry H          line    30 file /home/liuchw/anaconda3/envs/psi4env/share/psi4/basis/aug-cc-pvtz-ri.gbs 

	 --------------------------------------------------------
	                          DF-MP2                         
	      2nd-Order Density-Fitted Moller-Plesset Theory     
	              RMP2 Wavefunction,   6 Threads             
	                                                         
	        Rob Parrish, Justin Turney, Andy Simmonett,      
	           Ed Hohenstein, and C. David Sherrill          
	 --------------------------------------------------------

   => Auxiliary Basis Set <=

  Basis Set: (AUG-CC-PVTZ AUX)
    Blend: AUG-CC-PVTZ-RI
    Number of shells: 284
    Number of basis function: 1160
    Number of Cartesian functions: 1536
    Spherical Harmonics?: true
    Max angular momentum: 5

	 --------------------------------------------------------
	                 NBF =   420, NAUX =  1160
	 --------------------------------------------------------
	   CLASS    FOCC     OCC    AOCC    AVIR     VIR    FVIR
	   PAIRS       0      39      39     381     381       0
	 --------------------------------------------------------

	-----------------------------------------------------------
	 ==================> DF-MP2 Energies <==================== 
	-----------------------------------------------------------
	 Reference Energy          =   -5183.9642582987962669 [Eh]
	 Singles Energy            =      -0.0000000000000000 [Eh]
	 Same-Spin Energy          =      -0.2192230115775864 [Eh]
	 Opposite-Spin Energy      =      -0.5572039607244159 [Eh]
	 Correlation Energy        =      -0.7764269723020023 [Eh]
	 Total Energy              =   -5184.7406852710983003 [Eh]
	-----------------------------------------------------------
	 ================> DF-SCS-MP2 Energies <================== 
	-----------------------------------------------------------
	 SCS Same-Spin Scale       =       0.3333333333333333 [-]
	 SCS Opposite-Spin Scale   =       1.2000000000000000 [-]
	 SCS Same-Spin Energy      =      -0.0730743371925288 [Eh]
	 SCS Opposite-Spin Energy  =      -0.6686447528692990 [Eh]
	 SCS Correlation Energy    =      -0.7417190900618278 [Eh]
	 SCS Total Energy          =   -5184.7059773888577183 [Eh]
	-----------------------------------------------------------


*** tstop() called on node52.bme.utexas.edu at Sat Apr 11 16:28:42 2020
Module time:
	user time   =      50.08 seconds =       0.83 minutes
	system time =       0.83 seconds =       0.01 minutes
	total time  =         12 seconds =       0.20 minutes
Total time:
	user time   =     236.53 seconds =       3.94 minutes
	system time =       4.62 seconds =       0.08 minutes
	total time  =         58 seconds =       0.97 minutes

  //>>>>>>>>>>>>>>>>>>>>>>>>>>>>>>>>>>>>//
  // CBS Computation: MP2 / AUG-CC-PVQZ //
  //<<<<<<<<<<<<<<<<<<<<<<<<<<<<<<<<<<<<//


Scratch directory: /scratch//

*** tstart() called on node52.bme.utexas.edu
*** at Sat Apr 11 16:28:43 2020

   => Loading Basis Set <=

    Name: AUG-CC-PVQZ
    Role: ORBITAL
    Keyword: BASIS
    atoms 1-2, 6-7  entry BR         line  5448 file /home/liuchw/anaconda3/envs/psi4env/share/psi4/basis/aug-cc-pvqz.gbs 
    atoms 3, 8      entry C          line   303 file /home/liuchw/anaconda3/envs/psi4env/share/psi4/basis/aug-cc-pvqz.gbs 
    atoms 4-5, 9-10 entry H          line    40 file /home/liuchw/anaconda3/envs/psi4env/share/psi4/basis/aug-cc-pvqz.gbs 


         ---------------------------------------------------------
                                   SCF
               by Justin Turney, Rob Parrish, Andy Simmonett
                          and Daniel G. A. Smith
                              RHF Reference
                        6 Threads,  38146 MiB Core
         ---------------------------------------------------------

  ==> Geometry <==

    Molecular point group: c1
    Full point group: C1

    Geometry (in Angstrom), charge = 0, multiplicity = 1:

       Center              X                  Y                   Z               Mass       
    ------------   -----------------  -----------------  -----------------  -----------------
      Gh(BR)          0.385372015387     1.548570391947     1.698368161468    78.918337600000
      Gh(BR)         -0.385361984613    -1.563737608053     1.692378161468    78.918337600000
      Gh(C)          -0.005517984613    -0.008242608053     2.749674161468    12.000000000000
      Gh(H)          -0.878119984613     0.206745391947     3.351287161468     1.007825032230
      Gh(H)           0.860764015387    -0.223892608053     3.360121161468     1.007825032230
         BR          -0.385985984613    -1.548962608053    -1.882687838532    78.918337600000
         BR           0.382401015387     1.565528391947    -1.879953838532    78.918337600000
         C            0.023933015387     0.001026391947    -0.830467838532    12.000000000000
         H            0.905105015387    -0.216875608053    -0.243566838532     1.007825032230
         H           -0.827075984613     0.210429391947    -0.198015838532     1.007825032230

  Running in c1 symmetry.

  Rotational constants: A =      0.02069  B =      0.01482  C =      0.00866 [cm^-1]
  Rotational constants: A =    620.15375  B =    444.33335  C =    259.72177 [MHz]
  Nuclear repulsion =  354.072650895805282

  Charge       = 0
  Multiplicity = 1
  Electrons    = 78
  Nalpha       = 39
  Nbeta        = 39

  ==> Algorithm <==

  SCF Algorithm Type is DF.
  DIIS enabled.
  MOM disabled.
  Fractional occupation disabled.
  Guess Type is SAD.
  Energy threshold   = 1.00e-07
  Density threshold  = 1.00e-08
  Integral threshold = 0.00e+00

  ==> Primary Basis <==

  Basis Set: AUG-CC-PVQZ
    Blend: AUG-CC-PVQZ
    Number of shells: 196
    Number of basis function: 716
    Number of Cartesian functions: 906
    Spherical Harmonics?: true
    Max angular momentum: 4

   => Loading Basis Set <=

    Name: (AUG-CC-PVQZ AUX)
    Role: JKFIT
    Keyword: DF_BASIS_SCF
    atoms 1-2, 6-7  entry BR         line  1612 file /home/liuchw/anaconda3/envs/psi4env/share/psi4/basis/aug-cc-pvqz-jkfit.gbs 
    atoms 3, 8      entry C          line   178 file /home/liuchw/anaconda3/envs/psi4env/share/psi4/basis/aug-cc-pvqz-jkfit.gbs 
    atoms 4-5, 9-10 entry H          line    70 file /home/liuchw/anaconda3/envs/psi4env/share/psi4/basis/aug-cc-pvqz-jkfit.gbs 

  ==> Pre-Iterations <==

   -------------------------------------------------------
    Irrep   Nso     Nmo     Nalpha   Nbeta   Ndocc  Nsocc
   -------------------------------------------------------
     A        716     716       0       0       0       0
   -------------------------------------------------------
    Total     716     716      39      39      39       0
   -------------------------------------------------------

  ==> Integral Setup <==

  DFHelper Memory: AOs need 6.183 GiB; user supplied 27.940 GiB. Using in-core AOs.

  ==> MemDFJK: Density-Fitted J/K Matrices <==

    J tasked:                   Yes
    K tasked:                   Yes
    wK tasked:                   No
    OpenMP threads:               6
    Memory [MiB]:             28610
    Algorithm:                 Core
    Schwarz Cutoff:           1E-12
    Mask sparsity (%):       5.6221
    Fitting Condition:        1E-10

   => Auxiliary Basis Set <=

  Basis Set: (AUG-CC-PVQZ AUX)
    Blend: AUG-CC-PVQZ-JKFIT
    Number of shells: 380
    Number of basis function: 1668
    Number of Cartesian functions: 2284
    Spherical Harmonics?: true
    Max angular momentum: 5

  Minimum eigenvalue in the overlap matrix is 6.0979741188E-06.
  Using Symmetric Orthogonalization.

  SCF Guess: Superposition of Atomic Densities via on-the-fly atomic UHF.

  ==> Iterations <==

                           Total Energy        Delta E     RMS |[F,P]|

   @DF-RHF iter SAD: -5180.33144739207910   -5.18033e+03   0.00000e+00 
   @DF-RHF iter   1: -5183.56838698735100   -3.23694e+00   2.39678e-03 DIIS
   @DF-RHF iter   2: -5183.86055155451777   -2.92165e-01   1.30976e-03 DIIS
   @DF-RHF iter   3: -5183.97047994091645   -1.09928e-01   5.92747e-05 DIIS
   @DF-RHF iter   4: -5183.97164021691060   -1.16028e-03   3.32398e-05 DIIS
   @DF-RHF iter   5: -5183.97199063448807   -3.50418e-04   6.44717e-06 DIIS
   @DF-RHF iter   6: -5183.97202456810192   -3.39336e-05   1.81834e-06 DIIS
   @DF-RHF iter   7: -5183.97202703596486   -2.46786e-06   6.19178e-07 DIIS
   @DF-RHF iter   8: -5183.97202731196285   -2.75998e-07   1.52666e-07 DIIS
   @DF-RHF iter   9: -5183.97202732908863   -1.71258e-08   2.30327e-08 DIIS
   @DF-RHF iter  10: -5183.97202732948608   -3.97449e-10   6.67601e-09 DIIS
  Energy and wave function converged.


  ==> Post-Iterations <==

    Orbital Energies [Eh]
    ---------------------

    Doubly Occupied:                                                      

       1A   -490.034071     2A   -490.034071     3A    -65.174496  
       4A    -65.174495     5A    -58.529945     6A    -58.529945  
       7A    -58.528432     8A    -58.528431     9A    -58.528395  
      10A    -58.528394    11A    -11.353158    12A     -9.847858  
      13A     -9.847854    14A     -7.459578    15A     -7.459575  
      16A     -7.452669    17A     -7.452667    18A     -7.452500  
      19A     -7.452498    20A     -3.203369    21A     -3.203342  
      22A     -3.199714    23A     -3.199710    24A     -3.199540  
      25A     -3.199538    26A     -3.190574    27A     -3.190574  
      28A     -3.190571    29A     -3.190570    30A     -1.120064  
      31A     -1.013688    32A     -0.875824    33A     -0.662813  
      34A     -0.578333    35A     -0.539667    36A     -0.431789  
      37A     -0.429983    38A     -0.414806    39A     -0.406004  

    Virtual:                                                              

      40A      0.016768    41A      0.032362    42A      0.038876  
      43A      0.039012    44A      0.051790    45A      0.055089  
      46A      0.058218    47A      0.062429    48A      0.076743  
      49A      0.079247    50A      0.089940    51A      0.092244  
      52A      0.094796    53A      0.102025    54A      0.105979  
      55A      0.106819    56A      0.107378    57A      0.110357  
      58A      0.113406    59A      0.126201    60A      0.129380  
      61A      0.131864    62A      0.141625    63A      0.144530  
      64A      0.152217    65A      0.156511    66A      0.161523  
      67A      0.162085    68A      0.189800    69A      0.192822  
      70A      0.198188    71A      0.206612    72A      0.222475  
      73A      0.227137    74A      0.232388    75A      0.244404  
      76A      0.246546    77A      0.250876    78A      0.251791  
      79A      0.261122    80A      0.275197    81A      0.283146  
      82A      0.283584    83A      0.283654    84A      0.288756  
      85A      0.291494    86A      0.301890    87A      0.306067  
      88A      0.307540    89A      0.309945    90A      0.312575  
      91A      0.320820    92A      0.321509    93A      0.330195  
      94A      0.333454    95A      0.338817    96A      0.338822  
      97A      0.339037    98A      0.348414    99A      0.353490  
     100A      0.358500   101A      0.368485   102A      0.374903  
     103A      0.377364   104A      0.381492   105A      0.387523  
     106A      0.395564   107A      0.395764   108A      0.412045  
     109A      0.412708   110A      0.419619   111A      0.425862  
     112A      0.427383   113A      0.435711   114A      0.436036  
     115A      0.444584   116A      0.460121   117A      0.464015  
     118A      0.465074   119A      0.471943   120A      0.474113  
     121A      0.477547   122A      0.491315   123A      0.500193  
     124A      0.506533   125A      0.511069   126A      0.526719  
     127A      0.526937   128A      0.536440   129A      0.545471  
     130A      0.559109   131A      0.560821   132A      0.560891  
     133A      0.566369   134A      0.574918   135A      0.589160  
     136A      0.599291   137A      0.606133   138A      0.610564  
     139A      0.625202   140A      0.625365   141A      0.628756  
     142A      0.640211   143A      0.648846   144A      0.673038  
     145A      0.679984   146A      0.682169   147A      0.698770  
     148A      0.707371   149A      0.710706   150A      0.716867  
     151A      0.721053   152A      0.741540   153A      0.745860  
     154A      0.746116   155A      0.746948   156A      0.748738  
     157A      0.755243   158A      0.758267   159A      0.766421  
     160A      0.768093   161A      0.772178   162A      0.775694  
     163A      0.786079   164A      0.794029   165A      0.795074  
     166A      0.815560   167A      0.828761   168A      0.836581  
     169A      0.837818   170A      0.843376   171A      0.846318  
     172A      0.846505   173A      0.858639   174A      0.865186  
     175A      0.869220   176A      0.878319   177A      0.881321  
     178A      0.882157   179A      0.892999   180A      0.903195  
     181A      0.906361   182A      0.907136   183A      0.913610  
     184A      0.924921   185A      0.925189   186A      0.934276  
     187A      0.936389   188A      0.953920   189A      0.962188  
     190A      0.965113   191A      0.983715   192A      0.988277  
     193A      0.996807   194A      1.002913   195A      1.003160  
     196A      1.005345   197A      1.006853   198A      1.020274  
     199A      1.033270   200A      1.034930   201A      1.043012  
     202A      1.051363   203A      1.059578   204A      1.062082  
     205A      1.068800   206A      1.073118   207A      1.073965  
     208A      1.090123   209A      1.091066   210A      1.096321  
     211A      1.123324   212A      1.127812   213A      1.131887  
     214A      1.137168   215A      1.139666   216A      1.155380  
     217A      1.167008   218A      1.186081   219A      1.196901  
     220A      1.212277   221A      1.220261   222A      1.227806  
     223A      1.251579   224A      1.258747   225A      1.259207  
     226A      1.263490   227A      1.283291   228A      1.287438  
     229A      1.298451   230A      1.303158   231A      1.320744  
     232A      1.325403   233A      1.330084   234A      1.333358  
     235A      1.341615   236A      1.360407   237A      1.392418  
     238A      1.393803   239A      1.400086   240A      1.410698  
     241A      1.416266   242A      1.433955   243A      1.462916  
     244A      1.469212   245A      1.471951   246A      1.476919  
     247A      1.491232   248A      1.495482   249A      1.498193  
     250A      1.512642   251A      1.512836   252A      1.527986  
     253A      1.541033   254A      1.544121   255A      1.559807  
     256A      1.572890   257A      1.581997   258A      1.592415  
     259A      1.593224   260A      1.601570   261A      1.604430  
     262A      1.609504   263A      1.629986   264A      1.647795  
     265A      1.660162   266A      1.670010   267A      1.674793  
     268A      1.676645   269A      1.680872   270A      1.681094  
     271A      1.684144   272A      1.705439   273A      1.710416  
     274A      1.712503   275A      1.730275   276A      1.735754  
     277A      1.749398   278A      1.753082   279A      1.771458  
     280A      1.774461   281A      1.783815   282A      1.786783  
     283A      1.787572   284A      1.800408   285A      1.806734  
     286A      1.807726   287A      1.820227   288A      1.842418  
     289A      1.850664   290A      1.860489   291A      1.866052  
     292A      1.885170   293A      1.887083   294A      1.905541  
     295A      1.917956   296A      1.923606   297A      1.925902  
     298A      1.929831   299A      1.939869   300A      1.942235  
     301A      1.951632   302A      1.963006   303A      1.967799  
     304A      1.976498   305A      1.979821   306A      1.983456  
     307A      1.986649   308A      1.992601   309A      2.007382  
     310A      2.017777   311A      2.024265   312A      2.026569  
     313A      2.038449   314A      2.043535   315A      2.048008  
     316A      2.052334   317A      2.058212   318A      2.060207  
     319A      2.077590   320A      2.078544   321A      2.081783  
     322A      2.092342   323A      2.101115   324A      2.108580  
     325A      2.110650   326A      2.119182   327A      2.125541  
     328A      2.133806   329A      2.155234   330A      2.163688  
     331A      2.165899   332A      2.171601   333A      2.177166  
     334A      2.188652   335A      2.193091   336A      2.196154  
     337A      2.204592   338A      2.217650   339A      2.219401  
     340A      2.219616   341A      2.231073   342A      2.248558  
     343A      2.258983   344A      2.260550   345A      2.265876  
     346A      2.292826   347A      2.294686   348A      2.305299  
     349A      2.319606   350A      2.327898   351A      2.343263  
     352A      2.351361   353A      2.355859   354A      2.365168  
     355A      2.372357   356A      2.374850   357A      2.384047  
     358A      2.401017   359A      2.404086   360A      2.407237  
     361A      2.419636   362A      2.441981   363A      2.455585  
     364A      2.460299   365A      2.462696   366A      2.471259  
     367A      2.490313   368A      2.502791   369A      2.513414  
     370A      2.520915   371A      2.555235   372A      2.560773  
     373A      2.562744   374A      2.579805   375A      2.587135  
     376A      2.604205   377A      2.607819   378A      2.632053  
     379A      2.642797   380A      2.661321   381A      2.705179  
     382A      2.719651   383A      2.721497   384A      2.731322  
     385A      2.749883   386A      2.750368   387A      2.756962  
     388A      2.761118   389A      2.780525   390A      2.785042  
     391A      2.816528   392A      2.837036   393A      2.841942  
     394A      2.895160   395A      2.898705   396A      2.922167  
     397A      2.929105   398A      2.944294   399A      2.984574  
     400A      2.998980   401A      3.005012   402A      3.055906  
     403A      3.060146   404A      3.083323   405A      3.086073  
     406A      3.100542   407A      3.117310   408A      3.132599  
     409A      3.143260   410A      3.176436   411A      3.180651  
     412A      3.185827   413A      3.189651   414A      3.213967  
     415A      3.216189   416A      3.235975   417A      3.256948  
     418A      3.284566   419A      3.325339   420A      3.369750  
     421A      3.373310   422A      3.379597   423A      3.388710  
     424A      3.392331   425A      3.411080   426A      3.419856  
     427A      3.428871   428A      3.443675   429A      3.457651  
     430A      3.487902   431A      3.492979   432A      3.494991  
     433A      3.496381   434A      3.507539   435A      3.516326  
     436A      3.524402   437A      3.540727   438A      3.566050  
     439A      3.597861   440A      3.602977   441A      3.615931  
     442A      3.621608   443A      3.631619   444A      3.641794  
     445A      3.654330   446A      3.669108   447A      3.686368  
     448A      3.693672   449A      3.702289   450A      3.717626  
     451A      3.717964   452A      3.718744   453A      3.740428  
     454A      3.749087   455A      3.759397   456A      3.760733  
     457A      3.760818   458A      3.795307   459A      3.801368  
     460A      3.802331   461A      3.809741   462A      3.821503  
     463A      3.859760   464A      3.864325   465A      3.877798  
     466A      3.881484   467A      3.907676   468A      3.919096  
     469A      3.927401   470A      3.933314   471A      3.944126  
     472A      3.944547   473A      3.945818   474A      3.948593  
     475A      3.995062   476A      4.012671   477A      4.015291  
     478A      4.036631   479A      4.060955   480A      4.096184  
     481A      4.098013   482A      4.117400   483A      4.141627  
     484A      4.149730   485A      4.174133   486A      4.176403  
     487A      4.203765   488A      4.211934   489A      4.213050  
     490A      4.243380   491A      4.276382   492A      4.321337  
     493A      4.327853   494A      4.333648   495A      4.363311  
     496A      4.370049   497A      4.384557   498A      4.414371  
[...]
     247A      1.087733   248A      1.104384   249A      1.115581  
     250A      1.120114   251A      1.138059   252A      1.141291  
     253A      1.146522   254A      1.154680   255A      1.156342  
     256A      1.159993   257A      1.163943   258A      1.191143  
     259A      1.191735   260A      1.199920   261A      1.200257  
     262A      1.206683   263A      1.215883   264A      1.219869  
     265A      1.228157   266A      1.238353   267A      1.244772  
     268A      1.267987   269A      1.271561   270A      1.272584  
     271A      1.274042   272A      1.282646   273A      1.292044  
     274A      1.343748   275A      1.372834   276A      1.375509  
     277A      1.390074   278A      1.398871   279A      1.405999  
     280A      1.414204   281A      1.431976   282A      1.441040  
     283A      1.442536   284A      1.445969   285A      1.460984  
     286A      1.474623   287A      1.480392   288A      1.498418  
     289A      1.499963   290A      1.502635   291A      1.513947  
     292A      1.515818   293A      1.520683   294A      1.524852  
     295A      1.526028   296A      1.545052   297A      1.554049  
     298A      1.561370   299A      1.564454   300A      1.573555  
     301A      1.580512   302A      1.593619   303A      1.596005  
     304A      1.602222   305A      1.607123   306A      1.624664  
     307A      1.632464   308A      1.634243   309A      1.636665  
     310A      1.637775   311A      1.648980   312A      1.657701  
     313A      1.665587   314A      1.679399   315A      1.684336  
     316A      1.695491   317A      1.696184   318A      1.700336  
     319A      1.706897   320A      1.727048   321A      1.728584  
     322A      1.738531   323A      1.744219   324A      1.767695  
     325A      1.769354   326A      1.775282   327A      1.779523  
     328A      1.780890   329A      1.794053   330A      1.797785  
     331A      1.798709   332A      1.805566   333A      1.805849  
     334A      1.809976   335A      1.830112   336A      1.841166  
     337A      1.843871   338A      1.844631   339A      1.851901  
     340A      1.864416   341A      1.872473   342A      1.881032  
     343A      1.889036   344A      1.900371   345A      1.905042  
     346A      1.905971   347A      1.908959   348A      1.934975  
     349A      1.942992   350A      1.957612   351A      1.958701  
     352A      1.963008   353A      1.971177   354A      1.976410  
     355A      1.985066   356A      1.991479   357A      1.991651  
     358A      2.009214   359A      2.013801   360A      2.014636  
     361A      2.015671   362A      2.020216   363A      2.040877  
     364A      2.056030   365A      2.067774   366A      2.078659  
     367A      2.086266   368A      2.089875   369A      2.093097  
     370A      2.098473   371A      2.122260   372A      2.130481  
     373A      2.132700   374A      2.140622   375A      2.143269  
     376A      2.147469   377A      2.161813   378A      2.169076  
     379A      2.183275   380A      2.191249   381A      2.194764  
     382A      2.198523   383A      2.215953   384A      2.225505  
     385A      2.228392   386A      2.231186   387A      2.238294  
     388A      2.284691   389A      2.289083   390A      2.298393  
     391A      2.305307   392A      2.327758   393A      2.328292  
     394A      2.329597   395A      2.339455   396A      2.350012  
     397A      2.365766   398A      2.386190   399A      2.387186  
     400A      2.396140   401A      2.404373   402A      2.405780  
     403A      2.406481   404A      2.429467   405A      2.435989  
     406A      2.447049   407A      2.448597   408A      2.500270  
     409A      2.504973   410A      2.509160   411A      2.527700  
     412A      2.534038   413A      2.548733   414A      2.580232  
     415A      2.586650   416A      2.609470   417A      2.654996  
     418A      2.673951   419A      2.678223   420A      2.686170  
     421A      2.699171   422A      2.701402   423A      2.702980  
     424A      2.720237   425A      2.739868   426A      2.751635  
     427A      2.765770   428A      2.788008   429A      2.846976  
     430A      2.853407   431A      2.854132   432A      2.860823  
     433A      2.880141   434A      2.882979   435A      2.896422  
     436A      2.923084   437A      2.927497   438A      2.949785  
     439A      2.957353   440A      3.000772   441A      3.015532  
     442A      3.029322   443A      3.033111   444A      3.037826  
     445A      3.040640   446A      3.064726   447A      3.075684  
     448A      3.102482   449A      3.116767   450A      3.121271  
     451A      3.128860   452A      3.139646   453A      3.167674  
     454A      3.178566   455A      3.184045   456A      3.194503  
     457A      3.225523   458A      3.234910   459A      3.240067  
     460A      3.291061   461A      3.308487   462A      3.311080  
     463A      3.333079   464A      3.349076   465A      3.366840  
     466A      3.388611   467A      3.440726   468A      3.443802  
     469A      3.453413   470A      3.484531   471A      3.495255  
     472A      3.497515   473A      3.499596   474A      3.503981  
     475A      3.512541   476A      3.528178   477A      3.529854  
     478A      3.543939   479A      3.563172   480A      3.569542  
     481A      3.582335   482A      3.588129   483A      3.591267  
     484A      3.611441   485A      3.615965   486A      3.621830  
     487A      3.623050   488A      3.624998   489A      3.644265  
     490A      3.650397   491A      3.669376   492A      3.673424  
     493A      3.689566   494A      3.696751   495A      3.700161  
     496A      3.710505   497A      3.712458   498A      3.719141  
     499A      3.750646   500A      3.755334   501A      3.757128  
     502A      3.765500   503A      3.766812   504A      3.776559  
     505A      3.778017   506A      3.778960   507A      3.786331  
     508A      3.791045   509A      3.792053   510A      3.805332  
     511A      3.822497   512A      3.830762   513A      3.832963  
     514A      3.833914   515A      3.847802   516A      3.868154  
     517A      3.886192   518A      3.888891   519A      3.897472  
     520A      3.900109   521A      3.909828   522A      3.919230  
     523A      3.926497   524A      3.935248   525A      3.940166  
     526A      3.941878   527A      3.957339   528A      3.961633  
     529A      3.992378   530A      3.996277   531A      4.010079  
     532A      4.014789   533A      4.016604   534A      4.029643  
     535A      4.041575   536A      4.053955   537A      4.060504  
     538A      4.066051   539A      4.098477   540A      4.111843  
     541A      4.135227   542A      4.136295   543A      4.146042  
     544A      4.158041   545A      4.173952   546A      4.179266  
     547A      4.193212   548A      4.201510   549A      4.227293  
     550A      4.228362   551A      4.255860   552A      4.261482  
     553A      4.267105   554A      4.292580   555A      4.323372  
     556A      4.331221   557A      4.346853   558A      4.353084  
     559A      4.388997   560A      4.400344   561A      4.435436  
     562A      4.439068   563A      4.454721   564A      4.458790  
     565A      4.463459   566A      4.480472   567A      4.502311  
     568A      4.506353   569A      4.555750   570A      4.556808  
     571A      4.587796   572A      4.616335   573A      4.644714  
     574A      4.652188   575A      4.658451   576A      4.682144  
     577A      4.697957   578A      4.714930   579A      4.719664  
     580A      4.750502   581A      4.751852   582A      4.767636  
     583A      4.798673   584A      4.828021   585A      4.845297  
     586A      4.947897   587A      4.988916   588A      5.023305  
     589A      5.034580   590A      5.089177   591A      5.121700  
     592A      5.135005   593A      5.143705   594A      5.178073  
     595A      5.256286   596A      5.451793   597A      5.488919  
     598A      5.639128   599A      6.206202   600A      6.215050  
     601A      6.246355   602A      6.250738   603A      6.349847  
     604A      6.356538   605A      6.383570   606A      6.409616  
     607A      6.434289   608A      6.468709   609A      6.472269  
     610A      6.474983   611A      6.535180   612A      6.557476  
     613A      6.590017   614A      6.672908   615A      6.731305  
     616A      6.738110   617A      6.745089   618A      6.785343  
     619A      6.823698   620A      6.859733   621A      6.940586  
     622A      6.960563   623A      6.966423   624A      6.987668  
     625A      6.996916   626A      7.045685   627A      7.052760  
     628A      7.064840   629A      7.076194   630A      7.113432  
     631A      7.141844   632A      7.148248   633A      7.221013  
     634A      7.268139   635A      7.280134   636A      7.287484  
     637A      7.358994   638A      7.407148   639A      7.432464  
     640A      7.443606   641A      7.467647   642A      7.498001  
     643A      7.565367   644A      7.624674   645A      7.635431  
     646A      7.669967   647A      7.690526   648A      7.739374  
     649A      7.750781   650A      7.778174   651A      7.830347  
     652A      7.864397   653A      7.907225   654A      7.999857  
     655A      8.014741   656A      8.028262   657A      8.058524  
     658A      8.097285   659A      8.164730   660A      8.214726  
     661A      8.300439   662A      8.336730   663A      8.371206  
     664A      8.490485   665A      8.564002   666A      8.580518  
     667A      8.619731   668A      8.687864   669A      8.733878  
     670A      8.737365   671A      8.767028   672A      8.808444  
     673A      8.897230   674A      8.956998   675A      9.130566  
     676A      9.187289   677A      9.195039   678A      9.377483  
     679A      9.423589   680A      9.462803   681A      9.466390  
     682A      9.485871   683A      9.535497   684A      9.541038  
     685A      9.552159   686A      9.577234   687A      9.646843  
     688A      9.692457   689A      9.790568   690A      9.859194  
     691A      9.949013   692A      9.951784   693A      9.979636  
     694A     10.017543   695A     10.378242   696A     10.380832  
     697A     10.416206   698A     10.437888   699A     10.519472  
     700A     10.552814   701A     10.813234   702A     10.823027  
     703A     10.868340   704A     10.974699   705A     11.039020  
     706A     11.094807   707A     12.918061   708A     13.057560  
     709A     13.205178   710A     13.261476   711A     15.031814  
     712A     15.349765   713A     15.382239   714A     15.429980  
     715A     27.233969   716A     27.333044  

    Final Occupation by Irrep:
              A 
    DOCC [    78 ]

  @DF-RHF Final Energy: -10367.91796071905082

   => Energetics <=

    Nuclear Repulsion Energy =           1510.8527349502771813
    One-Electron Energy =              -17454.2518650851343409
    Two-Electron Energy =                5575.4811694158061073
    Total Energy =                     -10367.9179607190526440

Computation Completed


Properties will be evaluated at   0.000000,   0.000000,   0.000000 [a0]

Properties computed using the SCF density matrix

  Nuclear Dipole Moment: [e a0]
     X:     0.0870      Y:    -0.0339      Z:     9.0116

  Electronic Dipole Moment: [e a0]
     X:    -0.0748      Y:     0.0279      Z:    -7.5432

  Dipole Moment: [e a0]
     X:     0.0122      Y:    -0.0060      Z:     1.4684     Total:     1.4685

  Dipole Moment: [D]
     X:     0.0311      Y:    -0.0153      Z:     3.7324     Total:     3.7325


*** tstop() called on node52.bme.utexas.edu at Sat Apr 11 16:34:30 2020
Module time:
	user time   =     314.72 seconds =       5.25 minutes
	system time =       4.46 seconds =       0.07 minutes
	total time  =         64 seconds =       1.07 minutes
Total time:
	user time   =    1792.09 seconds =      29.87 minutes
	system time =      28.84 seconds =       0.48 minutes
	total time  =        406 seconds =       6.77 minutes

*** tstart() called on node52.bme.utexas.edu
*** at Sat Apr 11 16:34:30 2020


  //>>>>>>>>>>>>>>>>>>>>>>>>>>>>>>>>>>>//
  //               DFMP2               //
  //<<<<<<<<<<<<<<<<<<<<<<<<<<<<<<<<<<<//

   => Loading Basis Set <=

    Name: (AUG-CC-PVQZ AUX)
    Role: RIFIT
    Keyword: DF_BASIS_MP2
    atoms 1-2, 6-7  entry BR         line  1518 file /home/liuchw/anaconda3/envs/psi4env/share/psi4/basis/aug-cc-pvqz-ri.gbs 
    atoms 3, 8      entry C          line   184 file /home/liuchw/anaconda3/envs/psi4env/share/psi4/basis/aug-cc-pvqz-ri.gbs 
    atoms 4-5, 9-10 entry H          line    30 file /home/liuchw/anaconda3/envs/psi4env/share/psi4/basis/aug-cc-pvqz-ri.gbs 

	 --------------------------------------------------------
	                          DF-MP2                         
	      2nd-Order Density-Fitted Moller-Plesset Theory     
	              RMP2 Wavefunction,   6 Threads             
	                                                         
	        Rob Parrish, Justin Turney, Andy Simmonett,      
	           Ed Hohenstein, and C. David Sherrill          
	 --------------------------------------------------------

   => Auxiliary Basis Set <=

  Basis Set: (AUG-CC-PVQZ AUX)
    Blend: AUG-CC-PVQZ-RI
    Number of shells: 360
    Number of basis function: 1704
    Number of Cartesian functions: 2442
    Spherical Harmonics?: true
    Max angular momentum: 6

	 --------------------------------------------------------
	                 NBF =   716, NAUX =  1704
	 --------------------------------------------------------
	   CLASS    FOCC     OCC    AOCC    AVIR     VIR    FVIR
	   PAIRS       0      78      78     638     638       0
	 --------------------------------------------------------

	-----------------------------------------------------------
	 ==================> DF-MP2 Energies <==================== 
	-----------------------------------------------------------
	 Reference Energy          =  -10367.9179607190508250 [Eh]
	 Singles Energy            =      -0.0000000000000000 [Eh]
	 Same-Spin Energy          =      -0.5826513224203486 [Eh]
	 Opposite-Spin Energy      =      -1.4453165381626951 [Eh]
	 Correlation Energy        =      -2.0279678605830438 [Eh]
	 Total Energy              =  -10369.9459285796347103 [Eh]
	-----------------------------------------------------------
	 ================> DF-SCS-MP2 Energies <================== 
	-----------------------------------------------------------
	 SCS Same-Spin Scale       =       0.3333333333333333 [-]
	 SCS Opposite-Spin Scale   =       1.2000000000000000 [-]
	 SCS Same-Spin Energy      =      -0.1942171074734495 [Eh]
	 SCS Opposite-Spin Energy  =      -1.7343798457952342 [Eh]
	 SCS Correlation Energy    =      -1.9285969532686837 [Eh]
	 SCS Total Energy          =  -10369.8465576723192498 [Eh]
	-----------------------------------------------------------


*** tstop() called on node52.bme.utexas.edu at Sat Apr 11 16:35:34 2020
Module time:
	user time   =     310.14 seconds =       5.17 minutes
	system time =       3.16 seconds =       0.05 minutes
	total time  =         64 seconds =       1.07 minutes
Total time:
	user time   =    2102.23 seconds =      35.04 minutes
	system time =      32.00 seconds =       0.53 minutes
	total time  =        470 seconds =       7.83 minutes

  //>>>>>>>>>>>>>>>>>>>>>>>>>>>>>>>>>>>//
  //  CBS Results: mp2/aug-cc-pv[tq]z  //
  //<<<<<<<<<<<<<<<<<<<<<<<<<<<<<<<<<<<//


   ==> HF <==

   HI-zeta (4) Energy:               -10367.917960719053


   ==> Helgaker 2-point correlated extrapolation for method: MP2 <==

   LO-zeta (3) Energy:               -10369.480378038150
   HI-zeta (4) Energy:               -10369.945928579635
   Alpha (exponent) Value:             3.000000000000
   Extrapolated Energy:              -10370.285654650448

   @Extrapolated MP2/(T,Q):          -10370.285654650448



   ==> Helgaker 2-point correlated extrapolation for method: HF <==

   LO-zeta (3) Energy:               -10367.902435776279
   HI-zeta (4) Energy:               -10367.917960719053
   Alpha (exponent) Value:             3.000000000000
   Extrapolated Energy:              -10367.929289731346

   @Extrapolated HF/(T,Q):           -10367.929289731346


   ==> Components <==

  ---------------------------------------------------------------------------------------------------------
                          Method / Basis                      Rqd      Energy [Eh]   Variable
  ---------------------------------------------------------------------------------------------------------
                              hf / aug-cc-pvtz                  *  -10367.90243578   HF TOTAL ENERGY
                             mp2 / aug-cc-pvtz                  *  -10369.48037804   MP2 TOTAL ENERGY
                              hf / aug-cc-pvqz                  *  -10367.91796072   HF TOTAL ENERGY
                             mp2 / aug-cc-pvqz                  *  -10369.94592858   MP2 TOTAL ENERGY
  ---------------------------------------------------------------------------------------------------------

   ==> Stages <==

  ---------------------------------------------------------------------------------------------------------
      Stage               Method / Basis                       Wt      Energy [Eh]   Scheme
  ---------------------------------------------------------------------------------------------------------
        scf                   hf / aug-cc-pvqz                  1  -10367.91796072   xtpl_highest_1
       corl                  mp2 / aug-cc-pv[tq]z               1  -10370.28565465   corl_xtpl_helgaker_2
       corl                   hf / aug-cc-pv[tq]z              -1  -10367.92928973   corl_xtpl_helgaker_2
  ---------------------------------------------------------------------------------------------------------

   ==> CBS <==

  ---------------------------------------------------------------------------------------------------------
      Stage               Method / Basis                               Energy [Eh]   Scheme
  ---------------------------------------------------------------------------------------------------------
        scf                   hf / aug-cc-pvqz                     -10367.91796072   xtpl_highest_1
       corl                  mp2 / aug-cc-pv[tq]z                      -2.35636492   corl_xtpl_helgaker_2
      total                  CBS                                   -10370.27432564   
  ---------------------------------------------------------------------------------------------------------
   => Loading Basis Set <=

    Name: DEF2-SVP
    Role: ORBITAL
    Keyword: BASIS
    atoms 1-2, 6-7  entry BR         line  1084 file /home/liuchw/anaconda3/envs/psi4env/share/psi4/basis/def2-svp.gbs 
    atoms 3, 8      entry C          line    90 file /home/liuchw/anaconda3/envs/psi4env/share/psi4/basis/def2-svp.gbs 
    atoms 4-5, 9-10 entry H          line    15 file /home/liuchw/anaconda3/envs/psi4env/share/psi4/basis/def2-svp.gbs 


       N-Body: Complex Energy (fragments = (1, 2), basis = (1, 2): -10370.27432563815455)

   ==> N-Body: Counterpoise Corrected (CP) energies <==

   n-Body     Total Energy [Eh]       I.E. [kcal/mol]      Delta [kcal/mol]
        1   -10370.270264857492        0.000000000000        0.000000000000
        2   -10370.267367349923        1.818213450070        1.818213450070

   => Loading Basis Set <=

    Name: DEF2-SVP
    Role: ORBITAL
    Keyword: BASIS
    atoms 1-2, 6-7  entry BR         line  1084 file /home/liuchw/anaconda3/envs/psi4env/share/psi4/basis/def2-svp.gbs 
    atoms 3, 8      entry C          line    90 file /home/liuchw/anaconda3/envs/psi4env/share/psi4/basis/def2-svp.gbs 
    atoms 4-5, 9-10 entry H          line    15 file /home/liuchw/anaconda3/envs/psi4env/share/psi4/basis/def2-svp.gbs 


    Psi4 stopped on: Saturday, 11 April 2020 04:35PM
    Psi4 wall time for execution: 0:07:51.11

*** Psi4 exiting successfully. Buy a developer a beer!
