
    -----------------------------------------------------------------------
          Psi4: An Open-Source Ab Initio Electronic Structure Package
                               Psi4 1.4a2.dev224 

                         Git: Rev {master} e453b16 


    R. M. Parrish, L. A. Burns, D. G. A. Smith, A. C. Simmonett,
    A. E. DePrince III, E. G. Hohenstein, U. Bozkaya, A. Yu. Sokolov,
    R. Di Remigio, R. M. Richard, J. F. Gonthier, A. M. James,
    H. R. McAlexander, A. Kumar, M. Saitow, X. Wang, B. P. Pritchard,
    P. Verma, H. F. Schaefer III, K. Patkowski, R. A. King, E. F. Valeev,
    F. A. Evangelista, J. M. Turney, T. D. Crawford, and C. D. Sherrill,
    J. Chem. Theory Comput. 13(7) pp 3185--3197 (2017).
    (doi: 10.1021/acs.jctc.7b00174)


                         Additional Contributions by
    P. Kraus, H. Kruse, M. H. Lechner, M. C. Schieber, R. A. Shaw,
    A. Alenaizan, R. Galvelis, Z. L. Glick, S. Lehtola, and J. P. Misiewicz

    -----------------------------------------------------------------------


    Psi4 started on: Saturday, 11 April 2020 04:30PM

    Process ID: 18971
    Host:       node37.bme.utexas.edu
    PSIDATADIR: /home/liuchw/anaconda3/envs/psi4env/share/psi4
    Memory:     500.0 MiB
    Threads:    6
    
  ==> Input File <==

--------------------------------------------------------------------------
#Generated by lconvert.py for cbs job

memory 40 GB

molecule  {
1 1
  N       -0.6350970    -0.2416010     0.2731620
  H       -0.7015940    -1.1891620     0.6412360
  H       -1.1712720    -0.2180970    -0.5927110
  H        0.3654370    -0.0499530     0.0431460
  C       -1.1527530     0.7582030     1.2570020
  H       -1.0606550     1.7447240     0.8189950
  H       -2.1901300     0.5363150     1.4772400
  H       -0.5517780     0.6926060     2.1559360
--
0 1
  O        1.9891620     0.3989450    -0.2216850
  H        2.3345090     0.9460460    -0.9334240
  H        2.7707170     0.0443190     0.2125590
units angstrom
no_reorient
symmetry c1
}

set {
scf_type DF
mp2_type DF
e_convergence 7
reference rhf
}

energy('mp2/aug-cc-pv[tq]z', bsse_type='cp')
--------------------------------------------------------------------------

  Memory set to  37.253 GiB by Python driver.

Scratch directory: /scratch//


   ===> N-Body Interaction Abacus <===
        BSSE Treatment:                     cp
        Number of 1-body computations:     4
        Number of 2-body computations:     1

   ==> N-Body: Now computing 1-body complexes <==


       N-Body: Computing complex (1/4) with fragments (2,) in the basis of fragments (2,).


Scratch directory: /scratch//

  //>>>>>>>>>>>>>>>>>>>>>>>>>>>>>>>>>>>//
  //   CBS Setup: mp2/aug-cc-pv[tq]z   //
  //<<<<<<<<<<<<<<<<<<<<<<<<<<<<<<<<<<<//

    Naive listing of computations required.
             hf / aug-cc-pvqz              for  HF TOTAL ENERGY
            mp2 / aug-cc-pvtz              for  MP2 TOTAL ENERGY
            mp2 / aug-cc-pvqz              for  MP2 TOTAL ENERGY
             hf / aug-cc-pvtz              for  HF TOTAL ENERGY
             hf / aug-cc-pvqz              for  HF TOTAL ENERGY

    Enlightened listing of computations required.
            mp2 / aug-cc-pvtz              for  MP2 TOTAL ENERGY
            mp2 / aug-cc-pvqz              for  MP2 TOTAL ENERGY

    Full listing of computations to be obtained (required and bonus).
             hf / aug-cc-pvtz              for  HF TOTAL ENERGY
            mp2 / aug-cc-pvtz              for  MP2 TOTAL ENERGY
             hf / aug-cc-pvqz              for  HF TOTAL ENERGY
            mp2 / aug-cc-pvqz              for  MP2 TOTAL ENERGY

  //>>>>>>>>>>>>>>>>>>>>>>>>>>>>>>>>>>>>//
  // CBS Computation: MP2 / AUG-CC-PVTZ //
  //<<<<<<<<<<<<<<<<<<<<<<<<<<<<<<<<<<<<//


Scratch directory: /scratch//

*** tstart() called on node37.bme.utexas.edu
*** at Sat Apr 11 16:30:15 2020

   => Loading Basis Set <=

    Name: AUG-CC-PVTZ
    Role: ORBITAL
    Keyword: BASIS
    atoms 1   entry O          line   331 file /home/liuchw/anaconda3/envs/psi4env/share/psi4/basis/aug-cc-pvtz.gbs 
    atoms 2-3 entry H          line    40 file /home/liuchw/anaconda3/envs/psi4env/share/psi4/basis/aug-cc-pvtz.gbs 


         ---------------------------------------------------------
                                   SCF
               by Justin Turney, Rob Parrish, Andy Simmonett
                          and Daniel G. A. Smith
                              RHF Reference
                        6 Threads,  38146 MiB Core
         ---------------------------------------------------------

  ==> Geometry <==

    Molecular point group: c1
    Full point group: C1

    Geometry (in Angstrom), charge = 0, multiplicity = 1:

       Center              X                  Y                   Z               Mass       
    ------------   -----------------  -----------------  -----------------  -----------------
         O            1.811701807034     0.106843276226    -0.605543668090    15.994914619570
         H            2.157048807034     0.653944276226    -1.317282668090     1.007825032230
         H            2.593256807034    -0.247782723774    -0.171299668090     1.007825032230

  Running in c1 symmetry.

  Rotational constants: A =     14.31257  B =      0.23704  C =      0.23324 [cm^-1]
  Rotational constants: A = 429080.17601  B =   7106.21337  C =   6992.45728 [MHz]
  Nuclear repulsion =    9.150325433031009

  Charge       = 0
  Multiplicity = 1
  Electrons    = 10
  Nalpha       = 5
  Nbeta        = 5

  ==> Algorithm <==

  SCF Algorithm Type is DF.
  DIIS enabled.
  MOM disabled.
  Fractional occupation disabled.
  Guess Type is SAD.
  Energy threshold   = 1.00e-07
  Density threshold  = 1.00e-08
  Integral threshold = 0.00e+00

  ==> Primary Basis <==

  Basis Set: AUG-CC-PVTZ
    Blend: AUG-CC-PVTZ
    Number of shells: 32
    Number of basis function: 92
    Number of Cartesian functions: 105
    Spherical Harmonics?: true
    Max angular momentum: 3

   => Loading Basis Set <=

    Name: (AUG-CC-PVTZ AUX)
    Role: JKFIT
    Keyword: DF_BASIS_SCF
    atoms 1   entry O          line   286 file /home/liuchw/anaconda3/envs/psi4env/share/psi4/basis/aug-cc-pvtz-jkfit.gbs 
    atoms 2-3 entry H          line    70 file /home/liuchw/anaconda3/envs/psi4env/share/psi4/basis/aug-cc-pvtz-jkfit.gbs 

  ==> Pre-Iterations <==

   -------------------------------------------------------
    Irrep   Nso     Nmo     Nalpha   Nbeta   Ndocc  Nsocc
   -------------------------------------------------------
     A         92      92       0       0       0       0
   -------------------------------------------------------
    Total      92      92       5       5       5       0
   -------------------------------------------------------

  ==> Integral Setup <==

  DFHelper Memory: AOs need 0.015 GiB; user supplied 27.940 GiB. Using in-core AOs.

  ==> MemDFJK: Density-Fitted J/K Matrices <==

    J tasked:                   Yes
    K tasked:                   Yes
    wK tasked:                   No
    OpenMP threads:               6
    Memory [MiB]:             28610
    Algorithm:                 Core
    Schwarz Cutoff:           1E-12
    Mask sparsity (%):       0.0000
    Fitting Condition:        1E-10

   => Auxiliary Basis Set <=

  Basis Set: (AUG-CC-PVTZ AUX)
    Blend: AUG-CC-PVTZ-JKFIT
    Number of shells: 58
    Number of basis function: 196
    Number of Cartesian functions: 241
    Spherical Harmonics?: true
    Max angular momentum: 4

  Minimum eigenvalue in the overlap matrix is 3.8840198575E-04.
  Using Symmetric Orthogonalization.

  SCF Guess: Superposition of Atomic Densities via on-the-fly atomic UHF.

  ==> Iterations <==

                           Total Energy        Delta E     RMS |[F,P]|

   @DF-RHF iter SAD:   -75.47265855214778   -7.54727e+01   0.00000e+00 
   @DF-RHF iter   1:   -75.97584781843838   -5.03189e-01   5.08960e-03 DIIS
   @DF-RHF iter   2:   -76.02825243406230   -5.24046e-02   3.47768e-03 DIIS
   @DF-RHF iter   3:   -76.05984829156995   -3.15959e-02   2.36372e-04 DIIS
   @DF-RHF iter   4:   -76.06024066815922   -3.92377e-04   5.68675e-05 DIIS
   @DF-RHF iter   5:   -76.06026543302664   -2.47649e-05   1.29226e-05 DIIS
   @DF-RHF iter   6:   -76.06026746412093   -2.03109e-06   2.83584e-06 DIIS
   @DF-RHF iter   7:   -76.06026757172258   -1.07602e-07   5.12845e-07 DIIS
   @DF-RHF iter   8:   -76.06026757481581   -3.09323e-09   8.61786e-08 DIIS
   @DF-RHF iter   9:   -76.06026757488473   -6.89226e-11   2.13039e-08 DIIS
   @DF-RHF iter  10:   -76.06026757488863   -3.89377e-12   3.09651e-09 DIIS
  Energy and wave function converged.


  ==> Post-Iterations <==

    Orbital Energies [Eh]
    ---------------------

    Doubly Occupied:                                                      

       1A    -20.567976     2A     -1.351172     3A     -0.715485  
       4A     -0.583897     5A     -0.509955  

    Virtual:                                                              

       6A      0.029385     7A      0.047660     8A      0.135947  
       9A      0.158728    10A      0.175032    11A      0.182958  
      12A      0.227228    13A      0.244831    14A      0.265220  
      15A      0.300497    16A      0.310430    17A      0.365686  
      18A      0.437244    19A      0.465968    20A      0.599472  
      21A      0.657917    22A      0.708344    23A      0.722311  
      24A      0.731782    25A      0.829915    26A      0.845893  
      27A      0.892136    28A      0.912397    29A      0.919094  
      30A      0.922142    31A      0.930327    32A      0.962465  
      33A      1.020714    34A      1.043028    35A      1.082736  
      36A      1.108762    37A      1.175666    38A      1.180972  
      39A      1.261166    40A      1.510221    41A      1.538764  
      42A      1.583628    43A      1.804910    44A      1.815638  
      45A      1.984783    46A      2.116074    47A      2.262470  
      48A      2.315931    49A      2.326450    50A      2.418072  
      51A      2.420074    52A      2.442883    53A      2.478818  
      54A      2.679035    55A      2.698975    56A      2.769083  
      57A      2.819966    58A      2.883689    59A      3.649885  
      60A      3.743674    61A      4.015729    62A      4.082689  
      63A      4.169921    64A      4.244047    65A      4.293084  
      66A      4.377267    67A      4.378201    68A      4.403670  
      69A      4.514110    70A      4.721780    71A      4.837385  
      72A      5.141398    73A      5.148833    74A      5.254511  
      75A      5.320201    76A      5.517666    77A      5.667891  
      78A      6.172797    79A      6.518859    80A      6.714187  
      81A      6.895102    82A      7.136246    83A      7.257079  
      84A      7.309765    85A      7.313156    86A      7.330753  
      87A      7.361786    88A      7.533848    89A      7.907039  
      90A      7.918558    91A      8.798043    92A     15.693075  

    Final Occupation by Irrep:
              A 
    DOCC [     5 ]

  @DF-RHF Final Energy:   -76.06026757488863

   => Energetics <=

    Nuclear Repulsion Energy =              9.1503254330310089
    One-Electron Energy =                -122.9642169111730681
    Two-Electron Energy =                  37.7536239032534340
    Total Energy =                        -76.0602675748886270

Computation Completed


Properties will be evaluated at   0.000000,   0.000000,   0.000000 [a0]

Properties computed using the SCF density matrix

  Nuclear Dipole Moment: [e a0]
     X:    36.3657      Y:     2.3828      Z:   -11.9675

  Electronic Dipole Moment: [e a0]
     X:   -35.6177      Y:    -2.2550      Z:    11.7833

  Dipole Moment: [e a0]
     X:     0.7481      Y:     0.1278      Z:    -0.1842     Total:     0.7810

  Dipole Moment: [D]
     X:     1.9014      Y:     0.3248      Z:    -0.4682     Total:     1.9850


*** tstop() called on node37.bme.utexas.edu at Sat Apr 11 16:30:16 2020
Module time:
	user time   =       4.76 seconds =       0.08 minutes
	system time =       0.33 seconds =       0.01 minutes
	total time  =          1 seconds =       0.02 minutes
Total time:
	user time   =       4.76 seconds =       0.08 minutes
	system time =       0.33 seconds =       0.01 minutes
	total time  =          1 seconds =       0.02 minutes

*** tstart() called on node37.bme.utexas.edu
*** at Sat Apr 11 16:30:16 2020


  //>>>>>>>>>>>>>>>>>>>>>>>>>>>>>>>>>>>//
  //               DFMP2               //
  //<<<<<<<<<<<<<<<<<<<<<<<<<<<<<<<<<<<//

   => Loading Basis Set <=

    Name: (AUG-CC-PVTZ AUX)
    Role: RIFIT
    Keyword: DF_BASIS_MP2
    atoms 1   entry O          line   264 file /home/liuchw/anaconda3/envs/psi4env/share/psi4/basis/aug-cc-pvtz-ri.gbs 
    atoms 2-3 entry H          line    30 file /home/liuchw/anaconda3/envs/psi4env/share/psi4/basis/aug-cc-pvtz-ri.gbs 

	 --------------------------------------------------------
	                          DF-MP2                         
	      2nd-Order Density-Fitted Moller-Plesset Theory     
	              RMP2 Wavefunction,   6 Threads             
	                                                         
	        Rob Parrish, Justin Turney, Andy Simmonett,      
	           Ed Hohenstein, and C. David Sherrill          
	 --------------------------------------------------------

   => Auxiliary Basis Set <=

  Basis Set: (AUG-CC-PVTZ AUX)
    Blend: AUG-CC-PVTZ-RI
    Number of shells: 56
    Number of basis function: 198
    Number of Cartesian functions: 246
    Spherical Harmonics?: true
    Max angular momentum: 4

	 --------------------------------------------------------
	                 NBF =    92, NAUX =   198
	 --------------------------------------------------------
	   CLASS    FOCC     OCC    AOCC    AVIR     VIR    FVIR
	   PAIRS       0       5       5      87      87       0
	 --------------------------------------------------------

	-----------------------------------------------------------
	 ==================> DF-MP2 Energies <==================== 
	-----------------------------------------------------------
	 Reference Energy          =     -76.0602675748886270 [Eh]
	 Singles Energy            =      -0.0000000000000000 [Eh]
	 Same-Spin Energy          =      -0.0684133600658846 [Eh]
	 Opposite-Spin Energy      =      -0.2153882695189287 [Eh]
	 Correlation Energy        =      -0.2838016295848133 [Eh]
	 Total Energy              =     -76.3440692044734419 [Eh]
	-----------------------------------------------------------
	 ================> DF-SCS-MP2 Energies <================== 
	-----------------------------------------------------------
	 SCS Same-Spin Scale       =       0.3333333333333333 [-]
	 SCS Opposite-Spin Scale   =       1.2000000000000000 [-]
	 SCS Same-Spin Energy      =      -0.0228044533552949 [Eh]
	 SCS Opposite-Spin Energy  =      -0.2584659234227144 [Eh]
	 SCS Correlation Energy    =      -0.2812703767780093 [Eh]
	 SCS Total Energy          =     -76.3415379516666377 [Eh]
	-----------------------------------------------------------


*** tstop() called on node37.bme.utexas.edu at Sat Apr 11 16:30:17 2020
Module time:
	user time   =       2.44 seconds =       0.04 minutes
	system time =       0.19 seconds =       0.00 minutes
	total time  =          1 seconds =       0.02 minutes
Total time:
	user time   =       7.21 seconds =       0.12 minutes
	system time =       0.52 seconds =       0.01 minutes
	total time  =          2 seconds =       0.03 minutes

  //>>>>>>>>>>>>>>>>>>>>>>>>>>>>>>>>>>>>//
  // CBS Computation: MP2 / AUG-CC-PVQZ //
  //<<<<<<<<<<<<<<<<<<<<<<<<<<<<<<<<<<<<//


Scratch directory: /scratch//

*** tstart() called on node37.bme.utexas.edu
*** at Sat Apr 11 16:30:17 2020

   => Loading Basis Set <=

    Name: AUG-CC-PVQZ
    Role: ORBITAL
    Keyword: BASIS
    atoms 1   entry O          line   423 file /home/liuchw/anaconda3/envs/psi4env/share/psi4/basis/aug-cc-pvqz.gbs 
    atoms 2-3 entry H          line    40 file /home/liuchw/anaconda3/envs/psi4env/share/psi4/basis/aug-cc-pvqz.gbs 


         ---------------------------------------------------------
                                   SCF
               by Justin Turney, Rob Parrish, Andy Simmonett
                          and Daniel G. A. Smith
                              RHF Reference
                        6 Threads,  38146 MiB Core
         ---------------------------------------------------------

  ==> Geometry <==

    Molecular point group: c1
    Full point group: C1

    Geometry (in Angstrom), charge = 0, multiplicity = 1:

       Center              X                  Y                   Z               Mass       
    ------------   -----------------  -----------------  -----------------  -----------------
         O            1.811701807034     0.106843276226    -0.605543668090    15.994914619570
         H            2.157048807034     0.653944276226    -1.317282668090     1.007825032230
         H            2.593256807034    -0.247782723774    -0.171299668090     1.007825032230

  Running in c1 symmetry.

  Rotational constants: A =     14.31257  B =      0.23704  C =      0.23324 [cm^-1]
  Rotational constants: A = 429080.17601  B =   7106.21337  C =   6992.45728 [MHz]
  Nuclear repulsion =    9.150325433031009

  Charge       = 0
  Multiplicity = 1
  Electrons    = 10
  Nalpha       = 5
  Nbeta        = 5

  ==> Algorithm <==

  SCF Algorithm Type is DF.
  DIIS enabled.
  MOM disabled.
  Fractional occupation disabled.
  Guess Type is SAD.
  Energy threshold   = 1.00e-07
  Density threshold  = 1.00e-08
  Integral threshold = 0.00e+00

  ==> Primary Basis <==

  Basis Set: AUG-CC-PVQZ
    Blend: AUG-CC-PVQZ
    Number of shells: 48
    Number of basis function: 172
    Number of Cartesian functions: 215
    Spherical Harmonics?: true
    Max angular momentum: 4

   => Loading Basis Set <=

    Name: (AUG-CC-PVQZ AUX)
    Role: JKFIT
    Keyword: DF_BASIS_SCF
    atoms 1   entry O          line   318 file /home/liuchw/anaconda3/envs/psi4env/share/psi4/basis/aug-cc-pvqz-jkfit.gbs 
    atoms 2-3 entry H          line    70 file /home/liuchw/anaconda3/envs/psi4env/share/psi4/basis/aug-cc-pvqz-jkfit.gbs 

  ==> Pre-Iterations <==

   -------------------------------------------------------
    Irrep   Nso     Nmo     Nalpha   Nbeta   Ndocc  Nsocc
   -------------------------------------------------------
     A        172     172       0       0       0       0
   -------------------------------------------------------
    Total     172     172       5       5       5       0
   -------------------------------------------------------

  ==> Integral Setup <==

  DFHelper Memory: AOs need 0.074 GiB; user supplied 27.940 GiB. Using in-core AOs.

  ==> MemDFJK: Density-Fitted J/K Matrices <==

    J tasked:                   Yes
    K tasked:                   Yes
    wK tasked:                   No
    OpenMP threads:               6
    Memory [MiB]:             28610
    Algorithm:                 Core
    Schwarz Cutoff:           1E-12
    Mask sparsity (%):       0.0000
    Fitting Condition:        1E-10

   => Auxiliary Basis Set <=

  Basis Set: (AUG-CC-PVQZ AUX)
    Blend: AUG-CC-PVQZ-JKFIT
    Number of shells: 70
    Number of basis function: 294
    Number of Cartesian functions: 400
    Spherical Harmonics?: true
    Max angular momentum: 5

  Minimum eigenvalue in the overlap matrix is 8.7686041866E-05.
  Using Symmetric Orthogonalization.

  SCF Guess: Superposition of Atomic Densities via on-the-fly atomic UHF.

  ==> Iterations <==

                           Total Energy        Delta E     RMS |[F,P]|

   @DF-RHF iter SAD:   -75.47779808588506   -7.54778e+01   0.00000e+00 
   @DF-RHF iter   1:   -75.98091573679345   -5.03118e-01   2.72821e-03 DIIS
   @DF-RHF iter   2:   -76.03342012539090   -5.25044e-02   1.86835e-03 DIIS
   @DF-RHF iter   3:   -76.06521485922474   -3.17947e-02   1.27387e-04 DIIS
   @DF-RHF iter   4:   -76.06560933968574   -3.94480e-04   3.13365e-05 DIIS
   @DF-RHF iter   5:   -76.06563501900311   -2.56793e-05   7.09573e-06 DIIS
   @DF-RHF iter   6:   -76.06563713371192   -2.11471e-06   1.59998e-06 DIIS
   @DF-RHF iter   7:   -76.06563725299600   -1.19284e-07   2.99153e-07 DIIS
   @DF-RHF iter   8:   -76.06563725666082   -3.66482e-09   4.83195e-08 DIIS
   @DF-RHF iter   9:   -76.06563725673853   -7.77050e-11   1.16610e-08 DIIS
   @DF-RHF iter  10:   -76.06563725674243   -3.90799e-12   1.72701e-09 DIIS
  Energy and wave function converged.


  ==> Post-Iterations <==

    Orbital Energies [Eh]
    ---------------------

    Doubly Occupied:                                                      

       1A    -20.565519     2A     -1.350442     3A     -0.715450  
       4A     -0.583945     5A     -0.510087  

    Virtual:                                                              

       6A      0.026903     7A      0.043061     8A      0.114185  
       9A      0.133451    10A      0.150976    11A      0.158560  
      12A      0.185021    13A      0.197028    14A      0.209165  
      15A      0.237862    16A      0.257304    17A      0.291370  
      18A      0.357365    19A      0.389722    20A      0.469962  
      21A      0.508400    22A      0.542218    23A      0.547229  
      24A      0.556064    25A      0.614045    26A      0.632846  
      27A      0.647515    28A      0.663383    29A      0.666054  
      30A      0.685573    31A      0.706333    32A      0.718153  
      33A      0.769481    34A      0.788208    35A      0.802740  
      36A      0.802805    37A      0.843728    38A      0.854560  
      39A      0.968248    40A      1.126396    41A      1.135788  
      42A      1.209334    43A      1.331424    44A      1.435790  
      45A      1.481227    46A      1.508852    47A      1.513622  
      48A      1.526555    49A      1.554224    50A      1.591780  
      51A      1.620216    52A      1.636723    53A      1.663698  
      54A      1.664019    55A      1.688700    56A      1.702753  
      57A      1.733543    58A      1.754103    59A      1.768823  
      60A      1.778293    61A      1.839846    62A      1.864820  
      63A      1.891792    64A      1.912680    65A      1.976691  
      66A      2.010110    67A      2.033438    68A      2.036434  
      69A      2.100735    70A      2.207861    71A      2.218816  
      72A      2.311633    73A      2.444840    74A      2.627070  
      75A      2.631264    76A      2.884816    77A      2.956831  
      78A      2.996310    79A      3.037227    80A      3.055500  
      81A      3.084265    82A      3.273827    83A      3.290492  
      84A      3.303235    85A      3.495549    86A      3.589136  
      87A      3.644395    88A      3.688407    89A      3.721528  
      90A      3.765377    91A      3.923407    92A      4.076899  
      93A      4.166281    94A      4.168419    95A      4.177824  
      96A      4.179493    97A      4.237297    98A      4.330755  
      99A      4.431380   100A      4.574983   101A      4.714033  
     102A      4.746927   103A      4.783303   104A      4.789099  
     105A      4.805105   106A      4.875579   107A      4.995806  
     108A      5.242208   109A      5.314056   110A      5.520785  
     111A      5.523601   112A      5.857407   113A      5.881707  
     114A      6.070639   115A      6.227536   116A      6.829641  
     117A      6.873494   118A      6.878420   119A      6.915806  
     120A      7.719127   121A      7.783095   122A      7.784067  
     123A      7.825875   124A      7.832175   125A      7.898891  
     126A      7.925568   127A      8.018869   128A      8.199554  
     129A      8.200421   130A      8.527733   131A      8.635346  
     132A      8.638029   133A      8.707240   134A      8.780097  
     135A      8.846254   136A      8.986957   137A      9.040880  
     138A      9.200912   139A      9.646751   140A      9.879896  
     141A      9.907312   142A      9.936184   143A      9.984801  
     144A     10.337713   145A     10.451694   146A     10.685138  
     147A     11.011669   148A     11.076582   149A     11.086781  
     150A     11.268205   151A     11.317631   152A     11.415071  
     153A     11.707353   154A     11.791940   155A     11.833235  
     156A     11.989451   157A     12.197776   158A     12.199141  
     159A     12.600296   160A     12.724836   161A     12.827420  
     162A     12.895229   163A     13.185439   164A     13.978684  
     165A     14.009110   166A     14.485538   167A     14.793592  
     168A     14.875884   169A     15.237268   170A     16.837512  
     171A     17.267412   172A     45.473932  

    Final Occupation by Irrep:
              A 
    DOCC [     5 ]

  @DF-RHF Final Energy:   -76.06563725674243

   => Energetics <=

    Nuclear Repulsion Energy =              9.1503254330310089
    One-Electron Energy =                -122.9810382919063443
    Two-Electron Energy =                  37.7650756021328959
    Total Energy =                        -76.0656372567424341

Computation Completed


Properties will be evaluated at   0.000000,   0.000000,   0.000000 [a0]

Properties computed using the SCF density matrix

  Nuclear Dipole Moment: [e a0]
     X:    36.3657      Y:     2.3828      Z:   -11.9675

  Electronic Dipole Moment: [e a0]
     X:   -35.6185      Y:    -2.2551      Z:    11.7835

  Dipole Moment: [e a0]
     X:     0.7473      Y:     0.1276      Z:    -0.1840     Total:     0.7801

  Dipole Moment: [D]
     X:     1.8994      Y:     0.3244      Z:    -0.4677     Total:     1.9828


*** tstop() called on node37.bme.utexas.edu at Sat Apr 11 16:30:18 2020
Module time:
	user time   =       7.70 seconds =       0.13 minutes
	system time =       0.50 seconds =       0.01 minutes
	total time  =          1 seconds =       0.02 minutes
Total time:
	user time   =      14.95 seconds =       0.25 minutes
	system time =       1.02 seconds =       0.02 minutes
	total time  =          3 seconds =       0.05 minutes

*** tstart() called on node37.bme.utexas.edu
*** at Sat Apr 11 16:30:18 2020


  //>>>>>>>>>>>>>>>>>>>>>>>>>>>>>>>>>>>//
  //               DFMP2               //
  //<<<<<<<<<<<<<<<<<<<<<<<<<<<<<<<<<<<//

   => Loading Basis Set <=

    Name: (AUG-CC-PVQZ AUX)
    Role: RIFIT
    Keyword: DF_BASIS_MP2
    atoms 1   entry O          line   332 file /home/liuchw/anaconda3/envs/psi4env/share/psi4/basis/aug-cc-pvqz-ri.gbs 
    atoms 2-3 entry H          line    30 file /home/liuchw/anaconda3/envs/psi4env/share/psi4/basis/aug-cc-pvqz-ri.gbs 

	 --------------------------------------------------------
	                          DF-MP2                         
	      2nd-Order Density-Fitted Moller-Plesset Theory     
	              RMP2 Wavefunction,   6 Threads             
	                                                         
	        Rob Parrish, Justin Turney, Andy Simmonett,      
	           Ed Hohenstein, and C. David Sherrill          
	 --------------------------------------------------------

   => Auxiliary Basis Set <=

  Basis Set: (AUG-CC-PVQZ AUX)
    Blend: AUG-CC-PVQZ-RI
    Number of shells: 76
    Number of basis function: 328
    Number of Cartesian functions: 447
    Spherical Harmonics?: true
    Max angular momentum: 5

	 --------------------------------------------------------
	                 NBF =   172, NAUX =   328
	 --------------------------------------------------------
	   CLASS    FOCC     OCC    AOCC    AVIR     VIR    FVIR
	   PAIRS       0       5       5     167     167       0
	 --------------------------------------------------------

	-----------------------------------------------------------
	 ==================> DF-MP2 Energies <==================== 
	-----------------------------------------------------------
	 Reference Energy          =     -76.0656372567424341 [Eh]
	 Singles Energy            =      -0.0000000000000000 [Eh]
	 Same-Spin Energy          =      -0.0727383417593008 [Eh]
	 Opposite-Spin Energy      =      -0.2443331600517976 [Eh]
	 Correlation Energy        =      -0.3170715018110983 [Eh]
	 Total Energy              =     -76.3827087585535338 [Eh]
	-----------------------------------------------------------
	 ================> DF-SCS-MP2 Energies <================== 
	-----------------------------------------------------------
	 SCS Same-Spin Scale       =       0.3333333333333333 [-]
	 SCS Opposite-Spin Scale   =       1.2000000000000000 [-]
	 SCS Same-Spin Energy      =      -0.0242461139197669 [Eh]
	 SCS Opposite-Spin Energy  =      -0.2931997920621571 [Eh]
	 SCS Correlation Energy    =      -0.3174459059819240 [Eh]
	 SCS Total Energy          =     -76.3830831627243612 [Eh]
	-----------------------------------------------------------


*** tstop() called on node37.bme.utexas.edu at Sat Apr 11 16:30:19 2020
Module time:
	user time   =       2.85 seconds =       0.05 minutes
	system time =       0.17 seconds =       0.00 minutes
	total time  =          1 seconds =       0.02 minutes
Total time:
	user time   =      17.80 seconds =       0.30 minutes
	system time =       1.19 seconds =       0.02 minutes
	total time  =          4 seconds =       0.07 minutes

  //>>>>>>>>>>>>>>>>>>>>>>>>>>>>>>>>>>>//
  //  CBS Results: mp2/aug-cc-pv[tq]z  //
  //<<<<<<<<<<<<<<<<<<<<<<<<<<<<<<<<<<<//


   ==> HF <==

   HI-zeta (4) Energy:               -76.065637256742


   ==> Helgaker 2-point correlated extrapolation for method: MP2 <==

   LO-zeta (3) Energy:               -76.344069204473
   HI-zeta (4) Energy:               -76.382708758554
   Alpha (exponent) Value:             3.000000000000
   Extrapolated Energy:              -76.410905189909

   @Extrapolated MP2/(T,Q):          -76.410905189909



   ==> Helgaker 2-point correlated extrapolation for method: HF <==

   LO-zeta (3) Energy:               -76.060267574889
   HI-zeta (4) Energy:               -76.065637256742
   Alpha (exponent) Value:             3.000000000000
   Extrapolated Energy:              -76.069555673230

   @Extrapolated HF/(T,Q):           -76.069555673230


   ==> Components <==

  ---------------------------------------------------------------------------------------------------------
                          Method / Basis                      Rqd      Energy [Eh]   Variable
  ---------------------------------------------------------------------------------------------------------
                              hf / aug-cc-pvtz                  *     -76.06026757   HF TOTAL ENERGY
                             mp2 / aug-cc-pvtz                  *     -76.34406920   MP2 TOTAL ENERGY
                              hf / aug-cc-pvqz                  *     -76.06563726   HF TOTAL ENERGY
                             mp2 / aug-cc-pvqz                  *     -76.38270876   MP2 TOTAL ENERGY
  ---------------------------------------------------------------------------------------------------------

   ==> Stages <==

  ---------------------------------------------------------------------------------------------------------
      Stage               Method / Basis                       Wt      Energy [Eh]   Scheme
  ---------------------------------------------------------------------------------------------------------
        scf                   hf / aug-cc-pvqz                  1     -76.06563726   xtpl_highest_1
       corl                  mp2 / aug-cc-pv[tq]z               1     -76.41090519   corl_xtpl_helgaker_2
       corl                   hf / aug-cc-pv[tq]z              -1     -76.06955567   corl_xtpl_helgaker_2
  ---------------------------------------------------------------------------------------------------------

   ==> CBS <==

  ---------------------------------------------------------------------------------------------------------
      Stage               Method / Basis                               Energy [Eh]   Scheme
  ---------------------------------------------------------------------------------------------------------
        scf                   hf / aug-cc-pvqz                        -76.06563726   xtpl_highest_1
       corl                  mp2 / aug-cc-pv[tq]z                      -0.34134952   corl_xtpl_helgaker_2
      total                  CBS                                      -76.40698677   
  ---------------------------------------------------------------------------------------------------------
   => Loading Basis Set <=

    Name: DEF2-SVP
    Role: ORBITAL
    Keyword: BASIS
    atoms 1   entry O          line   130 file /home/liuchw/anaconda3/envs/psi4env/share/psi4/basis/def2-svp.gbs 
    atoms 2-3 entry H          line    15 file /home/liuchw/anaconda3/envs/psi4env/share/psi4/basis/def2-svp.gbs 


       N-Body: Complex Energy (fragments = (2,), basis = (2,):   -76.40698677342137)

       N-Body: Computing complex (2/4) with fragments (2,) in the basis of fragments (1, 2).


Scratch directory: /scratch//

  //>>>>>>>>>>>>>>>>>>>>>>>>>>>>>>>>>>>//
  //   CBS Setup: mp2/aug-cc-pv[tq]z   //
  //<<<<<<<<<<<<<<<<<<<<<<<<<<<<<<<<<<<//

    Naive listing of computations required.
             hf / aug-cc-pvqz              for  HF TOTAL ENERGY
            mp2 / aug-cc-pvtz              for  MP2 TOTAL ENERGY
            mp2 / aug-cc-pvqz              for  MP2 TOTAL ENERGY
             hf / aug-cc-pvtz              for  HF TOTAL ENERGY
             hf / aug-cc-pvqz              for  HF TOTAL ENERGY

    Enlightened listing of computations required.
            mp2 / aug-cc-pvtz              for  MP2 TOTAL ENERGY
            mp2 / aug-cc-pvqz              for  MP2 TOTAL ENERGY

    Full listing of computations to be obtained (required and bonus).
             hf / aug-cc-pvtz              for  HF TOTAL ENERGY
            mp2 / aug-cc-pvtz              for  MP2 TOTAL ENERGY
             hf / aug-cc-pvqz              for  HF TOTAL ENERGY
            mp2 / aug-cc-pvqz              for  MP2 TOTAL ENERGY

  //>>>>>>>>>>>>>>>>>>>>>>>>>>>>>>>>>>>>//
  // CBS Computation: MP2 / AUG-CC-PVTZ //
  //<<<<<<<<<<<<<<<<<<<<<<<<<<<<<<<<<<<<//


Scratch directory: /scratch//

*** tstart() called on node37.bme.utexas.edu
*** at Sat Apr 11 16:30:20 2020

   => Loading Basis Set <=

    Name: AUG-CC-PVTZ
    Role: ORBITAL
    Keyword: BASIS
    atoms 1               entry N          line   285 file /home/liuchw/anaconda3/envs/psi4env/share/psi4/basis/aug-cc-pvtz.gbs 
    atoms 2-4, 6-8, 10-11 entry H          line    40 file /home/liuchw/anaconda3/envs/psi4env/share/psi4/basis/aug-cc-pvtz.gbs 
    atoms 5               entry C          line   239 file /home/liuchw/anaconda3/envs/psi4env/share/psi4/basis/aug-cc-pvtz.gbs 
    atoms 9               entry O          line   331 file /home/liuchw/anaconda3/envs/psi4env/share/psi4/basis/aug-cc-pvtz.gbs 


         ---------------------------------------------------------
                                   SCF
               by Justin Turney, Rob Parrish, Andy Simmonett
                          and Daniel G. A. Smith
                              RHF Reference
                        6 Threads,  38146 MiB Core
         ---------------------------------------------------------

  ==> Geometry <==

    Molecular point group: c1
    Full point group: C1

    Geometry (in Angstrom), charge = 0, multiplicity = 1:

       Center              X                  Y                   Z               Mass       
    ------------   -----------------  -----------------  -----------------  -----------------
      Gh(N)          -0.812557192966    -0.533702723774    -0.110696668090    14.003074004430
      Gh(H)          -0.879054192966    -1.481263723774     0.257377331910     1.007825032230
      Gh(H)          -1.348732192966    -0.510198723774    -0.976569668090     1.007825032230
      Gh(H)           0.187976807034    -0.342054723774    -0.340712668090     1.007825032230
      Gh(C)          -1.330213192966     0.466101276226     0.873143331910    12.000000000000
      Gh(H)          -1.238115192966     1.452622276226     0.435136331910     1.007825032230
      Gh(H)          -2.367590192966     0.244213276226     1.093381331910     1.007825032230
      Gh(H)          -0.729238192966     0.400504276226     1.772077331910     1.007825032230
         O            1.811701807034     0.106843276226    -0.605543668090    15.994914619570
         H            2.157048807034     0.653944276226    -1.317282668090     1.007825032230
         H            2.593256807034    -0.247782723774    -0.171299668090     1.007825032230

  Running in c1 symmetry.

  Rotational constants: A =      0.81435  B =      0.13693  C =      0.12432 [cm^-1]
  Rotational constants: A =  24413.53266  B =   4105.01124  C =   3727.16322 [MHz]
  Nuclear repulsion =    9.150325433031009

  Charge       = 0
  Multiplicity = 1
  Electrons    = 10
  Nalpha       = 5
  Nbeta        = 5

  ==> Algorithm <==

  SCF Algorithm Type is DF.
  DIIS enabled.
  MOM disabled.
  Fractional occupation disabled.
  Guess Type is SAD.
  Energy threshold   = 1.00e-07
  Density threshold  = 1.00e-08
  Integral threshold = 0.00e+00

  ==> Primary Basis <==

  Basis Set: AUG-CC-PVTZ
    Blend: AUG-CC-PVTZ
    Number of shells: 114
    Number of basis function: 322
    Number of Cartesian functions: 365
    Spherical Harmonics?: true
    Max angular momentum: 3

   => Loading Basis Set <=

    Name: (AUG-CC-PVTZ AUX)
    Role: JKFIT
    Keyword: DF_BASIS_SCF
    atoms 1               entry N          line   224 file /home/liuchw/anaconda3/envs/psi4env/share/psi4/basis/aug-cc-pvtz-jkfit.gbs 
    atoms 2-4, 6-8, 10-11 entry H          line    70 file /home/liuchw/anaconda3/envs/psi4env/share/psi4/basis/aug-cc-pvtz-jkfit.gbs 
    atoms 5               entry C          line   162 file /home/liuchw/anaconda3/envs/psi4env/share/psi4/basis/aug-cc-pvtz-jkfit.gbs 
    atoms 9               entry O          line   286 file /home/liuchw/anaconda3/envs/psi4env/share/psi4/basis/aug-cc-pvtz-jkfit.gbs 

  ==> Pre-Iterations <==

   -------------------------------------------------------
    Irrep   Nso     Nmo     Nalpha   Nbeta   Ndocc  Nsocc
   -------------------------------------------------------
     A        322     322       0       0       0       0
   -------------------------------------------------------
    Total     322     322       5       5       5       0
   -------------------------------------------------------

  ==> Integral Setup <==

  DFHelper Memory: AOs need 0.543 GiB; user supplied 27.940 GiB. Using in-core AOs.

  ==> MemDFJK: Density-Fitted J/K Matrices <==

    J tasked:                   Yes
    K tasked:                   Yes
    wK tasked:                   No
    OpenMP threads:               6
    Memory [MiB]:             28610
    Algorithm:                 Core
    Schwarz Cutoff:           1E-12
    Mask sparsity (%):       2.0698
    Fitting Condition:        1E-10

   => Auxiliary Basis Set <=

  Basis Set: (AUG-CC-PVTZ AUX)
    Blend: AUG-CC-PVTZ-JKFIT
    Number of shells: 202
    Number of basis function: 680
    Number of Cartesian functions: 833
    Spherical Harmonics?: true
    Max angular momentum: 4

  Minimum eigenvalue in the overlap matrix is 2.8851884897E-05.
  Using Symmetric Orthogonalization.

  SCF Guess: Superposition of Atomic Densities via on-the-fly atomic UHF.

  ==> Iterations <==

                           Total Energy        Delta E     RMS |[F,P]|

   @DF-RHF iter SAD:   -75.47265836942586   -7.54727e+01   0.00000e+00 
   @DF-RHF iter   1:   -75.97592121375466   -5.03263e-01   1.45437e-03 DIIS
   @DF-RHF iter   2:   -76.02834190747078   -5.24207e-02   9.93843e-04 DIIS
   @DF-RHF iter   3:   -76.05994427170832   -3.16024e-02   6.75507e-05 DIIS
   @DF-RHF iter   4:   -76.06033676126076   -3.92490e-04   1.62661e-05 DIIS
   @DF-RHF iter   5:   -76.06036158834627   -2.48271e-05   3.69542e-06 DIIS
   @DF-RHF iter   6:   -76.06036362331236   -2.03497e-06   8.11024e-07 DIIS
   @DF-RHF iter   7:   -76.06036373119235   -1.07880e-07   1.47133e-07 DIIS
   @DF-RHF iter   8:   -76.06036373432154   -3.12919e-09   2.47821e-08 DIIS
   @DF-RHF iter   9:   -76.06036373439127   -6.97327e-11   6.11117e-09 DIIS
  Energy and wave function converged.


  ==> Post-Iterations <==

    Orbital Energies [Eh]
    ---------------------

    Doubly Occupied:                                                      

       1A    -20.567832     2A     -1.351072     3A     -0.715390  
       4A     -0.583844     5A     -0.509892  

    Virtual:                                                              

       6A      0.022706     7A      0.036033     8A      0.042468  
       9A      0.046939    10A      0.060350    11A      0.060638  
      12A      0.071855    13A      0.086377    14A      0.103073  
      15A      0.113614    16A      0.131910    17A      0.134917  
      18A      0.146031    19A      0.150563    20A      0.163716  
      21A      0.179931    22A      0.186930    23A      0.187442  
      24A      0.203076    25A      0.233738    26A      0.236403  
      27A      0.258041    28A      0.259441    29A      0.283375  
      30A      0.286176    31A      0.295275    32A      0.310670  
      33A      0.314880    34A      0.321821    35A      0.324678  
      36A      0.329563    37A      0.344502    38A      0.349980  
      39A      0.353387    40A      0.370371    41A      0.376918  
      42A      0.388803    43A      0.400447    44A      0.408137  
      45A      0.418214    46A      0.422521    47A      0.429736  
      48A      0.450340    49A      0.452872    50A      0.460324  
      51A      0.477532    52A      0.485768    53A      0.492450  
      54A      0.495325    55A      0.509890    56A      0.510817  
      57A      0.523106    58A      0.555140    59A      0.555410  
      60A      0.575748    61A      0.602375    62A      0.621897  
      63A      0.651846    64A      0.661909    65A      0.686977  
      66A      0.694113    67A      0.720652    68A      0.729527  
      69A      0.737031    70A      0.737896    71A      0.751702  
      72A      0.776519    73A      0.784193    74A      0.791686  
      75A      0.794225    76A      0.824771    77A      0.839131  
      78A      0.846887    79A      0.858521    80A      0.916106  
      81A      0.925952    82A      0.932658    83A      0.954330  
      84A      0.957600    85A      0.968059    86A      0.988065  
      87A      0.997955    88A      1.014230    89A      1.017747  
      90A      1.032003    91A      1.045830    92A      1.058334  
      93A      1.065071    94A      1.077206    95A      1.084629  
      96A      1.087601    97A      1.110764    98A      1.113456  
      99A      1.130497   100A      1.139864   101A      1.150191  
     102A      1.156440   103A      1.174621   104A      1.177095  
     105A      1.189021   106A      1.191131   107A      1.207906  
     108A      1.219500   109A      1.225114   110A      1.232118  
     111A      1.254296   112A      1.258083   113A      1.279821  
     114A      1.283384   115A      1.325218   116A      1.334970  
     117A      1.335598   118A      1.359534   119A      1.376826  
     120A      1.399479   121A      1.408372   122A      1.414565  
     123A      1.435586   124A      1.474864   125A      1.477689  
     126A      1.511187   127A      1.524801   128A      1.527015  
     129A      1.564872   130A      1.573411   131A      1.601281  
     132A      1.629003   133A      1.631148   134A      1.644502  
     135A      1.667255   136A      1.676948   137A      1.697078  
     138A      1.699994   139A      1.758453   140A      1.769056  
     141A      1.784419   142A      1.798632   143A      1.813505  
     144A      1.822878   145A      1.853996   146A      1.876171  
     147A      1.899692   148A      1.901639   149A      1.918281  
     150A      1.949822   151A      2.007925   152A      2.029786  
     153A      2.030356   154A      2.063413   155A      2.069065  
     156A      2.123207   157A      2.157690   158A      2.168360  
     159A      2.180606   160A      2.207499   161A      2.219376  
     162A      2.274077   163A      2.280741   164A      2.310580  
     165A      2.320819   166A      2.328339   167A      2.394633  
     168A      2.414329   169A      2.441488   170A      2.459228  
     171A      2.468024   172A      2.469875   173A      2.551427  
     174A      2.561919   175A      2.606488   176A      2.623265  
     177A      2.678607   178A      2.725997   179A      2.753537  
     180A      2.763225   181A      2.775361   182A      2.807488  
     183A      2.814131   184A      2.849904   185A      2.864331  
     186A      2.869117   187A      2.935045   188A      2.939873  
     189A      2.969276   190A      2.969282   191A      2.981184  
     192A      3.052211   193A      3.099315   194A      3.194399  
     195A      3.222911   196A      3.275846   197A      3.341906  
     198A      3.376589   199A      3.522635   200A      3.819223  
     201A      3.914733   202A      3.963143   203A      4.040860  
     204A      4.061295   205A      4.141911   206A      4.165638  
     207A      4.187561   208A      4.200499   209A      4.201990  
     210A      4.248584   211A      4.299194   212A      4.341332  
     213A      4.404909   214A      4.424631   215A      4.433667  
     216A      4.439565   217A      4.462577   218A      4.477491  
     219A      4.504635   220A      4.518966   221A      4.547310  
     222A      4.566147   223A      4.615597   224A      4.628722  
     225A      4.699857   226A      4.714943   227A      4.755152  
     228A      4.765086   229A      4.772351   230A      4.800067  
     231A      4.828685   232A      4.836658   233A      4.888328  
     234A      4.903709   235A      4.915592   236A      4.995095  
     237A      4.997815   238A      5.039572   239A      5.043464  
     240A      5.053503   241A      5.115497   242A      5.124196  
     243A      5.143872   244A      5.163854   245A      5.168331  
     246A      5.217305   247A      5.228847   248A      5.278497  
     249A      5.290034   250A      5.295630   251A      5.341274  
     252A      5.347798   253A      5.364886   254A      5.409627  
     255A      5.484632   256A      5.490944   257A      5.517058  
     258A      5.545597   259A      5.546108   260A      5.572766  
     261A      5.621617   262A      5.684097   263A      5.690343  
     264A      5.723248   265A      5.734641   266A      5.778068  
     267A      5.838072   268A      5.875773   269A      5.996553  
     270A      6.018421   271A      6.029879   272A      6.058322  
     273A      6.077817   274A      6.143204   275A      6.316048  
     276A      6.340823   277A      6.395609   278A      6.448682  
     279A      6.470672   280A      6.539429   281A      6.549253  
     282A      6.633510   283A      6.803581   284A      6.818532  
     285A      6.928702   286A      7.122698   287A      7.191426  
     288A      7.212348   289A      7.251431   290A      7.318758  
     291A      7.329418   292A      7.330371   293A      7.369490  
     294A      7.379165   295A      7.405658   296A      7.483829  
     297A      7.680969   298A      7.747465   299A      7.816321  
     300A      7.832792   301A      7.853667   302A      7.880975  
     303A      7.882310   304A      7.965043   305A      7.979843  
     306A      8.213322   307A      8.222939   308A      8.246051  
     309A      8.286206   310A      8.312719   311A      8.730439  
     312A      8.912740   313A      9.434007   314A      9.475416  
     315A     10.698534   316A     11.112999   317A     11.290719  
     318A     11.374941   319A     12.930541   320A     16.689996  
     321A     53.713778   322A     65.051680  

    Final Occupation by Irrep:
              A 
    DOCC [     5 ]

  @DF-RHF Final Energy:   -76.06036373439127

   => Energetics <=

    Nuclear Repulsion Energy =              9.1503254330310089
    One-Electron Energy =                -122.9653140849194273
    Two-Electron Energy =                  37.7546249174971393
    Total Energy =                        -76.0603637343912737

Computation Completed


Properties will be evaluated at   0.000000,   0.000000,   0.000000 [a0]

Properties computed using the SCF density matrix

  Nuclear Dipole Moment: [e a0]
     X:    36.3657      Y:     2.3828      Z:   -11.9675

  Electronic Dipole Moment: [e a0]
     X:   -35.6186      Y:    -2.2551      Z:    11.7836

  Dipole Moment: [e a0]
     X:     0.7472      Y:     0.1277      Z:    -0.1839     Total:     0.7800

  Dipole Moment: [D]
     X:     1.8992      Y:     0.3246      Z:    -0.4675     Total:     1.9826


*** tstop() called on node37.bme.utexas.edu at Sat Apr 11 16:30:24 2020
Module time:
	user time   =      19.45 seconds =       0.32 minutes
	system time =       0.90 seconds =       0.01 minutes
	total time  =          4 seconds =       0.07 minutes
Total time:
	user time   =      39.03 seconds =       0.65 minutes
	system time =       2.18 seconds =       0.04 minutes
	total time  =          9 seconds =       0.15 minutes

*** tstart() called on node37.bme.utexas.edu
*** at Sat Apr 11 16:30:24 2020


  //>>>>>>>>>>>>>>>>>>>>>>>>>>>>>>>>>>>//
  //               DFMP2               //
  //<<<<<<<<<<<<<<<<<<<<<<<<<<<<<<<<<<<//

   => Loading Basis Set <=

    Name: (AUG-CC-PVTZ AUX)
    Role: RIFIT
    Keyword: DF_BASIS_MP2
    atoms 1               entry N          line   206 file /home/liuchw/anaconda3/envs/psi4env/share/psi4/basis/aug-cc-pvtz-ri.gbs 
    atoms 2-4, 6-8, 10-11 entry H          line    30 file /home/liuchw/anaconda3/envs/psi4env/share/psi4/basis/aug-cc-pvtz-ri.gbs 
    atoms 5               entry C          line   148 file /home/liuchw/anaconda3/envs/psi4env/share/psi4/basis/aug-cc-pvtz-ri.gbs 
    atoms 9               entry O          line   264 file /home/liuchw/anaconda3/envs/psi4env/share/psi4/basis/aug-cc-pvtz-ri.gbs 

	 --------------------------------------------------------
	                          DF-MP2                         
	      2nd-Order Density-Fitted Moller-Plesset Theory     
	              RMP2 Wavefunction,   6 Threads             
	                                                         
	        Rob Parrish, Justin Turney, Andy Simmonett,      
	           Ed Hohenstein, and C. David Sherrill          
	 --------------------------------------------------------

   => Auxiliary Basis Set <=

  Basis Set: (AUG-CC-PVTZ AUX)
    Blend: AUG-CC-PVTZ-RI
    Number of shells: 196
    Number of basis function: 686
    Number of Cartesian functions: 848
    Spherical Harmonics?: true
    Max angular momentum: 4

	 --------------------------------------------------------
	                 NBF =   322, NAUX =   686
	 --------------------------------------------------------
	   CLASS    FOCC     OCC    AOCC    AVIR     VIR    FVIR
	   PAIRS       0       5       5     317     317       0
	 --------------------------------------------------------

	-----------------------------------------------------------
	 ==================> DF-MP2 Energies <==================== 
	-----------------------------------------------------------
	 Reference Energy          =     -76.0603637343912737 [Eh]
	 Singles Energy            =      -0.0000000000000000 [Eh]
	 Same-Spin Energy          =      -0.0684896094535357 [Eh]
	 Opposite-Spin Energy      =      -0.2162707439319785 [Eh]
	 Correlation Energy        =      -0.2847603533855141 [Eh]
	 Total Energy              =     -76.3451240877767816 [Eh]
	-----------------------------------------------------------
	 ================> DF-SCS-MP2 Energies <================== 
	-----------------------------------------------------------
	 SCS Same-Spin Scale       =       0.3333333333333333 [-]
	 SCS Opposite-Spin Scale   =       1.2000000000000000 [-]
	 SCS Same-Spin Energy      =      -0.0228298698178452 [Eh]
	 SCS Opposite-Spin Energy  =      -0.2595248927183741 [Eh]
	 SCS Correlation Energy    =      -0.2823547625362194 [Eh]
	 SCS Total Energy          =     -76.3427184969274890 [Eh]
	-----------------------------------------------------------


*** tstop() called on node37.bme.utexas.edu at Sat Apr 11 16:30:26 2020
Module time:
	user time   =       7.69 seconds =       0.13 minutes
	system time =       0.40 seconds =       0.01 minutes
	total time  =          2 seconds =       0.03 minutes
Total time:
	user time   =      46.72 seconds =       0.78 minutes
	system time =       2.58 seconds =       0.04 minutes
	total time  =         11 seconds =       0.18 minutes

  //>>>>>>>>>>>>>>>>>>>>>>>>>>>>>>>>>>>>//
  // CBS Computation: MP2 / AUG-CC-PVQZ //
  //<<<<<<<<<<<<<<<<<<<<<<<<<<<<<<<<<<<<//


Scratch directory: /scratch//

*** tstart() called on node37.bme.utexas.edu
*** at Sat Apr 11 16:30:26 2020

   => Loading Basis Set <=

    Name: AUG-CC-PVQZ
    Role: ORBITAL
    Keyword: BASIS
    atoms 1               entry N          line   363 file /home/liuchw/anaconda3/envs/psi4env/share/psi4/basis/aug-cc-pvqz.gbs 
    atoms 2-4, 6-8, 10-11 entry H          line    40 file /home/liuchw/anaconda3/envs/psi4env/share/psi4/basis/aug-cc-pvqz.gbs 
    atoms 5               entry C          line   303 file /home/liuchw/anaconda3/envs/psi4env/share/psi4/basis/aug-cc-pvqz.gbs 
    atoms 9               entry O          line   423 file /home/liuchw/anaconda3/envs/psi4env/share/psi4/basis/aug-cc-pvqz.gbs 


         ---------------------------------------------------------
                                   SCF
               by Justin Turney, Rob Parrish, Andy Simmonett
                          and Daniel G. A. Smith
                              RHF Reference
                        6 Threads,  38146 MiB Core
         ---------------------------------------------------------

  ==> Geometry <==

    Molecular point group: c1
    Full point group: C1

    Geometry (in Angstrom), charge = 0, multiplicity = 1:

       Center              X                  Y                   Z               Mass       
    ------------   -----------------  -----------------  -----------------  -----------------
      Gh(N)          -0.812557192966    -0.533702723774    -0.110696668090    14.003074004430
      Gh(H)          -0.879054192966    -1.481263723774     0.257377331910     1.007825032230
      Gh(H)          -1.348732192966    -0.510198723774    -0.976569668090     1.007825032230
      Gh(H)           0.187976807034    -0.342054723774    -0.340712668090     1.007825032230
      Gh(C)          -1.330213192966     0.466101276226     0.873143331910    12.000000000000
      Gh(H)          -1.238115192966     1.452622276226     0.435136331910     1.007825032230
      Gh(H)          -2.367590192966     0.244213276226     1.093381331910     1.007825032230
      Gh(H)          -0.729238192966     0.400504276226     1.772077331910     1.007825032230
         O            1.811701807034     0.106843276226    -0.605543668090    15.994914619570
         H            2.157048807034     0.653944276226    -1.317282668090     1.007825032230
         H            2.593256807034    -0.247782723774    -0.171299668090     1.007825032230

  Running in c1 symmetry.

  Rotational constants: A =      0.81435  B =      0.13693  C =      0.12432 [cm^-1]
  Rotational constants: A =  24413.53266  B =   4105.01124  C =   3727.16322 [MHz]
  Nuclear repulsion =    9.150325433031009

  Charge       = 0
  Multiplicity = 1
  Electrons    = 10
  Nalpha       = 5
  Nbeta        = 5

  ==> Algorithm <==

  SCF Algorithm Type is DF.
  DIIS enabled.
  MOM disabled.
  Fractional occupation disabled.
  Guess Type is SAD.
  Energy threshold   = 1.00e-07
  Density threshold  = 1.00e-08
  Integral threshold = 0.00e+00

  ==> Primary Basis <==

  Basis Set: AUG-CC-PVQZ
    Blend: AUG-CC-PVQZ
    Number of shells: 172
    Number of basis function: 608
    Number of Cartesian functions: 755
    Spherical Harmonics?: true
    Max angular momentum: 4

   => Loading Basis Set <=

    Name: (AUG-CC-PVQZ AUX)
    Role: JKFIT
    Keyword: DF_BASIS_SCF
    atoms 1               entry N          line   248 file /home/liuchw/anaconda3/envs/psi4env/share/psi4/basis/aug-cc-pvqz-jkfit.gbs 
    atoms 2-4, 6-8, 10-11 entry H          line    70 file /home/liuchw/anaconda3/envs/psi4env/share/psi4/basis/aug-cc-pvqz-jkfit.gbs 
    atoms 5               entry C          line   178 file /home/liuchw/anaconda3/envs/psi4env/share/psi4/basis/aug-cc-pvqz-jkfit.gbs 
    atoms 9               entry O          line   318 file /home/liuchw/anaconda3/envs/psi4env/share/psi4/basis/aug-cc-pvqz-jkfit.gbs 

  ==> Pre-Iterations <==

   -------------------------------------------------------
    Irrep   Nso     Nmo     Nalpha   Nbeta   Ndocc  Nsocc
   -------------------------------------------------------
     A        608     608       0       0       0       0
   -------------------------------------------------------
    Total     608     608       5       5       5       0
   -------------------------------------------------------

  ==> Integral Setup <==

  DFHelper Memory: AOs need 2.823 GiB; user supplied 27.940 GiB. Using in-core AOs.

  ==> MemDFJK: Density-Fitted J/K Matrices <==

    J tasked:                   Yes
    K tasked:                   Yes
    wK tasked:                   No
    OpenMP threads:               6
    Memory [MiB]:             28610
    Algorithm:                 Core
    Schwarz Cutoff:           1E-12
    Mask sparsity (%):       4.9093
    Fitting Condition:        1E-10

   => Auxiliary Basis Set <=

  Basis Set: (AUG-CC-PVQZ AUX)
    Blend: AUG-CC-PVQZ-JKFIT
    Number of shells: 246
    Number of basis function: 1034
    Number of Cartesian functions: 1402
    Spherical Harmonics?: true
    Max angular momentum: 5

  Minimum eigenvalue in the overlap matrix is 2.4256989287E-06.
  Using Symmetric Orthogonalization.

  SCF Guess: Superposition of Atomic Densities via on-the-fly atomic UHF.

  ==> Iterations <==

                           Total Energy        Delta E     RMS |[F,P]|

   @DF-RHF iter SAD:   -75.47779803267633   -7.54778e+01   0.00000e+00 
   @DF-RHF iter   1:   -75.98095804197324   -5.03160e-01   7.71828e-04 DIIS
   @DF-RHF iter   2:   -76.03346702543510   -5.25090e-02   5.28595e-04 DIIS
   @DF-RHF iter   3:   -76.06526005877069   -3.17930e-02   3.60442e-05 DIIS
   @DF-RHF iter   4:   -76.06565464859686   -3.94590e-04   8.86687e-06 DIIS
   @DF-RHF iter   5:   -76.06568033266839   -2.56841e-05   2.00872e-06 DIIS
   @DF-RHF iter   6:   -76.06568245002455   -2.11736e-06   4.53084e-07 DIIS
   @DF-RHF iter   7:   -76.06568256960234   -1.19578e-07   8.48334e-08 DIIS
   @DF-RHF iter   8:   -76.06568257329064   -3.68830e-09   1.37209e-08 DIIS
   @DF-RHF iter   9:   -76.06568257336887   -7.82308e-11   3.30872e-09 DIIS
  Energy and wave function converged.


  ==> Post-Iterations <==

    Orbital Energies [Eh]
    ---------------------

    Doubly Occupied:                                                      

       1A    -20.565477     2A     -1.350398     3A     -0.715412  
       4A     -0.583924     5A     -0.510066  

    Virtual:                                                              

       6A      0.020160     7A      0.032769     8A      0.038310  
       9A      0.042221    10A      0.055112    11A      0.055227  
      12A      0.065142    13A      0.077398    14A      0.090360  
      15A      0.100834    16A      0.111821    17A      0.117849  
      18A      0.127086    19A      0.130918    20A      0.140678  
      21A      0.151853    22A      0.162628    23A      0.164160  
      24A      0.174936    25A      0.198576    26A      0.199982  
      27A      0.208951    28A      0.223933    29A      0.234448  
      30A      0.236191    31A      0.244980    32A      0.257167  
      33A      0.260414    34A      0.273476    35A      0.275796  
      36A      0.276738    37A      0.280019    38A      0.282737  
      39A      0.299701    40A      0.305341    41A      0.317928  
      42A      0.319630    43A      0.330727    44A      0.335240  
      45A      0.338576    46A      0.345796    47A      0.353010  
      48A      0.366135    49A      0.372157    50A      0.379498  
      51A      0.385928    52A      0.387391    53A      0.397518  
      54A      0.403421    55A      0.415144    56A      0.422459  
      57A      0.435645    58A      0.453370    59A      0.453623  
      60A      0.464000    61A      0.469472    62A      0.488871  
      63A      0.508773    64A      0.531247    65A      0.540476  
      66A      0.545317    67A      0.559207    68A      0.559513  
      69A      0.576414    70A      0.590987    71A      0.600093  
      72A      0.602832    73A      0.622509    74A      0.628454  
      75A      0.629755    76A      0.646446    77A      0.662019  
      78A      0.685194    79A      0.687191    80A      0.693027  
      81A      0.712425    82A      0.714577    83A      0.727394  
      84A      0.743395    85A      0.758482    86A      0.759660  
      87A      0.760214    88A      0.769220    89A      0.780006  
      90A      0.781772    91A      0.794906    92A      0.795526  
      93A      0.810450    94A      0.811181    95A      0.823816  
      96A      0.826417    97A      0.840226    98A      0.842935  
      99A      0.848853   100A      0.858913   101A      0.865379  
     102A      0.875237   103A      0.880243   104A      0.891346  
     105A      0.897015   106A      0.905821   107A      0.916268  
     108A      0.919956   109A      0.938539   110A      0.943734  
     111A      0.950959   112A      0.961553   113A      0.973112  
     114A      0.987543   115A      0.995527   116A      1.002794  
     117A      1.024306   118A      1.030974   119A      1.043533  
     120A      1.054490   121A      1.057879   122A      1.082649  
     123A      1.102537   124A      1.106785   125A      1.122677  
     126A      1.127490   127A      1.139443   128A      1.144547  
     129A      1.170589   130A      1.170834   131A      1.193102  
     132A      1.193433   133A      1.198093   134A      1.225971  
     135A      1.232579   136A      1.237244   137A      1.242942  
     138A      1.253140   139A      1.276647   140A      1.285903  
     141A      1.300406   142A      1.303079   143A      1.318691  
     144A      1.340076   145A      1.353666   146A      1.377760  
     147A      1.380064   148A      1.382895   149A      1.421362  
     150A      1.450151   151A      1.492611   152A      1.509501  
     153A      1.509508   154A      1.537670   155A      1.552098  
     156A      1.554865   157A      1.576553   158A      1.593283  
     159A      1.609109   160A      1.611418   161A      1.620962  
     162A      1.626549   163A      1.630908   164A      1.641266  
     165A      1.650478   166A      1.682440   167A      1.695048  
     168A      1.701427   169A      1.722140   170A      1.723535  
     171A      1.729791   172A      1.746357   173A      1.751484  
     174A      1.774745   175A      1.788311   176A      1.793029  
     177A      1.795767   178A      1.809445   179A      1.818119  
     180A      1.826454   181A      1.845977   182A      1.852833  
     183A      1.856111   184A      1.865154   185A      1.891774  
     186A      1.900653   187A      1.908595   188A      1.928328  
     189A      1.930486   190A      1.940289   191A      1.942334  
     192A      1.949050   193A      1.959736   194A      1.973184  
     195A      1.978840   196A      1.998919   197A      2.000561  
     198A      2.016237   199A      2.020756   200A      2.040890  
     201A      2.055468   202A      2.059672   203A      2.062077  
     204A      2.067568   205A      2.076128   206A      2.097122  
     207A      2.099398   208A      2.117000   209A      2.138130  
     210A      2.141669   211A      2.163498   212A      2.164580  
     213A      2.197043   214A      2.198303   215A      2.211544  
     216A      2.220100   217A      2.220746   218A      2.240334  
     219A      2.246430   220A      2.271612   221A      2.279002  
     222A      2.284332   223A      2.285718   224A      2.299637  
     225A      2.302138   226A      2.333765   227A      2.335946  
     228A      2.341167   229A      2.356054   230A      2.359123  
     231A      2.409214   232A      2.419604   233A      2.419631  
     234A      2.451252   235A      2.458122   236A      2.460451  
     237A      2.472348   238A      2.491315   239A      2.514057  
     240A      2.529671   241A      2.558804   242A      2.560544  
     243A      2.581095   244A      2.610876   245A      2.631870  
     246A      2.637452   247A      2.664539   248A      2.668454  
     249A      2.693478   250A      2.708517   251A      2.710056  
     252A      2.755652   253A      2.787204   254A      2.790768  
     255A      2.805292   256A      2.846874   257A      2.867862  
     258A      2.887838   259A      2.911442   260A      2.986270  
     261A      2.996104   262A      3.002965   263A      3.026638  
     264A      3.027025   265A      3.055114   266A      3.059556  
     267A      3.071623   268A      3.103928   269A      3.111436  
     270A      3.128282   271A      3.137351   272A      3.138855  
     273A      3.179824   274A      3.190017   275A      3.206175  
     276A      3.213946   277A      3.223937   278A      3.284355  
     279A      3.302171   280A      3.304448   281A      3.311013  
     282A      3.338448   283A      3.360014   284A      3.375118  
     285A      3.379359   286A      3.386595   287A      3.413522  
     288A      3.430052   289A      3.445466   290A      3.467280  
     291A      3.467991   292A      3.473209   293A      3.479181  
     294A      3.491027   295A      3.530659   296A      3.536942  
     297A      3.562624   298A      3.588881   299A      3.593827  
     300A      3.603867   301A      3.634174   302A      3.653071  
     303A      3.709700   304A      3.727926   305A      3.756668  
     306A      3.780519   307A      3.783319   308A      3.800924  
     309A      3.841822   310A      3.855562   311A      3.885263  
     312A      3.894513   313A      3.938517   314A      3.947691  
     315A      3.957320   316A      3.973781   317A      3.981949  
     318A      4.004110   319A      4.014806   320A      4.032472  
     321A      4.058522   322A      4.077391   323A      4.087906  
     324A      4.106707   325A      4.111409   326A      4.138748  
     327A      4.139494   328A      4.159706   329A      4.197285  
     330A      4.249754   331A      4.253284   332A      4.276736  
     333A      4.276946   334A      4.294984   335A      4.326915  
     336A      4.330236   337A      4.350746   338A      4.388891  
     339A      4.433439   340A      4.464959   341A      4.504369  
     342A      4.525781   343A      4.562474   344A      4.564776  
     345A      4.619049   346A      4.629588   347A      4.643813  
     348A      4.660506   349A      4.676088   350A      4.729048  
     351A      4.731983   352A      4.738440   353A      4.831808  
     354A      4.834928   355A      4.835036   356A      4.891723  
     357A      4.909366   358A      4.933102   359A      4.949009  
     360A      4.960091   361A      4.995957   362A      5.017154  
     363A      5.056328   364A      5.064773   365A      5.099891  
     366A      5.134442   367A      5.143205   368A      5.172032  
     369A      5.240737   370A      5.260540   371A      5.264313  
     372A      5.311474   373A      5.411205   374A      5.413207  
     375A      5.476403   376A      5.505898   377A      5.516299  
     378A      5.570106   379A      5.632636   380A      5.649289  
     381A      5.661610   382A      5.670137   383A      5.685751  
     384A      5.715880   385A      5.723724   386A      5.771284  
     387A      5.792500   388A      5.887353   389A      5.920490  
     390A      5.947104   391A      6.007775   392A      6.093093  
     393A      6.210827   394A      6.214188   395A      6.260478  
     396A      6.273219   397A      6.311836   398A      6.426146  
     399A      6.466993   400A      6.649525   401A      6.719300  
     402A      6.803609   403A      6.896966   404A      6.909843  
     405A      6.921788   406A      6.922431   407A      6.971037  
     408A      7.031246   409A      7.048166   410A      7.054697  
     411A      7.079712   412A      7.108731   413A      7.191498  
     414A      7.265724   415A      7.273366   416A      7.282544  
     417A      7.317634   418A      7.329915   419A      7.390412  
     420A      7.452623   421A      7.483849   422A      7.503389  
     423A      7.608955   424A      7.617711   425A      7.638277  
     426A      7.705885   427A      7.715844   428A      7.794978  
     429A      7.795366   430A      7.815564   431A      7.823946  
     432A      7.850835   433A      7.858197   434A      7.887912  
     435A      7.907984   436A      7.933625   437A      7.962691  
     438A      7.990272   439A      8.040233   440A      8.064978  
     441A      8.096293   442A      8.151851   443A      8.188898  
     444A      8.207258   445A      8.275887   446A      8.300494  
     447A      8.311065   448A      8.358982   449A      8.392860  
     450A      8.444382   451A      8.456099   452A      8.491250  
     453A      8.496583   454A      8.546377   455A      8.567226  
     456A      8.629842   457A      8.646433   458A      8.688691  
     459A      8.710014   460A      8.744314   461A      8.760061  
     462A      8.787203   463A      8.823049   464A      8.829674  
     465A      8.847806   466A      8.851818   467A      8.877372  
     468A      8.884335   469A      8.890247   470A      8.951462  
     471A      9.006548   472A      9.041295   473A      9.067724  
     474A      9.128133   475A      9.193673   476A      9.237209  
     477A      9.239078   478A      9.252328   479A      9.323476  
     480A      9.375239   481A      9.405779   482A      9.421841  
     483A      9.429585   484A      9.461732   485A      9.505813  
     486A      9.527987   487A      9.528952   488A      9.632011  
     489A      9.681448   490A      9.707007   491A      9.734269  
     492A      9.741824   493A      9.777727   494A      9.790139  
     495A      9.803310   496A      9.822311   497A      9.875502  
     498A      9.919267   499A      9.922635   500A      9.944709  
     501A      9.973310   502A      9.997914   503A     10.010058  
     504A     10.019667   505A     10.045233   506A     10.068930  
     507A     10.097330   508A     10.126524   509A     10.151522  
     510A     10.184586   511A     10.195774   512A     10.205658  
     513A     10.257823   514A     10.261235   515A     10.343252  
     516A     10.398590   517A     10.423448   518A     10.441409  
     519A     10.549803   520A     10.583972   521A     10.602748  
     522A     10.618011   523A     10.684719   524A     10.726050  
     525A     10.728020   526A     10.761961   527A     10.787501  
     528A     10.887066   529A     10.902931   530A     10.955763  
     531A     11.000787   532A     11.024585   533A     11.027626  
     534A     11.096109   535A     11.125050   536A     11.230141  
     537A     11.269133   538A     11.288434   539A     11.292602  
     540A     11.332464   541A     11.333903   542A     11.344669  
     543A     11.348363   544A     11.395264   545A     11.486277  
     546A     11.566240   547A     11.590512   548A     11.713500  
     549A     11.736152   550A     11.810245   551A     11.954009  
     552A     11.971142   553A     12.043535   554A     12.141768  
     555A     12.163518   556A     12.171811   557A     12.177309  
     558A     12.214136   559A     12.319462   560A     12.335717  
     561A     12.392904   562A     12.399743   563A     12.421370  
     564A     12.576363   565A     12.662808   566A     12.667482  
     567A     12.736138   568A     12.786278   569A     12.804799  
     570A     12.889329   571A     12.943711   572A     12.961756  
     573A     13.091599   574A     13.256726   575A     13.280992  
     576A     13.354170   577A     13.453765   578A     13.510149  
     579A     13.562407   580A     13.914691   581A     14.022951  
     582A     14.379236   583A     14.454203   584A     14.539780  
     585A     14.796722   586A     14.797517   587A     14.819300  
     588A     14.853471   589A     14.947934   590A     14.988624  
     591A     15.156232   592A     15.380763   593A     15.896745  
     594A     16.458611   595A     16.625892   596A     16.730503  
     597A     16.974571   598A     17.227173   599A     17.459921  
     600A     17.532983   601A     17.574180   602A     19.464970  
     603A     20.850948   604A     21.891294   605A     22.002885  
     606A     46.224578   607A     72.669019   608A     98.891443  

    Final Occupation by Irrep:
              A 
    DOCC [     5 ]

  @DF-RHF Final Energy:   -76.06568257336887

   => Energetics <=

    Nuclear Repulsion Energy =              9.1503254330310089
    One-Electron Energy =                -122.9814588458118862
    Two-Electron Energy =                  37.7654508394120043
    Total Energy =                        -76.0656825733688606

Computation Completed


Properties will be evaluated at   0.000000,   0.000000,   0.000000 [a0]

Properties computed using the SCF density matrix

  Nuclear Dipole Moment: [e a0]
     X:    36.3657      Y:     2.3828      Z:   -11.9675

  Electronic Dipole Moment: [e a0]
     X:   -35.6186      Y:    -2.2551      Z:    11.7836

  Dipole Moment: [e a0]
     X:     0.7471      Y:     0.1276      Z:    -0.1840     Total:     0.7799

  Dipole Moment: [D]
     X:     1.8989      Y:     0.3244      Z:    -0.4676     Total:     1.9823


*** tstop() called on node37.bme.utexas.edu at Sat Apr 11 16:30:41 2020
Module time:
	user time   =      75.19 seconds =       1.25 minutes
	system time =       3.86 seconds =       0.06 minutes
	total time  =         15 seconds =       0.25 minutes
Total time:
	user time   =     121.95 seconds =       2.03 minutes
	system time =       6.44 seconds =       0.11 minutes
	total time  =         26 seconds =       0.43 minutes

*** tstart() called on node37.bme.utexas.edu
*** at Sat Apr 11 16:30:41 2020


  //>>>>>>>>>>>>>>>>>>>>>>>>>>>>>>>>>>>//
  //               DFMP2               //
  //<<<<<<<<<<<<<<<<<<<<<<<<<<<<<<<<<<<//

   => Loading Basis Set <=

    Name: (AUG-CC-PVQZ AUX)
    Role: RIFIT
    Keyword: DF_BASIS_MP2
    atoms 1               entry N          line   258 file /home/liuchw/anaconda3/envs/psi4env/share/psi4/basis/aug-cc-pvqz-ri.gbs 
    atoms 2-4, 6-8, 10-11 entry H          line    30 file /home/liuchw/anaconda3/envs/psi4env/share/psi4/basis/aug-cc-pvqz-ri.gbs 
    atoms 5               entry C          line   184 file /home/liuchw/anaconda3/envs/psi4env/share/psi4/basis/aug-cc-pvqz-ri.gbs 
    atoms 9               entry O          line   332 file /home/liuchw/anaconda3/envs/psi4env/share/psi4/basis/aug-cc-pvqz-ri.gbs 

	 --------------------------------------------------------
	                          DF-MP2                         
	      2nd-Order Density-Fitted Moller-Plesset Theory     
	              RMP2 Wavefunction,   6 Threads             
	                                                         
	        Rob Parrish, Justin Turney, Andy Simmonett,      
	           Ed Hohenstein, and C. David Sherrill          
	 --------------------------------------------------------

   => Auxiliary Basis Set <=

  Basis Set: (AUG-CC-PVQZ AUX)
    Blend: AUG-CC-PVQZ-RI
    Number of shells: 268
    Number of basis function: 1144
    Number of Cartesian functions: 1551
    Spherical Harmonics?: true
    Max angular momentum: 5

	 --------------------------------------------------------
	                 NBF =   608, NAUX =  1144
	 --------------------------------------------------------
	   CLASS    FOCC     OCC    AOCC    AVIR     VIR    FVIR
	   PAIRS       0       5       5     603     603       0
	 --------------------------------------------------------

	-----------------------------------------------------------
	 ==================> DF-MP2 Energies <==================== 
	-----------------------------------------------------------
	 Reference Energy          =     -76.0656825733688748 [Eh]
	 Singles Energy            =      -0.0000000000000000 [Eh]
	 Same-Spin Energy          =      -0.0727869197081237 [Eh]
	 Opposite-Spin Energy      =      -0.2447601818695469 [Eh]
	 Correlation Energy        =      -0.3175471015776706 [Eh]
	 Total Energy              =     -76.3832296749465485 [Eh]
	-----------------------------------------------------------
	 ================> DF-SCS-MP2 Energies <================== 
	-----------------------------------------------------------
	 SCS Same-Spin Scale       =       0.3333333333333333 [-]
	 SCS Opposite-Spin Scale   =       1.2000000000000000 [-]
	 SCS Same-Spin Energy      =      -0.0242623065693746 [Eh]
	 SCS Opposite-Spin Energy  =      -0.2937122182434563 [Eh]
	 SCS Correlation Energy    =      -0.3179745248128308 [Eh]
	 SCS Total Energy          =     -76.3836570981817005 [Eh]
	-----------------------------------------------------------


*** tstop() called on node37.bme.utexas.edu at Sat Apr 11 16:30:49 2020
Module time:
	user time   =      30.50 seconds =       0.51 minutes
	system time =       2.50 seconds =       0.04 minutes
	total time  =          8 seconds =       0.13 minutes
Total time:
	user time   =     152.46 seconds =       2.54 minutes
	system time =       8.94 seconds =       0.15 minutes
	total time  =         34 seconds =       0.57 minutes

  //>>>>>>>>>>>>>>>>>>>>>>>>>>>>>>>>>>>//
  //  CBS Results: mp2/aug-cc-pv[tq]z  //
  //<<<<<<<<<<<<<<<<<<<<<<<<<<<<<<<<<<<//


   ==> HF <==

   HI-zeta (4) Energy:               -76.065682573369


   ==> Helgaker 2-point correlated extrapolation for method: MP2 <==

   LO-zeta (3) Energy:               -76.345124087777
   HI-zeta (4) Energy:               -76.383229674947
   Alpha (exponent) Value:             3.000000000000
   Extrapolated Energy:              -76.411036454773

   @Extrapolated MP2/(T,Q):          -76.411036454773



   ==> Helgaker 2-point correlated extrapolation for method: HF <==

   LO-zeta (3) Energy:               -76.060363734391
   HI-zeta (4) Energy:               -76.065682573369
   Alpha (exponent) Value:             3.000000000000
   Extrapolated Energy:              -76.069563888298

   @Extrapolated HF/(T,Q):           -76.069563888298


   ==> Components <==

  ---------------------------------------------------------------------------------------------------------
                          Method / Basis                      Rqd      Energy [Eh]   Variable
  ---------------------------------------------------------------------------------------------------------
                              hf / aug-cc-pvtz                  *     -76.06036373   HF TOTAL ENERGY
                             mp2 / aug-cc-pvtz                  *     -76.34512409   MP2 TOTAL ENERGY
                              hf / aug-cc-pvqz                  *     -76.06568257   HF TOTAL ENERGY
                             mp2 / aug-cc-pvqz                  *     -76.38322967   MP2 TOTAL ENERGY
  ---------------------------------------------------------------------------------------------------------

   ==> Stages <==

  ---------------------------------------------------------------------------------------------------------
      Stage               Method / Basis                       Wt      Energy [Eh]   Scheme
  ---------------------------------------------------------------------------------------------------------
        scf                   hf / aug-cc-pvqz                  1     -76.06568257   xtpl_highest_1
       corl                  mp2 / aug-cc-pv[tq]z               1     -76.41103645   corl_xtpl_helgaker_2
       corl                   hf / aug-cc-pv[tq]z              -1     -76.06956389   corl_xtpl_helgaker_2
[...]
     159A      1.214827   160A      1.231920   161A      1.254048  
     162A      1.261341   163A      1.274405   164A      1.305815  
     165A      1.309806   166A      1.327470   167A      1.335072  
     168A      1.350267   169A      1.366961   170A      1.373221  
     171A      1.377470   172A      1.377762   173A      1.400822  
     174A      1.408129   175A      1.419240   176A      1.447788  
     177A      1.456323   178A      1.469063   179A      1.474689  
     180A      1.477216   181A      1.496885   182A      1.499916  
     183A      1.527210   184A      1.540505   185A      1.553372  
     186A      1.556092   187A      1.572033   188A      1.587020  
     189A      1.594201   190A      1.601924   191A      1.622720  
     192A      1.628665   193A      1.635131   194A      1.648842  
     195A      1.650754   196A      1.682693   197A      1.690635  
     198A      1.693024   199A      1.720960   200A      1.743030  
     201A      1.746116   202A      1.749698   203A      1.763043  
     204A      1.766503   205A      1.771628   206A      1.785672  
     207A      1.790495   208A      1.799311   209A      1.810784  
     210A      1.833565   211A      1.833625   212A      1.838020  
     213A      1.850571   214A      1.866408   215A      1.870776  
     216A      1.879712   217A      1.889613   218A      1.909904  
     219A      1.913619   220A      1.918761   221A      1.937001  
     222A      1.942508   223A      1.951627   224A      1.957796  
     225A      1.963287   226A      1.977233   227A      1.983852  
     228A      1.993499   229A      1.996602   230A      2.011008  
     231A      2.028928   232A      2.029906   233A      2.055322  
     234A      2.074227   235A      2.080492   236A      2.086495  
     237A      2.107172   238A      2.113454   239A      2.122884  
     240A      2.128147   241A      2.140657   242A      2.163510  
     243A      2.176913   244A      2.198574   245A      2.203110  
     246A      2.235342   247A      2.264691   248A      2.272734  
     249A      2.290580   250A      2.316315   251A      2.333049  
     252A      2.343329   253A      2.345547   254A      2.376225  
     255A      2.381628   256A      2.395260   257A      2.431687  
     258A      2.459819   259A      2.466017   260A      2.490207  
     261A      2.491092   262A      2.505401   263A      2.520887  
     264A      2.547811   265A      2.580167   266A      2.591057  
     267A      2.603996   268A      2.606677   269A      2.611755  
     270A      2.636122   271A      2.638626   272A      2.662735  
     273A      2.682366   274A      2.688976   275A      2.695764  
     276A      2.731723   277A      2.736110   278A      2.765788  
     279A      2.812358   280A      2.815370   281A      2.853282  
     282A      2.869951   283A      2.876220   284A      2.884077  
     285A      2.897666   286A      2.926002   287A      2.939731  
     288A      2.945204   289A      2.974287   290A      2.983631  
     291A      2.988202   292A      3.002463   293A      3.008674  
     294A      3.020886   295A      3.021535   296A      3.048501  
     297A      3.074107   298A      3.081208   299A      3.094117  
     300A      3.122474   301A      3.123392   302A      3.138303  
     303A      3.138875   304A      3.193672   305A      3.197740  
     306A      3.264599   307A      3.271709   308A      3.296048  
     309A      3.310807   310A      3.326088   311A      3.335434  
     312A      3.389892   313A      3.402401   314A      3.409537  
     315A      3.436574   316A      3.440010   317A      3.512737  
     318A      3.520423   319A      3.537586   320A      3.552274  
     321A      3.568243   322A      3.594822   323A      3.627321  
     324A      3.649019   325A      3.668064   326A      3.690827  
     327A      3.693267   328A      3.731238   329A      3.753712  
     330A      3.756510   331A      3.802790   332A      3.811636  
     333A      3.826976   334A      3.832185   335A      3.866431  
     336A      3.891205   337A      3.894988   338A      3.920477  
     339A      3.938956   340A      3.941806   341A      3.972768  
     342A      4.004540   343A      4.017293   344A      4.054159  
     345A      4.072625   346A      4.085929   347A      4.106058  
     348A      4.110741   349A      4.128026   350A      4.149223  
     351A      4.157767   352A      4.165905   353A      4.177819  
     354A      4.208303   355A      4.227471   356A      4.268445  
     357A      4.271175   358A      4.306779   359A      4.362828  
     360A      4.372032   361A      4.397889   362A      4.419513  
     363A      4.457310   364A      4.495399   365A      4.525597  
     366A      4.526635   367A      4.539720   368A      4.572996  
     369A      4.592728   370A      4.600402   371A      4.694634  
     372A      4.708128   373A      4.710334   374A      4.719786  
     375A      4.723454   376A      4.748371   377A      4.755979  
     378A      4.841040   379A      4.844459   380A      4.904885  
     381A      4.908596   382A      4.938847   383A      4.979858  
     384A      4.986970   385A      5.014299   386A      5.055635  
     387A      5.103791   388A      5.114402   389A      5.146298  
     390A      5.240766   391A      5.246395   392A      5.261053  
     393A      5.394486   394A      5.437046   395A      5.463079  
     396A      5.511954   397A      5.557194   398A      5.596090  
     399A      5.611632   400A      5.707313   401A      5.764190  
     402A      5.929825   403A      5.983844   404A      6.093013  
     405A      6.101193   406A      6.124465   407A      6.126501  
     408A      6.309007   409A      6.322601   410A      6.372528  
     411A      6.498029   412A      6.573501   413A      6.585112  
     414A      6.622556   415A      6.697377   416A      6.709640  
     417A      6.712440   418A      6.724499   419A      6.727663  
     420A      6.745584   421A      6.782271   422A      6.782878  
     423A      6.805773   424A      6.813023   425A      6.838380  
     426A      6.873778   427A      6.900519   428A      6.901805  
     429A      6.943215   430A      6.983565   431A      7.012688  
     432A      7.034401   433A      7.057669   434A      7.121173  
     435A      7.169436   436A      7.199105   437A      7.235032  
     438A      7.301664   439A      7.306546   440A      7.398344  
     441A      7.406963   442A      7.408789   443A      7.459010  
     444A      7.472144   445A      7.514101   446A      7.579742  
     447A      7.609321   448A      7.635337   449A      7.669341  
     450A      7.681890   451A      7.685850   452A      7.710287  
     453A      7.711215   454A      7.727416   455A      7.776596  
     456A      7.792592   457A      7.794135   458A      7.802805  
     459A      7.832194   460A      7.850580   461A      7.939954  
     462A      7.963538   463A      7.978499   464A      7.997502  
     465A      8.005801   466A      8.022254   467A      8.079478  
     468A      8.121718   469A      8.134142   470A      8.142383  
     471A      8.158628   472A      8.159275   473A      8.268365  
     474A      8.304436   475A      8.319316   476A      8.415754  
     477A      8.453568   478A      8.472608   479A      8.485089  
     480A      8.511485   481A      8.531222   482A      8.533645  
     483A      8.547688   484A      8.593569   485A      8.599295  
     486A      8.646693   487A      8.674379   488A      8.686717  
     489A      8.717340   490A      8.747406   491A      8.793072  
     492A      8.814130   493A      8.819899   494A      8.891074  
     495A      8.930470   496A      8.942172   497A      8.956603  
     498A      8.962309   499A      8.979867   500A      8.994164  
     501A      9.027337   502A      9.041749   503A      9.092013  
     504A      9.102820   505A      9.118049   506A      9.149657  
     507A      9.182407   508A      9.213131   509A      9.228499  
     510A      9.267327   511A      9.281810   512A      9.323549  
     513A      9.356109   514A      9.369979   515A      9.374374  
     516A      9.382914   517A      9.390248   518A      9.497287  
     519A      9.517172   520A      9.530039   521A      9.532257  
     522A      9.547716   523A      9.617725   524A      9.636669  
     525A      9.639272   526A      9.717177   527A      9.775504  
     528A      9.807588   529A      9.832279   530A      9.885659  
     531A      9.895488   532A      9.943925   533A      9.944769  
     534A      9.965213   535A      9.983097   536A      9.990725  
     537A      9.998105   538A     10.088602   539A     10.112816  
     540A     10.212985   541A     10.257163   542A     10.314859  
     543A     10.339009   544A     10.351217   545A     10.360559  
     546A     10.460179   547A     10.525203   548A     10.534005  
     549A     10.552489   550A     10.563297   551A     10.704775  
     552A     10.769016   553A     10.800372   554A     10.802219  
     555A     10.845494   556A     10.898115   557A     10.999073  
     558A     11.003548   559A     11.056745   560A     11.085529  
     561A     11.093921   562A     11.130712   563A     11.155458  
     564A     11.171787   565A     11.224279   566A     11.251608  
     567A     11.303668   568A     11.348066   569A     11.375770  
     570A     11.394531   571A     11.567066   572A     11.661453  
     573A     11.751581   574A     11.797572   575A     11.915660  
     576A     11.958958   577A     11.969595   578A     12.003144  
     579A     12.146046   580A     12.173348   581A     12.255072  
     582A     12.298934   583A     12.336440   584A     12.684954  
     585A     12.729597   586A     12.732801   587A     12.774554  
     588A     12.793530   589A     13.043866   590A     13.105977  
     591A     13.141772   592A     13.223354   593A     13.239111  
     594A     13.595932   595A     13.817865   596A     14.276467  
     597A     14.356414   598A     14.609489   599A     14.698334  
     600A     14.980002   601A     15.143875   602A     15.176531  
     603A     15.547174   604A     17.038621   605A     17.262554  
     606A     29.173891   607A     38.283201   608A     46.037967  

    Final Occupation by Irrep:
              A 
    DOCC [    14 ]

  @DF-RHF Final Energy:  -171.71572113975128

   => Energetics <=

    Nuclear Repulsion Energy =             89.0826040645763584
    One-Electron Energy =                -403.8199436546991024
    Two-Electron Energy =                 143.0216184503714771
    Total Energy =                       -171.7157211397512810

Computation Completed


Properties will be evaluated at   0.000000,   0.000000,   0.000000 [a0]

Properties computed using the SCF density matrix

  Nuclear Dipole Moment: [e a0]
     X:    -1.5118      Y:     0.1614      Z:     0.7025

  Electronic Dipole Moment: [e a0]
     X:     1.1321      Y:    -0.6379      Z:    -0.9329

  Dipole Moment: [e a0]
     X:    -0.3797      Y:    -0.4765      Z:    -0.2305     Total:     0.6514

  Dipole Moment: [D]
     X:    -0.9652      Y:    -1.2112      Z:    -0.5858     Total:     1.6558


*** tstop() called on node37.bme.utexas.edu at Sat Apr 11 16:31:57 2020
Module time:
	user time   =      84.55 seconds =       1.41 minutes
	system time =       2.94 seconds =       0.05 minutes
	total time  =         17 seconds =       0.28 minutes
Total time:
	user time   =     468.82 seconds =       7.81 minutes
	system time =      22.11 seconds =       0.37 minutes
	total time  =        102 seconds =       1.70 minutes

*** tstart() called on node37.bme.utexas.edu
*** at Sat Apr 11 16:31:57 2020


  //>>>>>>>>>>>>>>>>>>>>>>>>>>>>>>>>>>>//
  //               DFMP2               //
  //<<<<<<<<<<<<<<<<<<<<<<<<<<<<<<<<<<<//

   => Loading Basis Set <=

    Name: (AUG-CC-PVQZ AUX)
    Role: RIFIT
    Keyword: DF_BASIS_MP2
    atoms 1               entry N          line   258 file /home/liuchw/anaconda3/envs/psi4env/share/psi4/basis/aug-cc-pvqz-ri.gbs 
    atoms 2-4, 6-8, 10-11 entry H          line    30 file /home/liuchw/anaconda3/envs/psi4env/share/psi4/basis/aug-cc-pvqz-ri.gbs 
    atoms 5               entry C          line   184 file /home/liuchw/anaconda3/envs/psi4env/share/psi4/basis/aug-cc-pvqz-ri.gbs 
    atoms 9               entry O          line   332 file /home/liuchw/anaconda3/envs/psi4env/share/psi4/basis/aug-cc-pvqz-ri.gbs 

	 --------------------------------------------------------
	                          DF-MP2                         
	      2nd-Order Density-Fitted Moller-Plesset Theory     
	              RMP2 Wavefunction,   6 Threads             
	                                                         
	        Rob Parrish, Justin Turney, Andy Simmonett,      
	           Ed Hohenstein, and C. David Sherrill          
	 --------------------------------------------------------

   => Auxiliary Basis Set <=

  Basis Set: (AUG-CC-PVQZ AUX)
    Blend: AUG-CC-PVQZ-RI
    Number of shells: 268
    Number of basis function: 1144
    Number of Cartesian functions: 1551
    Spherical Harmonics?: true
    Max angular momentum: 5

	 --------------------------------------------------------
	                 NBF =   608, NAUX =  1144
	 --------------------------------------------------------
	   CLASS    FOCC     OCC    AOCC    AVIR     VIR    FVIR
	   PAIRS       0      14      14     594     594       0
	 --------------------------------------------------------

	-----------------------------------------------------------
	 ==================> DF-MP2 Energies <==================== 
	-----------------------------------------------------------
	 Reference Energy          =    -171.7157211397512810 [Eh]
	 Singles Energy            =      -0.0000000000000000 [Eh]
	 Same-Spin Energy          =      -0.1708865225890656 [Eh]
	 Opposite-Spin Energy      =      -0.6353240005132290 [Eh]
	 Correlation Energy        =      -0.8062105231022947 [Eh]
	 Total Energy              =    -172.5219316628535751 [Eh]
	-----------------------------------------------------------
	 ================> DF-SCS-MP2 Energies <================== 
	-----------------------------------------------------------
	 SCS Same-Spin Scale       =       0.3333333333333333 [-]
	 SCS Opposite-Spin Scale   =       1.2000000000000000 [-]
	 SCS Same-Spin Energy      =      -0.0569621741963552 [Eh]
	 SCS Opposite-Spin Energy  =      -0.7623888006158748 [Eh]
	 SCS Correlation Energy    =      -0.8193509748122300 [Eh]
	 SCS Total Energy          =    -172.5350721145635191 [Eh]
	-----------------------------------------------------------


*** tstop() called on node37.bme.utexas.edu at Sat Apr 11 16:32:05 2020
Module time:
	user time   =      35.07 seconds =       0.58 minutes
	system time =       1.37 seconds =       0.02 minutes
	total time  =          8 seconds =       0.13 minutes
Total time:
	user time   =     503.89 seconds =       8.40 minutes
	system time =      23.48 seconds =       0.39 minutes
	total time  =        110 seconds =       1.83 minutes

  //>>>>>>>>>>>>>>>>>>>>>>>>>>>>>>>>>>>//
  //  CBS Results: mp2/aug-cc-pv[tq]z  //
  //<<<<<<<<<<<<<<<<<<<<<<<<<<<<<<<<<<<//


   ==> HF <==

   HI-zeta (4) Energy:               -171.715721139751


   ==> Helgaker 2-point correlated extrapolation for method: MP2 <==

   LO-zeta (3) Energy:               -172.432182594362
   HI-zeta (4) Energy:               -172.521931662854
   Alpha (exponent) Value:             3.000000000000
   Extrapolated Energy:              -172.587424226347

   @Extrapolated MP2/(T,Q):          -172.587424226347



   ==> Helgaker 2-point correlated extrapolation for method: HF <==

   LO-zeta (3) Energy:               -171.704268220936
   HI-zeta (4) Energy:               -171.715721139751
   Alpha (exponent) Value:             3.000000000000
   Extrapolated Energy:              -171.724078675103

   @Extrapolated HF/(T,Q):           -171.724078675103


   ==> Components <==

  ---------------------------------------------------------------------------------------------------------
                          Method / Basis                      Rqd      Energy [Eh]   Variable
  ---------------------------------------------------------------------------------------------------------
                              hf / aug-cc-pvtz                  *    -171.70426822   HF TOTAL ENERGY
                             mp2 / aug-cc-pvtz                  *    -172.43218259   MP2 TOTAL ENERGY
                              hf / aug-cc-pvqz                  *    -171.71572114   HF TOTAL ENERGY
                             mp2 / aug-cc-pvqz                  *    -172.52193166   MP2 TOTAL ENERGY
  ---------------------------------------------------------------------------------------------------------

   ==> Stages <==

  ---------------------------------------------------------------------------------------------------------
      Stage               Method / Basis                       Wt      Energy [Eh]   Scheme
  ---------------------------------------------------------------------------------------------------------
        scf                   hf / aug-cc-pvqz                  1    -171.71572114   xtpl_highest_1
       corl                  mp2 / aug-cc-pv[tq]z               1    -172.58742423   corl_xtpl_helgaker_2
       corl                   hf / aug-cc-pv[tq]z              -1    -171.72407868   corl_xtpl_helgaker_2
  ---------------------------------------------------------------------------------------------------------

   ==> CBS <==

  ---------------------------------------------------------------------------------------------------------
      Stage               Method / Basis                               Energy [Eh]   Scheme
  ---------------------------------------------------------------------------------------------------------
        scf                   hf / aug-cc-pvqz                       -171.71572114   xtpl_highest_1
       corl                  mp2 / aug-cc-pv[tq]z                      -0.86334555   corl_xtpl_helgaker_2
      total                  CBS                                     -172.57906669   
  ---------------------------------------------------------------------------------------------------------
   => Loading Basis Set <=

    Name: DEF2-SVP
    Role: ORBITAL
    Keyword: BASIS
    atoms 1               entry N          line   110 file /home/liuchw/anaconda3/envs/psi4env/share/psi4/basis/def2-svp.gbs 
    atoms 2-4, 6-8, 10-11 entry H          line    15 file /home/liuchw/anaconda3/envs/psi4env/share/psi4/basis/def2-svp.gbs 
    atoms 5               entry C          line    90 file /home/liuchw/anaconda3/envs/psi4env/share/psi4/basis/def2-svp.gbs 
    atoms 9               entry O          line   130 file /home/liuchw/anaconda3/envs/psi4env/share/psi4/basis/def2-svp.gbs 


       N-Body: Complex Energy (fragments = (1, 2), basis = (1, 2):  -172.57906669099518)

   ==> N-Body: Counterpoise Corrected (CP) energies <==

   n-Body     Total Energy [Eh]       I.E. [kcal/mol]      Delta [kcal/mol]
        1     -172.549259151403        0.000000000000        0.000000000000
        2     -172.579344892096      -18.879087310372      -18.879087310372

   => Loading Basis Set <=

    Name: DEF2-SVP
    Role: ORBITAL
    Keyword: BASIS
    atoms 1               entry N          line   110 file /home/liuchw/anaconda3/envs/psi4env/share/psi4/basis/def2-svp.gbs 
    atoms 2-4, 6-8, 10-11 entry H          line    15 file /home/liuchw/anaconda3/envs/psi4env/share/psi4/basis/def2-svp.gbs 
    atoms 5               entry C          line    90 file /home/liuchw/anaconda3/envs/psi4env/share/psi4/basis/def2-svp.gbs 
    atoms 9               entry O          line   130 file /home/liuchw/anaconda3/envs/psi4env/share/psi4/basis/def2-svp.gbs 


    Psi4 stopped on: Saturday, 11 April 2020 04:32PM
    Psi4 wall time for execution: 0:01:51.71

*** Psi4 exiting successfully. Buy a developer a beer!
