
    -----------------------------------------------------------------------
          Psi4: An Open-Source Ab Initio Electronic Structure Package
                               Psi4 1.4a2.dev224 

                         Git: Rev {master} e453b16 


    R. M. Parrish, L. A. Burns, D. G. A. Smith, A. C. Simmonett,
    A. E. DePrince III, E. G. Hohenstein, U. Bozkaya, A. Yu. Sokolov,
    R. Di Remigio, R. M. Richard, J. F. Gonthier, A. M. James,
    H. R. McAlexander, A. Kumar, M. Saitow, X. Wang, B. P. Pritchard,
    P. Verma, H. F. Schaefer III, K. Patkowski, R. A. King, E. F. Valeev,
    F. A. Evangelista, J. M. Turney, T. D. Crawford, and C. D. Sherrill,
    J. Chem. Theory Comput. 13(7) pp 3185--3197 (2017).
    (doi: 10.1021/acs.jctc.7b00174)


                         Additional Contributions by
    P. Kraus, H. Kruse, M. H. Lechner, M. C. Schieber, R. A. Shaw,
    A. Alenaizan, R. Galvelis, Z. L. Glick, S. Lehtola, and J. P. Misiewicz

    -----------------------------------------------------------------------


    Psi4 started on: Saturday, 11 April 2020 04:43PM

    Process ID: 90767
    Host:       node62.bme.utexas.edu
    PSIDATADIR: /home/liuchw/anaconda3/envs/psi4env/share/psi4
    Memory:     500.0 MiB
    Threads:    6
    
  ==> Input File <==

--------------------------------------------------------------------------
#Generated by lconvert.py for cbs job

memory 40 GB

molecule  {
1 1
  C       -2.4829410     0.1455680     0.1158820
  N       -3.7412650     0.5451140     0.2945210
  N       -2.2230010    -1.0650260    -0.3624870
  N       -1.4721240     0.9526640     0.4138500
  H       -0.5254700     0.6273740     0.2698000
  H       -1.6318070     1.8741450     0.7774880
  H       -3.9495100     1.4582400     0.6554170
  H       -4.5132720    -0.0567230     0.0726920
  H       -2.9623560    -1.7010510    -0.5984670
  H       -1.2599090    -1.3461520    -0.4895060
--
0 1
  O        0.7106980    -0.8684420    -0.3374000
  H        1.2585340    -0.7701650    -1.1227330
  H        1.2834220    -1.3225470     0.2889430
units angstrom
no_reorient
symmetry c1
}

set {
scf_type DF
mp2_type DF
e_convergence 7
reference rhf
}

energy('mp2/aug-cc-pv[tq]z', bsse_type='cp')
--------------------------------------------------------------------------

  Memory set to  37.253 GiB by Python driver.

Scratch directory: /scratch//


   ===> N-Body Interaction Abacus <===
        BSSE Treatment:                     cp
        Number of 1-body computations:     4
        Number of 2-body computations:     1

   ==> N-Body: Now computing 1-body complexes <==


       N-Body: Computing complex (1/4) with fragments (2,) in the basis of fragments (2,).


Scratch directory: /scratch//

  //>>>>>>>>>>>>>>>>>>>>>>>>>>>>>>>>>>>//
  //   CBS Setup: mp2/aug-cc-pv[tq]z   //
  //<<<<<<<<<<<<<<<<<<<<<<<<<<<<<<<<<<<//

    Naive listing of computations required.
             hf / aug-cc-pvqz              for  HF TOTAL ENERGY
            mp2 / aug-cc-pvtz              for  MP2 TOTAL ENERGY
            mp2 / aug-cc-pvqz              for  MP2 TOTAL ENERGY
             hf / aug-cc-pvtz              for  HF TOTAL ENERGY
             hf / aug-cc-pvqz              for  HF TOTAL ENERGY

    Enlightened listing of computations required.
            mp2 / aug-cc-pvtz              for  MP2 TOTAL ENERGY
            mp2 / aug-cc-pvqz              for  MP2 TOTAL ENERGY

    Full listing of computations to be obtained (required and bonus).
             hf / aug-cc-pvtz              for  HF TOTAL ENERGY
            mp2 / aug-cc-pvtz              for  MP2 TOTAL ENERGY
             hf / aug-cc-pvqz              for  HF TOTAL ENERGY
            mp2 / aug-cc-pvqz              for  MP2 TOTAL ENERGY

  //>>>>>>>>>>>>>>>>>>>>>>>>>>>>>>>>>>>>//
  // CBS Computation: MP2 / AUG-CC-PVTZ //
  //<<<<<<<<<<<<<<<<<<<<<<<<<<<<<<<<<<<<//


Scratch directory: /scratch//

*** tstart() called on node62.bme.utexas.edu
*** at Sat Apr 11 16:43:08 2020

   => Loading Basis Set <=

    Name: AUG-CC-PVTZ
    Role: ORBITAL
    Keyword: BASIS
    atoms 1   entry O          line   331 file /home/liuchw/anaconda3/envs/psi4env/share/psi4/basis/aug-cc-pvtz.gbs 
    atoms 2-3 entry H          line    40 file /home/liuchw/anaconda3/envs/psi4env/share/psi4/basis/aug-cc-pvtz.gbs 


         ---------------------------------------------------------
                                   SCF
               by Justin Turney, Rob Parrish, Andy Simmonett
                          and Daniel G. A. Smith
                              RHF Reference
                        6 Threads,  38146 MiB Core
         ---------------------------------------------------------

  ==> Geometry <==

    Molecular point group: c1
    Full point group: C1

    Geometry (in Angstrom), charge = 0, multiplicity = 1:

       Center              X                  Y                   Z               Mass       
    ------------   -----------------  -----------------  -----------------  -----------------
         O            2.439432693119    -0.774541072787    -0.346236384933    15.994914619570
         H            2.987268693119    -0.676264072787    -1.131569384933     1.007825032230
         H            3.012156693119    -1.228646072787     0.280106615067     1.007825032230

  Running in c1 symmetry.

  Rotational constants: A =     14.55401  B =      0.13271  C =      0.13151 [cm^-1]
  Rotational constants: A = 436318.35780  B =   3978.50615  C =   3942.55651 [MHz]
  Nuclear repulsion =    9.145161292493418

  Charge       = 0
  Multiplicity = 1
  Electrons    = 10
  Nalpha       = 5
  Nbeta        = 5

  ==> Algorithm <==

  SCF Algorithm Type is DF.
  DIIS enabled.
  MOM disabled.
  Fractional occupation disabled.
  Guess Type is SAD.
  Energy threshold   = 1.00e-07
  Density threshold  = 1.00e-08
  Integral threshold = 0.00e+00

  ==> Primary Basis <==

  Basis Set: AUG-CC-PVTZ
    Blend: AUG-CC-PVTZ
    Number of shells: 32
    Number of basis function: 92
    Number of Cartesian functions: 105
    Spherical Harmonics?: true
    Max angular momentum: 3

   => Loading Basis Set <=

    Name: (AUG-CC-PVTZ AUX)
    Role: JKFIT
    Keyword: DF_BASIS_SCF
    atoms 1   entry O          line   286 file /home/liuchw/anaconda3/envs/psi4env/share/psi4/basis/aug-cc-pvtz-jkfit.gbs 
    atoms 2-3 entry H          line    70 file /home/liuchw/anaconda3/envs/psi4env/share/psi4/basis/aug-cc-pvtz-jkfit.gbs 

  ==> Pre-Iterations <==

   -------------------------------------------------------
    Irrep   Nso     Nmo     Nalpha   Nbeta   Ndocc  Nsocc
   -------------------------------------------------------
     A         92      92       0       0       0       0
   -------------------------------------------------------
    Total      92      92       5       5       5       0
   -------------------------------------------------------

  ==> Integral Setup <==

  DFHelper Memory: AOs need 0.015 GiB; user supplied 27.940 GiB. Using in-core AOs.

  ==> MemDFJK: Density-Fitted J/K Matrices <==

    J tasked:                   Yes
    K tasked:                   Yes
    wK tasked:                   No
    OpenMP threads:               6
    Memory [MiB]:             28610
    Algorithm:                 Core
    Schwarz Cutoff:           1E-12
    Mask sparsity (%):       0.0000
    Fitting Condition:        1E-10

   => Auxiliary Basis Set <=

  Basis Set: (AUG-CC-PVTZ AUX)
    Blend: AUG-CC-PVTZ-JKFIT
    Number of shells: 58
    Number of basis function: 196
    Number of Cartesian functions: 241
    Spherical Harmonics?: true
    Max angular momentum: 4

  Minimum eigenvalue in the overlap matrix is 3.9021773867E-04.
  Using Symmetric Orthogonalization.

  SCF Guess: Superposition of Atomic Densities via on-the-fly atomic UHF.

  ==> Iterations <==

                           Total Energy        Delta E     RMS |[F,P]|

   @DF-RHF iter SAD:   -75.47253924809259   -7.54725e+01   0.00000e+00 
   @DF-RHF iter   1:   -75.97563647779788   -5.03097e-01   5.08908e-03 DIIS
   @DF-RHF iter   2:   -76.02803866809585   -5.24022e-02   3.48247e-03 DIIS
   @DF-RHF iter   3:   -76.05974072887153   -3.17021e-02   2.36671e-04 DIIS
   @DF-RHF iter   4:   -76.06013343082215   -3.92702e-04   5.70348e-05 DIIS
   @DF-RHF iter   5:   -76.06015835899061   -2.49282e-05   1.29909e-05 DIIS
   @DF-RHF iter   6:   -76.06016040769839   -2.04871e-06   2.84392e-06 DIIS
   @DF-RHF iter   7:   -76.06016051544481   -1.07746e-07   5.09730e-07 DIIS
   @DF-RHF iter   8:   -76.06016051848073   -3.03592e-09   8.57230e-08 DIIS
   @DF-RHF iter   9:   -76.06016051854816   -6.74305e-11   2.11103e-08 DIIS
   @DF-RHF iter  10:   -76.06016051855225   -4.09273e-12   3.11062e-09 DIIS
  Energy and wave function converged.


  ==> Post-Iterations <==

    Orbital Energies [Eh]
    ---------------------

    Doubly Occupied:                                                      

       1A    -20.568404     2A     -1.351298     3A     -0.713768  
       4A     -0.585104     5A     -0.510099  

    Virtual:                                                              

       6A      0.029332     7A      0.047701     8A      0.135844  
       9A      0.158876    10A      0.175160    11A      0.183128  
      12A      0.226937    13A      0.244895    14A      0.265473  
      15A      0.299751    16A      0.309968    17A      0.365777  
      18A      0.437092    19A      0.465805    20A      0.598992  
      21A      0.658563    22A      0.707786    23A      0.722870  
      24A      0.731764    25A      0.830354    26A      0.846440  
      27A      0.892565    28A      0.912265    29A      0.918232  
      30A      0.922383    31A      0.930845    32A      0.960968  
      33A      1.020314    34A      1.042620    35A      1.082325  
      36A      1.108021    37A      1.176162    38A      1.181737  
      39A      1.261546    40A      1.509667    41A      1.533972  
      42A      1.581442    43A      1.806304    44A      1.820996  
      45A      1.981720    46A      2.116473    47A      2.262919  
      48A      2.315563    49A      2.327408    50A      2.418268  
      51A      2.420891    52A      2.443525    53A      2.480228  
      54A      2.677873    55A      2.698473    56A      2.770216  
      57A      2.813448    58A      2.883512    59A      3.650863  
      60A      3.737779    61A      4.018116    62A      4.081343  
      63A      4.161023    64A      4.246651    65A      4.284533  
      66A      4.372979    67A      4.376675    68A      4.404120  
      69A      4.517648    70A      4.724155    71A      4.840114  
      72A      5.144962    73A      5.148018    74A      5.245738  
      75A      5.317515    76A      5.518612    77A      5.658436  
      78A      6.178198    79A      6.515863    80A      6.714025  
      81A      6.901886    82A      7.134334    83A      7.257002  
      84A      7.296111    85A      7.313621    86A      7.336689  
      87A      7.360079    88A      7.529999    89A      7.896647  
      90A      7.921945    91A      8.799864    92A     15.667593  

    Final Occupation by Irrep:
              A 
    DOCC [     5 ]

  @DF-RHF Final Energy:   -76.06016051855225

   => Energetics <=

    Nuclear Repulsion Energy =              9.1451612924934178
    One-Electron Energy =                -122.9532974666365845
    Two-Electron Energy =                  37.7479756555909063
    Total Energy =                        -76.0601605185522658

Computation Completed


Properties will be evaluated at   0.000000,   0.000000,   0.000000 [a0]

Properties computed using the SCF density matrix

  Nuclear Dipole Moment: [e a0]
     X:    48.2161      Y:   -15.3091      Z:    -6.8434

  Electronic Dipole Moment: [e a0]
     X:   -47.4741      Y:    15.0735      Z:     6.7381

  Dipole Moment: [e a0]
     X:     0.7420      Y:    -0.2356      Z:    -0.1053     Total:     0.7856

  Dipole Moment: [D]
     X:     1.8861      Y:    -0.5989      Z:    -0.2676     Total:     1.9969


*** tstop() called on node62.bme.utexas.edu at Sat Apr 11 16:43:10 2020
Module time:
	user time   =       5.21 seconds =       0.09 minutes
	system time =       0.30 seconds =       0.00 minutes
	total time  =          2 seconds =       0.03 minutes
Total time:
	user time   =       5.21 seconds =       0.09 minutes
	system time =       0.30 seconds =       0.00 minutes
	total time  =          2 seconds =       0.03 minutes

*** tstart() called on node62.bme.utexas.edu
*** at Sat Apr 11 16:43:10 2020


  //>>>>>>>>>>>>>>>>>>>>>>>>>>>>>>>>>>>//
  //               DFMP2               //
  //<<<<<<<<<<<<<<<<<<<<<<<<<<<<<<<<<<<//

   => Loading Basis Set <=

    Name: (AUG-CC-PVTZ AUX)
    Role: RIFIT
    Keyword: DF_BASIS_MP2
    atoms 1   entry O          line   264 file /home/liuchw/anaconda3/envs/psi4env/share/psi4/basis/aug-cc-pvtz-ri.gbs 
    atoms 2-3 entry H          line    30 file /home/liuchw/anaconda3/envs/psi4env/share/psi4/basis/aug-cc-pvtz-ri.gbs 

	 --------------------------------------------------------
	                          DF-MP2                         
	      2nd-Order Density-Fitted Moller-Plesset Theory     
	              RMP2 Wavefunction,   6 Threads             
	                                                         
	        Rob Parrish, Justin Turney, Andy Simmonett,      
	           Ed Hohenstein, and C. David Sherrill          
	 --------------------------------------------------------

   => Auxiliary Basis Set <=

  Basis Set: (AUG-CC-PVTZ AUX)
    Blend: AUG-CC-PVTZ-RI
    Number of shells: 56
    Number of basis function: 198
    Number of Cartesian functions: 246
    Spherical Harmonics?: true
    Max angular momentum: 4

	 --------------------------------------------------------
	                 NBF =    92, NAUX =   198
	 --------------------------------------------------------
	   CLASS    FOCC     OCC    AOCC    AVIR     VIR    FVIR
	   PAIRS       0       5       5      87      87       0
	 --------------------------------------------------------

	-----------------------------------------------------------
	 ==================> DF-MP2 Energies <==================== 
	-----------------------------------------------------------
	 Reference Energy          =     -76.0601605185522516 [Eh]
	 Singles Energy            =      -0.0000000000000000 [Eh]
	 Same-Spin Energy          =      -0.0684394732055941 [Eh]
	 Opposite-Spin Energy      =      -0.2154645012208010 [Eh]
	 Correlation Energy        =      -0.2839039744263951 [Eh]
	 Total Energy              =     -76.3440644929786458 [Eh]
	-----------------------------------------------------------
	 ================> DF-SCS-MP2 Energies <================== 
	-----------------------------------------------------------
	 SCS Same-Spin Scale       =       0.3333333333333333 [-]
	 SCS Opposite-Spin Scale   =       1.2000000000000000 [-]
	 SCS Same-Spin Energy      =      -0.0228131577351980 [Eh]
	 SCS Opposite-Spin Energy  =      -0.2585574014649611 [Eh]
	 SCS Correlation Energy    =      -0.2813705592001592 [Eh]
	 SCS Total Energy          =     -76.3415310777524070 [Eh]
	-----------------------------------------------------------


*** tstop() called on node62.bme.utexas.edu at Sat Apr 11 16:43:11 2020
Module time:
	user time   =       4.21 seconds =       0.07 minutes
	system time =       0.27 seconds =       0.00 minutes
	total time  =          1 seconds =       0.02 minutes
Total time:
	user time   =       9.43 seconds =       0.16 minutes
	system time =       0.57 seconds =       0.01 minutes
	total time  =          3 seconds =       0.05 minutes

  //>>>>>>>>>>>>>>>>>>>>>>>>>>>>>>>>>>>>//
  // CBS Computation: MP2 / AUG-CC-PVQZ //
  //<<<<<<<<<<<<<<<<<<<<<<<<<<<<<<<<<<<<//


Scratch directory: /scratch//

*** tstart() called on node62.bme.utexas.edu
*** at Sat Apr 11 16:43:11 2020

   => Loading Basis Set <=

    Name: AUG-CC-PVQZ
    Role: ORBITAL
    Keyword: BASIS
    atoms 1   entry O          line   423 file /home/liuchw/anaconda3/envs/psi4env/share/psi4/basis/aug-cc-pvqz.gbs 
    atoms 2-3 entry H          line    40 file /home/liuchw/anaconda3/envs/psi4env/share/psi4/basis/aug-cc-pvqz.gbs 


         ---------------------------------------------------------
                                   SCF
               by Justin Turney, Rob Parrish, Andy Simmonett
                          and Daniel G. A. Smith
                              RHF Reference
                        6 Threads,  38146 MiB Core
         ---------------------------------------------------------

  ==> Geometry <==

    Molecular point group: c1
    Full point group: C1

    Geometry (in Angstrom), charge = 0, multiplicity = 1:

       Center              X                  Y                   Z               Mass       
    ------------   -----------------  -----------------  -----------------  -----------------
         O            2.439432693119    -0.774541072787    -0.346236384933    15.994914619570
         H            2.987268693119    -0.676264072787    -1.131569384933     1.007825032230
         H            3.012156693119    -1.228646072787     0.280106615067     1.007825032230

  Running in c1 symmetry.

  Rotational constants: A =     14.55401  B =      0.13271  C =      0.13151 [cm^-1]
  Rotational constants: A = 436318.35780  B =   3978.50615  C =   3942.55651 [MHz]
  Nuclear repulsion =    9.145161292493418

  Charge       = 0
  Multiplicity = 1
  Electrons    = 10
  Nalpha       = 5
  Nbeta        = 5

  ==> Algorithm <==

  SCF Algorithm Type is DF.
  DIIS enabled.
  MOM disabled.
  Fractional occupation disabled.
  Guess Type is SAD.
  Energy threshold   = 1.00e-07
  Density threshold  = 1.00e-08
  Integral threshold = 0.00e+00

  ==> Primary Basis <==

  Basis Set: AUG-CC-PVQZ
    Blend: AUG-CC-PVQZ
    Number of shells: 48
    Number of basis function: 172
    Number of Cartesian functions: 215
    Spherical Harmonics?: true
    Max angular momentum: 4

   => Loading Basis Set <=

    Name: (AUG-CC-PVQZ AUX)
    Role: JKFIT
    Keyword: DF_BASIS_SCF
    atoms 1   entry O          line   318 file /home/liuchw/anaconda3/envs/psi4env/share/psi4/basis/aug-cc-pvqz-jkfit.gbs 
    atoms 2-3 entry H          line    70 file /home/liuchw/anaconda3/envs/psi4env/share/psi4/basis/aug-cc-pvqz-jkfit.gbs 

  ==> Pre-Iterations <==

   -------------------------------------------------------
    Irrep   Nso     Nmo     Nalpha   Nbeta   Ndocc  Nsocc
   -------------------------------------------------------
     A        172     172       0       0       0       0
   -------------------------------------------------------
    Total     172     172       5       5       5       0
   -------------------------------------------------------

  ==> Integral Setup <==

  DFHelper Memory: AOs need 0.074 GiB; user supplied 27.940 GiB. Using in-core AOs.

  ==> MemDFJK: Density-Fitted J/K Matrices <==

    J tasked:                   Yes
    K tasked:                   Yes
    wK tasked:                   No
    OpenMP threads:               6
    Memory [MiB]:             28610
    Algorithm:                 Core
    Schwarz Cutoff:           1E-12
    Mask sparsity (%):       0.0000
    Fitting Condition:        1E-10

   => Auxiliary Basis Set <=

  Basis Set: (AUG-CC-PVQZ AUX)
    Blend: AUG-CC-PVQZ-JKFIT
    Number of shells: 70
    Number of basis function: 294
    Number of Cartesian functions: 400
    Spherical Harmonics?: true
    Max angular momentum: 5

  Minimum eigenvalue in the overlap matrix is 8.8046449583E-05.
  Using Symmetric Orthogonalization.

  SCF Guess: Superposition of Atomic Densities via on-the-fly atomic UHF.

  ==> Iterations <==

                           Total Energy        Delta E     RMS |[F,P]|

   @DF-RHF iter SAD:   -75.47767575578428   -7.54777e+01   0.00000e+00 
   @DF-RHF iter   1:   -75.98070227133765   -5.03027e-01   2.72794e-03 DIIS
   @DF-RHF iter   2:   -76.03320340625655   -5.25011e-02   1.87090e-03 DIIS
   @DF-RHF iter   3:   -76.06510449785812   -3.19011e-02   1.27555e-04 DIIS
   @DF-RHF iter   4:   -76.06549931039375   -3.94813e-04   3.14255e-05 DIIS
   @DF-RHF iter   5:   -76.06552515528693   -2.58449e-05   7.13281e-06 DIIS
   @DF-RHF iter   6:   -76.06552728794375   -2.13266e-06   1.60471e-06 DIIS
   @DF-RHF iter   7:   -76.06552740747323   -1.19529e-07   2.97470e-07 DIIS
   @DF-RHF iter   8:   -76.06552741107402   -3.60079e-09   4.80490e-08 DIIS
   @DF-RHF iter   9:   -76.06552741114996   -7.59428e-11   1.15586e-08 DIIS
   @DF-RHF iter  10:   -76.06552741115436   -4.40536e-12   1.73523e-09 DIIS
  Energy and wave function converged.


  ==> Post-Iterations <==

    Orbital Energies [Eh]
    ---------------------

    Doubly Occupied:                                                      

       1A    -20.565947     2A     -1.350567     3A     -0.713733  
       4A     -0.585152     5A     -0.510232  

    Virtual:                                                              

       6A      0.026857     7A      0.043095     8A      0.114086  
       9A      0.133594    10A      0.151079    11A      0.158688  
      12A      0.184849    13A      0.197017    14A      0.209334  
      15A      0.237256    16A      0.257027    17A      0.291546  
      18A      0.357212    19A      0.389552    20A      0.469673  
      21A      0.508698    22A      0.542022    23A      0.547527  
      24A      0.556330    25A      0.614270    26A      0.632624  
      27A      0.647221    28A      0.663457    29A      0.666006  
      30A      0.684737    31A      0.706567    32A      0.718754  
      33A      0.769496    34A      0.788212    35A      0.801641  
      36A      0.802616    37A      0.843316    38A      0.854298  
      39A      0.968464    40A      1.123683    41A      1.136246  
      42A      1.208046    43A      1.331836    44A      1.438790  
      45A      1.481462    46A      1.509296    47A      1.512226  
      48A      1.526866    49A      1.553968    50A      1.590996  
      51A      1.620568    52A      1.636638    53A      1.662561  
      54A      1.664529    55A      1.689093    56A      1.702701  
      57A      1.736060    58A      1.752507    59A      1.766924  
      60A      1.775731    61A      1.842190    62A      1.865141  
      63A      1.893627    64A      1.915039    65A      1.980968  
      66A      2.008950    67A      2.034212    68A      2.039284  
      69A      2.101048    70A      2.206202    71A      2.217101  
      72A      2.312376    73A      2.436936    74A      2.624077  
      75A      2.629312    76A      2.884215    77A      2.955283  
      78A      2.993721    79A      3.039575    80A      3.054254  
      81A      3.083798    82A      3.267022    83A      3.297982  
      84A      3.307475    85A      3.489683    86A      3.588399  
      87A      3.642015    88A      3.687535    89A      3.718439  
      90A      3.772993    91A      3.923924    92A      4.078295  
      93A      4.167353    94A      4.167854    95A      4.178491  
      96A      4.179052    97A      4.234802    98A      4.328424  
      99A      4.433087   100A      4.576699   101A      4.721297  
     102A      4.744662   103A      4.779086   104A      4.780259  
     105A      4.807583   106A      4.875554   107A      4.994670  
     108A      5.236625   109A      5.313234   110A      5.516208  
     111A      5.526720   112A      5.852534   113A      5.882341  
     114A      6.069500   115A      6.226593   116A      6.823370  
     117A      6.881373   118A      6.881421   119A      6.907270  
     120A      7.721467   121A      7.770045   122A      7.784904  
     123A      7.822819   124A      7.829940   125A      7.893776  
     126A      7.924096   127A      8.018957   128A      8.175388  
     129A      8.195760   130A      8.526896   131A      8.626407  
     132A      8.647998   133A      8.698368   134A      8.776474  
     135A      8.842236   136A      8.987831   137A      9.037779  
     138A      9.211023   139A      9.661434   140A      9.895716  
     141A      9.897367   142A      9.932024   143A      9.980009  
     144A     10.320100   145A     10.443656   146A     10.693111  
     147A     11.015127   148A     11.084161   149A     11.086307  
     150A     11.269706   151A     11.308181   152A     11.410643  
     153A     11.709714   154A     11.791036   155A     11.832385  
     156A     11.985696   157A     12.194511   158A     12.201632  
     159A     12.608132   160A     12.727094   161A     12.819221  
     162A     12.895231   163A     13.178030   164A     13.971257  
     165A     14.003895   166A     14.485310   167A     14.784538  
     168A     14.878894   169A     15.228030   170A     16.821782  
     171A     17.268120   172A     45.470187  

    Final Occupation by Irrep:
              A 
    DOCC [     5 ]

  @DF-RHF Final Energy:   -76.06552741115436

   => Energetics <=

    Nuclear Repulsion Energy =              9.1451612924934178
    One-Electron Energy =                -122.9701154335424462
    Two-Electron Energy =                  37.7594267298946775
    Total Energy =                        -76.0655274111543633

Computation Completed


Properties will be evaluated at   0.000000,   0.000000,   0.000000 [a0]

Properties computed using the SCF density matrix

  Nuclear Dipole Moment: [e a0]
     X:    48.2161      Y:   -15.3091      Z:    -6.8434

  Electronic Dipole Moment: [e a0]
     X:   -47.4749      Y:    15.0737      Z:     6.7382

  Dipole Moment: [e a0]
     X:     0.7412      Y:    -0.2354      Z:    -0.1052     Total:     0.7848

  Dipole Moment: [D]
     X:     1.8840      Y:    -0.5983      Z:    -0.2673     Total:     1.9947


*** tstop() called on node62.bme.utexas.edu at Sat Apr 11 16:43:13 2020
Module time:
	user time   =       8.16 seconds =       0.14 minutes
	system time =       0.47 seconds =       0.01 minutes
	total time  =          2 seconds =       0.03 minutes
Total time:
	user time   =      17.63 seconds =       0.29 minutes
	system time =       1.04 seconds =       0.02 minutes
	total time  =          5 seconds =       0.08 minutes

*** tstart() called on node62.bme.utexas.edu
*** at Sat Apr 11 16:43:13 2020


  //>>>>>>>>>>>>>>>>>>>>>>>>>>>>>>>>>>>//
  //               DFMP2               //
  //<<<<<<<<<<<<<<<<<<<<<<<<<<<<<<<<<<<//

   => Loading Basis Set <=

    Name: (AUG-CC-PVQZ AUX)
    Role: RIFIT
    Keyword: DF_BASIS_MP2
    atoms 1   entry O          line   332 file /home/liuchw/anaconda3/envs/psi4env/share/psi4/basis/aug-cc-pvqz-ri.gbs 
    atoms 2-3 entry H          line    30 file /home/liuchw/anaconda3/envs/psi4env/share/psi4/basis/aug-cc-pvqz-ri.gbs 

	 --------------------------------------------------------
	                          DF-MP2                         
	      2nd-Order Density-Fitted Moller-Plesset Theory     
	              RMP2 Wavefunction,   6 Threads             
	                                                         
	        Rob Parrish, Justin Turney, Andy Simmonett,      
	           Ed Hohenstein, and C. David Sherrill          
	 --------------------------------------------------------

   => Auxiliary Basis Set <=

  Basis Set: (AUG-CC-PVQZ AUX)
    Blend: AUG-CC-PVQZ-RI
    Number of shells: 76
    Number of basis function: 328
    Number of Cartesian functions: 447
    Spherical Harmonics?: true
    Max angular momentum: 5

	 --------------------------------------------------------
	                 NBF =   172, NAUX =   328
	 --------------------------------------------------------
	   CLASS    FOCC     OCC    AOCC    AVIR     VIR    FVIR
	   PAIRS       0       5       5     167     167       0
	 --------------------------------------------------------

	-----------------------------------------------------------
	 ==================> DF-MP2 Energies <==================== 
	-----------------------------------------------------------
	 Reference Energy          =     -76.0655274111543633 [Eh]
	 Singles Energy            =      -0.0000000000000000 [Eh]
	 Same-Spin Energy          =      -0.0727625734195772 [Eh]
	 Opposite-Spin Energy      =      -0.2444083887084052 [Eh]
	 Correlation Energy        =      -0.3171709621279825 [Eh]
	 Total Energy              =     -76.3826983732823521 [Eh]
	-----------------------------------------------------------
	 ================> DF-SCS-MP2 Energies <================== 
	-----------------------------------------------------------
	 SCS Same-Spin Scale       =       0.3333333333333333 [-]
	 SCS Opposite-Spin Scale   =       1.2000000000000000 [-]
	 SCS Same-Spin Energy      =      -0.0242541911398591 [Eh]
	 SCS Opposite-Spin Energy  =      -0.2932900664500863 [Eh]
	 SCS Correlation Energy    =      -0.3175442575899453 [Eh]
	 SCS Total Energy          =     -76.3830716687443072 [Eh]
	-----------------------------------------------------------


*** tstop() called on node62.bme.utexas.edu at Sat Apr 11 16:43:13 2020
Module time:
	user time   =       3.22 seconds =       0.05 minutes
	system time =       0.15 seconds =       0.00 minutes
	total time  =          0 seconds =       0.00 minutes
Total time:
	user time   =      20.85 seconds =       0.35 minutes
	system time =       1.19 seconds =       0.02 minutes
	total time  =          5 seconds =       0.08 minutes

  //>>>>>>>>>>>>>>>>>>>>>>>>>>>>>>>>>>>//
  //  CBS Results: mp2/aug-cc-pv[tq]z  //
  //<<<<<<<<<<<<<<<<<<<<<<<<<<<<<<<<<<<//


   ==> HF <==

   HI-zeta (4) Energy:               -76.065527411154


   ==> Helgaker 2-point correlated extrapolation for method: MP2 <==

   LO-zeta (3) Energy:               -76.344064492979
   HI-zeta (4) Energy:               -76.382698373282
   Alpha (exponent) Value:             3.000000000000
   Extrapolated Energy:              -76.410890664315

   @Extrapolated MP2/(T,Q):          -76.410890664315



   ==> Helgaker 2-point correlated extrapolation for method: HF <==

   LO-zeta (3) Energy:               -76.060160518552
   HI-zeta (4) Energy:               -76.065527411154
   Alpha (exponent) Value:             3.000000000000
   Extrapolated Energy:              -76.069443792242

   @Extrapolated HF/(T,Q):           -76.069443792242


   ==> Components <==

  ---------------------------------------------------------------------------------------------------------
                          Method / Basis                      Rqd      Energy [Eh]   Variable
  ---------------------------------------------------------------------------------------------------------
                              hf / aug-cc-pvtz                  *     -76.06016052   HF TOTAL ENERGY
                             mp2 / aug-cc-pvtz                  *     -76.34406449   MP2 TOTAL ENERGY
                              hf / aug-cc-pvqz                  *     -76.06552741   HF TOTAL ENERGY
                             mp2 / aug-cc-pvqz                  *     -76.38269837   MP2 TOTAL ENERGY
  ---------------------------------------------------------------------------------------------------------

   ==> Stages <==

  ---------------------------------------------------------------------------------------------------------
      Stage               Method / Basis                       Wt      Energy [Eh]   Scheme
  ---------------------------------------------------------------------------------------------------------
        scf                   hf / aug-cc-pvqz                  1     -76.06552741   xtpl_highest_1
       corl                  mp2 / aug-cc-pv[tq]z               1     -76.41089066   corl_xtpl_helgaker_2
       corl                   hf / aug-cc-pv[tq]z              -1     -76.06944379   corl_xtpl_helgaker_2
  ---------------------------------------------------------------------------------------------------------

   ==> CBS <==

  ---------------------------------------------------------------------------------------------------------
      Stage               Method / Basis                               Energy [Eh]   Scheme
  ---------------------------------------------------------------------------------------------------------
        scf                   hf / aug-cc-pvqz                        -76.06552741   xtpl_highest_1
       corl                  mp2 / aug-cc-pv[tq]z                      -0.34144687   corl_xtpl_helgaker_2
      total                  CBS                                      -76.40697428   
  ---------------------------------------------------------------------------------------------------------
   => Loading Basis Set <=

    Name: DEF2-SVP
    Role: ORBITAL
    Keyword: BASIS
    atoms 1   entry O          line   130 file /home/liuchw/anaconda3/envs/psi4env/share/psi4/basis/def2-svp.gbs 
    atoms 2-3 entry H          line    15 file /home/liuchw/anaconda3/envs/psi4env/share/psi4/basis/def2-svp.gbs 


       N-Body: Complex Energy (fragments = (2,), basis = (2,):   -76.40697428322679)

       N-Body: Computing complex (2/4) with fragments (2,) in the basis of fragments (1, 2).


Scratch directory: /scratch//

  //>>>>>>>>>>>>>>>>>>>>>>>>>>>>>>>>>>>//
  //   CBS Setup: mp2/aug-cc-pv[tq]z   //
  //<<<<<<<<<<<<<<<<<<<<<<<<<<<<<<<<<<<//

    Naive listing of computations required.
             hf / aug-cc-pvqz              for  HF TOTAL ENERGY
            mp2 / aug-cc-pvtz              for  MP2 TOTAL ENERGY
            mp2 / aug-cc-pvqz              for  MP2 TOTAL ENERGY
             hf / aug-cc-pvtz              for  HF TOTAL ENERGY
             hf / aug-cc-pvqz              for  HF TOTAL ENERGY

    Enlightened listing of computations required.
            mp2 / aug-cc-pvtz              for  MP2 TOTAL ENERGY
            mp2 / aug-cc-pvqz              for  MP2 TOTAL ENERGY

    Full listing of computations to be obtained (required and bonus).
             hf / aug-cc-pvtz              for  HF TOTAL ENERGY
            mp2 / aug-cc-pvtz              for  MP2 TOTAL ENERGY
             hf / aug-cc-pvqz              for  HF TOTAL ENERGY
            mp2 / aug-cc-pvqz              for  MP2 TOTAL ENERGY

  //>>>>>>>>>>>>>>>>>>>>>>>>>>>>>>>>>>>>//
  // CBS Computation: MP2 / AUG-CC-PVTZ //
  //<<<<<<<<<<<<<<<<<<<<<<<<<<<<<<<<<<<<//


Scratch directory: /scratch//

*** tstart() called on node62.bme.utexas.edu
*** at Sat Apr 11 16:43:14 2020

   => Loading Basis Set <=

    Name: AUG-CC-PVTZ
    Role: ORBITAL
    Keyword: BASIS
    atoms 1           entry C          line   239 file /home/liuchw/anaconda3/envs/psi4env/share/psi4/basis/aug-cc-pvtz.gbs 
    atoms 2-4         entry N          line   285 file /home/liuchw/anaconda3/envs/psi4env/share/psi4/basis/aug-cc-pvtz.gbs 
    atoms 5-10, 12-13 entry H          line    40 file /home/liuchw/anaconda3/envs/psi4env/share/psi4/basis/aug-cc-pvtz.gbs 
    atoms 11          entry O          line   331 file /home/liuchw/anaconda3/envs/psi4env/share/psi4/basis/aug-cc-pvtz.gbs 


         ---------------------------------------------------------
                                   SCF
               by Justin Turney, Rob Parrish, Andy Simmonett
                          and Daniel G. A. Smith
                              RHF Reference
                        6 Threads,  38146 MiB Core
         ---------------------------------------------------------

  ==> Geometry <==

    Molecular point group: c1
    Full point group: C1

    Geometry (in Angstrom), charge = 0, multiplicity = 1:

       Center              X                  Y                   Z               Mass       
    ------------   -----------------  -----------------  -----------------  -----------------
      Gh(C)          -0.754206306881     0.239468927213     0.107045615067    12.000000000000
      Gh(N)          -2.012530306881     0.639014927213     0.285684615067    14.003074004430
      Gh(N)          -0.494266306881    -0.971125072787    -0.371323384933    14.003074004430
      Gh(N)           0.256610693119     1.046564927213     0.405013615067    14.003074004430
      Gh(H)           1.203264693119     0.721274927213     0.260963615067     1.007825032230
      Gh(H)           0.096927693119     1.968045927213     0.768651615067     1.007825032230
      Gh(H)          -2.220775306881     1.552140927213     0.646580615067     1.007825032230
      Gh(H)          -2.784537306881     0.037177927213     0.063855615067     1.007825032230
      Gh(H)          -1.233621306881    -1.607150072787    -0.607303384933     1.007825032230
      Gh(H)           0.468825693119    -1.252251072787    -0.498342384933     1.007825032230
         O            2.439432693119    -0.774541072787    -0.346236384933    15.994914619570
         H            2.987268693119    -0.676264072787    -1.131569384933     1.007825032230
         H            3.012156693119    -1.228646072787     0.280106615067     1.007825032230

  Running in c1 symmetry.

  Rotational constants: A =      0.33628  B =      0.07793  C =      0.06382 [cm^-1]
  Rotational constants: A =  10081.48951  B =   2336.27128  C =   1913.36158 [MHz]
  Nuclear repulsion =    9.145161292493418

  Charge       = 0
  Multiplicity = 1
  Electrons    = 10
  Nalpha       = 5
  Nbeta        = 5

  ==> Algorithm <==

  SCF Algorithm Type is DF.
  DIIS enabled.
  MOM disabled.
  Fractional occupation disabled.
  Guess Type is SAD.
  Energy threshold   = 1.00e-07
  Density threshold  = 1.00e-08
  Integral threshold = 0.00e+00

  ==> Primary Basis <==

  Basis Set: AUG-CC-PVTZ
    Blend: AUG-CC-PVTZ
    Number of shells: 142
    Number of basis function: 414
    Number of Cartesian functions: 475
    Spherical Harmonics?: true
    Max angular momentum: 3

   => Loading Basis Set <=

    Name: (AUG-CC-PVTZ AUX)
    Role: JKFIT
    Keyword: DF_BASIS_SCF
    atoms 1           entry C          line   162 file /home/liuchw/anaconda3/envs/psi4env/share/psi4/basis/aug-cc-pvtz-jkfit.gbs 
    atoms 2-4         entry N          line   224 file /home/liuchw/anaconda3/envs/psi4env/share/psi4/basis/aug-cc-pvtz-jkfit.gbs 
    atoms 5-10, 12-13 entry H          line    70 file /home/liuchw/anaconda3/envs/psi4env/share/psi4/basis/aug-cc-pvtz-jkfit.gbs 
    atoms 11          entry O          line   286 file /home/liuchw/anaconda3/envs/psi4env/share/psi4/basis/aug-cc-pvtz-jkfit.gbs 

  ==> Pre-Iterations <==

   -------------------------------------------------------
    Irrep   Nso     Nmo     Nalpha   Nbeta   Ndocc  Nsocc
   -------------------------------------------------------
     A        414     414       0       0       0       0
   -------------------------------------------------------
    Total     414     414       5       5       5       0
   -------------------------------------------------------

  ==> Integral Setup <==

  DFHelper Memory: AOs need 1.139 GiB; user supplied 27.940 GiB. Using in-core AOs.

  ==> MemDFJK: Density-Fitted J/K Matrices <==

    J tasked:                   Yes
    K tasked:                   Yes
    wK tasked:                   No
    OpenMP threads:               6
    Memory [MiB]:             28610
    Algorithm:                 Core
    Schwarz Cutoff:           1E-12
    Mask sparsity (%):       3.7714
    Fitting Condition:        1E-10

   => Auxiliary Basis Set <=

  Basis Set: (AUG-CC-PVTZ AUX)
    Blend: AUG-CC-PVTZ-JKFIT
    Number of shells: 262
    Number of basis function: 888
    Number of Cartesian functions: 1095
    Spherical Harmonics?: true
    Max angular momentum: 4

  Minimum eigenvalue in the overlap matrix is 1.2468505923E-05.
  Using Symmetric Orthogonalization.

  SCF Guess: Superposition of Atomic Densities via on-the-fly atomic UHF.

  ==> Iterations <==

                           Total Energy        Delta E     RMS |[F,P]|

   @DF-RHF iter SAD:   -75.47253917919643   -7.54725e+01   0.00000e+00 
   @DF-RHF iter   1:   -75.97576051893033   -5.03221e-01   1.13103e-03 DIIS
   @DF-RHF iter   2:   -76.02818018465427   -5.24197e-02   7.73894e-04 DIIS
   @DF-RHF iter   3:   -76.05987176739643   -3.16916e-02   5.26123e-05 DIIS
   @DF-RHF iter   4:   -76.06026466548913   -3.92898e-04   1.27030e-05 DIIS
   @DF-RHF iter   5:   -76.06028970858071   -2.50431e-05   2.89229e-06 DIIS
   @DF-RHF iter   6:   -76.06029176585949   -2.05728e-06   6.33664e-07 DIIS
   @DF-RHF iter   7:   -76.06029187431608   -1.08457e-07   1.13904e-07 DIIS
   @DF-RHF iter   8:   -76.06029187739944   -3.08336e-09   1.91993e-08 DIIS
   @DF-RHF iter   9:   -76.06029187746798   -6.85390e-11   4.71667e-09 DIIS
  Energy and wave function converged.


  ==> Post-Iterations <==

    Orbital Energies [Eh]
    ---------------------

    Doubly Occupied:                                                      

       1A    -20.568155     2A     -1.351153     3A     -0.713626  
       4A     -0.584999     5A     -0.510052  

    Virtual:                                                              

       6A      0.023201     7A      0.031882     8A      0.040160  
       9A      0.046190    10A      0.053544    11A      0.064821  
      12A      0.079063    13A      0.082828    14A      0.086256  
      15A      0.093247    16A      0.116931    17A      0.122693  
      18A      0.132862    19A      0.137533    20A      0.144952  
      21A      0.148570    22A      0.162809    23A      0.163799  
      24A      0.173645    25A      0.184577    26A      0.191281  
      27A      0.194859    28A      0.199594    29A      0.208085  
      30A      0.221353    31A      0.228987    32A      0.252315  
      33A      0.257587    34A      0.259374    35A      0.269245  
      36A      0.283463    37A      0.302975    38A      0.334539  
      39A      0.340482    40A      0.351283    41A      0.351818  
      42A      0.356596    43A      0.359382    44A      0.361224  
      45A      0.363296    46A      0.381180    47A      0.381290  
      48A      0.388935    49A      0.389088    50A      0.396440  
      51A      0.397158    52A      0.407785    53A      0.414242  
      54A      0.417099    55A      0.419381    56A      0.423307  
      57A      0.446647    58A      0.447130    59A      0.454527  
      60A      0.464257    61A      0.466940    62A      0.471090  
      63A      0.487996    64A      0.488649    65A      0.502961  
      66A      0.503464    67A      0.514051    68A      0.585178  
      69A      0.611009    70A      0.611120    71A      0.611744  
      72A      0.621131    73A      0.635791    74A      0.668058  
      75A      0.678431    76A      0.697683    77A      0.712029  
      78A      0.717993    79A      0.732876    80A      0.736301  
      81A      0.740502    82A      0.768472    83A      0.770993  
      84A      0.779087    85A      0.785427    86A      0.793404  
      87A      0.799971    88A      0.805668    89A      0.809012  
      90A      0.818337    91A      0.832176    92A      0.833795  
      93A      0.837361    94A      0.845813    95A      0.866966  
      96A      0.873486    97A      0.884812    98A      0.893933  
      99A      0.902789   100A      0.904893   101A      0.914588  
     102A      0.940829   103A      0.952807   104A      0.962255  
     105A      0.968168   106A      0.982269   107A      0.985400  
     108A      0.987839   109A      1.003752   110A      1.033759  
     111A      1.044930   112A      1.051732   113A      1.052510  
     114A      1.063537   115A      1.071379   116A      1.078409  
     117A      1.091176   118A      1.094816   119A      1.102692  
     120A      1.116251   121A      1.146371   122A      1.157722  
     123A      1.161727   124A      1.163950   125A      1.181339  
     126A      1.190109   127A      1.193035   128A      1.211675  
     129A      1.218558   130A      1.219389   131A      1.266994  
     132A      1.274274   133A      1.284978   134A      1.308320  
     135A      1.310077   136A      1.331146   137A      1.332592  
     138A      1.335410   139A      1.373316   140A      1.385008  
     141A      1.394504   142A      1.411023   143A      1.427082  
     144A      1.429042   145A      1.462402   146A      1.463672  
     147A      1.487995   148A      1.493485   149A      1.497788  
     150A      1.514019   151A      1.529209   152A      1.542016  
     153A      1.542194   154A      1.564611   155A      1.583916  
     156A      1.625785   157A      1.630848   158A      1.641479  
     159A      1.656673   160A      1.660644   161A      1.664440  
     162A      1.679238   163A      1.687284   164A      1.695229  
     165A      1.715856   166A      1.716621   167A      1.725887  
     168A      1.728759   169A      1.740653   170A      1.760847  
     171A      1.761861   172A      1.770675   173A      1.777007  
     174A      1.790482   175A      1.801962   176A      1.806020  
     177A      1.840663   178A      1.843558   179A      1.844038  
     180A      1.864495   181A      1.873760   182A      1.880454  
     183A      1.887661   184A      1.920724   185A      1.952224  
     186A      1.958677   187A      1.994530   188A      2.004954  
     189A      2.055967   190A      2.057524   191A      2.067711  
     192A      2.093528   193A      2.122108   194A      2.206141  
     195A      2.245203   196A      2.256566   197A      2.262303  
     198A      2.351729   199A      2.362601   200A      2.380778  
     201A      2.430271   202A      2.436594   203A      2.453653  
     204A      2.465242   205A      2.467169   206A      2.479763  
     207A      2.497548   208A      2.498778   209A      2.515651  
     210A      2.543582   211A      2.570765   212A      2.603765  
     213A      2.636139   214A      2.641519   215A      2.654411  
     216A      2.664090   217A      2.706246   218A      2.710066  
     219A      2.710861   220A      2.762923   221A      2.776101  
     222A      2.777272   223A      2.806758   224A      2.846068  
     225A      2.856896   226A      2.863905   227A      2.870470  
     228A      2.884018   229A      2.911949   230A      2.935297  
     231A      2.942391   232A      2.961521   233A      2.988952  
     234A      2.991535   235A      3.007212   236A      3.024862  
     237A      3.043737   238A      3.058110   239A      3.109063  
     240A      3.118060   241A      3.128243   242A      3.224295  
     243A      3.226506   244A      3.243376   245A      3.252462  
     246A      3.267179   247A      3.306502   248A      3.345646  
     249A      3.362566   250A      3.450228   251A      3.520638  
     252A      3.549778   253A      3.623250   254A      3.797923  
     255A      3.813265   256A      3.829148   257A      3.849293  
     258A      3.899970   259A      3.973581   260A      4.088562  
     261A      4.110967   262A      4.307434   263A      4.326364  
     264A      4.381140   265A      4.426724   266A      4.462796  
     267A      4.478770   268A      4.492114   269A      4.507043  
     270A      4.534183   271A      4.536214   272A      4.569821  
     273A      4.593101   274A      4.606832   275A      4.620846  
     276A      4.670739   277A      4.674276   278A      4.697711  
     279A      4.699849   280A      4.709547   281A      4.712861  
     282A      4.736242   283A      4.748280   284A      4.750269  
     285A      4.772343   286A      4.841004   287A      4.872858  
     288A      4.914357   289A      4.925055   290A      4.935140  
     291A      4.948314   292A      4.955376   293A      4.963331  
     294A      4.969177   295A      5.001683   296A      5.001893  
     297A      5.061275   298A      5.064339   299A      5.078869  
     300A      5.091519   301A      5.106536   302A      5.158995  
     303A      5.171747   304A      5.205994   305A      5.214668  
     306A      5.248293   307A      5.250794   308A      5.265492  
     309A      5.289787   310A      5.323606   311A      5.342395  
     312A      5.347195   313A      5.364068   314A      5.397892  
     315A      5.435662   316A      5.443837   317A      5.477073  
     318A      5.529001   319A      5.532374   320A      5.551422  
     321A      5.564966   322A      5.622684   323A      5.641935  
     324A      5.666874   325A      5.727162   326A      5.732170  
     327A      5.804419   328A      5.844923   329A      5.894100  
     330A      5.959767   331A      5.966839   332A      6.037213  
     333A      6.043190   334A      6.070008   335A      6.192486  
     336A      6.213068   337A      6.293782   338A      6.332050  
     339A      6.391959   340A      6.404932   341A      6.440709  
     342A      6.482808   343A      6.518136   344A      6.556770  
     345A      6.573967   346A      6.602926   347A      6.656783  
     348A      6.657414   349A      6.688264   350A      6.699633  
     351A      6.797178   352A      6.817127   353A      6.818792  
     354A      6.849647   355A      6.867068   356A      6.883004  
     357A      7.017021   358A      7.027456   359A      7.083608  
     360A      7.091904   361A      7.260749   362A      7.344167  
     363A      7.350260   364A      7.391283   365A      7.412445  
     366A      7.431138   367A      7.511947   368A      7.533739  
     369A      7.590806   370A      7.628311   371A      7.628728  
     372A      7.677333   373A      7.684864   374A      7.702158  
     375A      7.719642   376A      7.722368   377A      7.766558  
     378A      7.771864   379A      7.785063   380A      7.889765  
     381A      7.929750   382A      7.948339   383A      7.961730  
     384A      8.090467   385A      8.098584   386A      8.224204  
     387A      8.446371   388A      8.459933   389A      8.868285  
     390A      8.954263   391A      9.101153   392A      9.192611  
     393A      9.200566   394A      9.380449   395A      9.533161  
     396A      9.543693   397A      9.556691   398A      9.581892  
     399A      9.656283   400A     10.537814   401A     11.035581  
     402A     11.207622   403A     11.355945   404A     11.606356  
     405A     11.867178   406A     11.872234   407A     12.855423  
     408A     12.950662   409A     13.026665   410A     16.555156  
     411A     51.701526   412A     61.520557   413A     62.523593  
     414A     63.515521  

    Final Occupation by Irrep:
              A 
    DOCC [     5 ]

  @DF-RHF Final Energy:   -76.06029187746798

   => Energetics <=

    Nuclear Repulsion Energy =              9.1451612924934178
    One-Electron Energy =                -122.9549335019411842
    Two-Electron Energy =                  37.7494803319797967
    Total Energy =                        -76.0602918774679750

Computation Completed


Properties will be evaluated at   0.000000,   0.000000,   0.000000 [a0]

Properties computed using the SCF density matrix

  Nuclear Dipole Moment: [e a0]
     X:    48.2161      Y:   -15.3091      Z:    -6.8434

  Electronic Dipole Moment: [e a0]
     X:   -47.4750      Y:    15.0738      Z:     6.7382

  Dipole Moment: [e a0]
     X:     0.7411      Y:    -0.2353      Z:    -0.1052     Total:     0.7847

  Dipole Moment: [D]
     X:     1.8838      Y:    -0.5982      Z:    -0.2673     Total:     1.9945


*** tstop() called on node62.bme.utexas.edu at Sat Apr 11 16:43:21 2020
Module time:
	user time   =      31.31 seconds =       0.52 minutes
	system time =       0.91 seconds =       0.02 minutes
	total time  =          7 seconds =       0.12 minutes
Total time:
	user time   =      54.00 seconds =       0.90 minutes
	system time =       2.17 seconds =       0.04 minutes
	total time  =         13 seconds =       0.22 minutes

*** tstart() called on node62.bme.utexas.edu
*** at Sat Apr 11 16:43:21 2020


  //>>>>>>>>>>>>>>>>>>>>>>>>>>>>>>>>>>>//
  //               DFMP2               //
  //<<<<<<<<<<<<<<<<<<<<<<<<<<<<<<<<<<<//

   => Loading Basis Set <=

    Name: (AUG-CC-PVTZ AUX)
    Role: RIFIT
    Keyword: DF_BASIS_MP2
    atoms 1           entry C          line   148 file /home/liuchw/anaconda3/envs/psi4env/share/psi4/basis/aug-cc-pvtz-ri.gbs 
    atoms 2-4         entry N          line   206 file /home/liuchw/anaconda3/envs/psi4env/share/psi4/basis/aug-cc-pvtz-ri.gbs 
    atoms 5-10, 12-13 entry H          line    30 file /home/liuchw/anaconda3/envs/psi4env/share/psi4/basis/aug-cc-pvtz-ri.gbs 
    atoms 11          entry O          line   264 file /home/liuchw/anaconda3/envs/psi4env/share/psi4/basis/aug-cc-pvtz-ri.gbs 

	 --------------------------------------------------------
	                          DF-MP2                         
	      2nd-Order Density-Fitted Moller-Plesset Theory     
	              RMP2 Wavefunction,   6 Threads             
	                                                         
	        Rob Parrish, Justin Turney, Andy Simmonett,      
	           Ed Hohenstein, and C. David Sherrill          
	 --------------------------------------------------------

   => Auxiliary Basis Set <=

  Basis Set: (AUG-CC-PVTZ AUX)
    Blend: AUG-CC-PVTZ-RI
    Number of shells: 252
    Number of basis function: 898
    Number of Cartesian functions: 1120
    Spherical Harmonics?: true
    Max angular momentum: 4

	 --------------------------------------------------------
	                 NBF =   414, NAUX =   898
	 --------------------------------------------------------
	   CLASS    FOCC     OCC    AOCC    AVIR     VIR    FVIR
	   PAIRS       0       5       5     409     409       0
	 --------------------------------------------------------

	-----------------------------------------------------------
	 ==================> DF-MP2 Energies <==================== 
	-----------------------------------------------------------
	 Reference Energy          =     -76.0602918774679750 [Eh]
	 Singles Energy            =      -0.0000000000000000 [Eh]
	 Same-Spin Energy          =      -0.0685633972780927 [Eh]
	 Opposite-Spin Energy      =      -0.2165738882512920 [Eh]
	 Correlation Energy        =      -0.2851372855293847 [Eh]
	 Total Energy              =     -76.3454291629973625 [Eh]
	-----------------------------------------------------------
	 ================> DF-SCS-MP2 Energies <================== 
	-----------------------------------------------------------
	 SCS Same-Spin Scale       =       0.3333333333333333 [-]
	 SCS Opposite-Spin Scale   =       1.2000000000000000 [-]
	 SCS Same-Spin Energy      =      -0.0228544657593642 [Eh]
	 SCS Opposite-Spin Energy  =      -0.2598886659015504 [Eh]
	 SCS Correlation Energy    =      -0.2827431316609146 [Eh]
	 SCS Total Energy          =     -76.3430350091288830 [Eh]
	-----------------------------------------------------------


*** tstop() called on node62.bme.utexas.edu at Sat Apr 11 16:43:24 2020
Module time:
	user time   =      14.48 seconds =       0.24 minutes
	system time =       0.46 seconds =       0.01 minutes
	total time  =          3 seconds =       0.05 minutes
Total time:
	user time   =      68.49 seconds =       1.14 minutes
	system time =       2.63 seconds =       0.04 minutes
	total time  =         16 seconds =       0.27 minutes

  //>>>>>>>>>>>>>>>>>>>>>>>>>>>>>>>>>>>>//
  // CBS Computation: MP2 / AUG-CC-PVQZ //
  //<<<<<<<<<<<<<<<<<<<<<<<<<<<<<<<<<<<<//


Scratch directory: /scratch//

*** tstart() called on node62.bme.utexas.edu
*** at Sat Apr 11 16:43:24 2020

   => Loading Basis Set <=

    Name: AUG-CC-PVQZ
    Role: ORBITAL
    Keyword: BASIS
    atoms 1           entry C          line   303 file /home/liuchw/anaconda3/envs/psi4env/share/psi4/basis/aug-cc-pvqz.gbs 
    atoms 2-4         entry N          line   363 file /home/liuchw/anaconda3/envs/psi4env/share/psi4/basis/aug-cc-pvqz.gbs 
    atoms 5-10, 12-13 entry H          line    40 file /home/liuchw/anaconda3/envs/psi4env/share/psi4/basis/aug-cc-pvqz.gbs 
    atoms 11          entry O          line   423 file /home/liuchw/anaconda3/envs/psi4env/share/psi4/basis/aug-cc-pvqz.gbs 


         ---------------------------------------------------------
                                   SCF
               by Justin Turney, Rob Parrish, Andy Simmonett
                          and Daniel G. A. Smith
                              RHF Reference
                        6 Threads,  38146 MiB Core
         ---------------------------------------------------------

  ==> Geometry <==

    Molecular point group: c1
    Full point group: C1

    Geometry (in Angstrom), charge = 0, multiplicity = 1:

       Center              X                  Y                   Z               Mass       
    ------------   -----------------  -----------------  -----------------  -----------------
      Gh(C)          -0.754206306881     0.239468927213     0.107045615067    12.000000000000
      Gh(N)          -2.012530306881     0.639014927213     0.285684615067    14.003074004430
      Gh(N)          -0.494266306881    -0.971125072787    -0.371323384933    14.003074004430
      Gh(N)           0.256610693119     1.046564927213     0.405013615067    14.003074004430
      Gh(H)           1.203264693119     0.721274927213     0.260963615067     1.007825032230
      Gh(H)           0.096927693119     1.968045927213     0.768651615067     1.007825032230
      Gh(H)          -2.220775306881     1.552140927213     0.646580615067     1.007825032230
      Gh(H)          -2.784537306881     0.037177927213     0.063855615067     1.007825032230
      Gh(H)          -1.233621306881    -1.607150072787    -0.607303384933     1.007825032230
      Gh(H)           0.468825693119    -1.252251072787    -0.498342384933     1.007825032230
         O            2.439432693119    -0.774541072787    -0.346236384933    15.994914619570
         H            2.987268693119    -0.676264072787    -1.131569384933     1.007825032230
         H            3.012156693119    -1.228646072787     0.280106615067     1.007825032230

  Running in c1 symmetry.

  Rotational constants: A =      0.33628  B =      0.07793  C =      0.06382 [cm^-1]
  Rotational constants: A =  10081.48951  B =   2336.27128  C =   1913.36158 [MHz]
  Nuclear repulsion =    9.145161292493418

  Charge       = 0
  Multiplicity = 1
  Electrons    = 10
  Nalpha       = 5
  Nbeta        = 5

  ==> Algorithm <==

  SCF Algorithm Type is DF.
  DIIS enabled.
  MOM disabled.
  Fractional occupation disabled.
  Guess Type is SAD.
  Energy threshold   = 1.00e-07
  Density threshold  = 1.00e-08
  Integral threshold = 0.00e+00

  ==> Primary Basis <==

  Basis Set: AUG-CC-PVQZ
    Blend: AUG-CC-PVQZ
    Number of shells: 212
    Number of basis function: 768
    Number of Cartesian functions: 965
    Spherical Harmonics?: true
    Max angular momentum: 4

   => Loading Basis Set <=

    Name: (AUG-CC-PVQZ AUX)
    Role: JKFIT
    Keyword: DF_BASIS_SCF
    atoms 1           entry C          line   178 file /home/liuchw/anaconda3/envs/psi4env/share/psi4/basis/aug-cc-pvqz-jkfit.gbs 
    atoms 2-4         entry N          line   248 file /home/liuchw/anaconda3/envs/psi4env/share/psi4/basis/aug-cc-pvqz-jkfit.gbs 
    atoms 5-10, 12-13 entry H          line    70 file /home/liuchw/anaconda3/envs/psi4env/share/psi4/basis/aug-cc-pvqz-jkfit.gbs 
    atoms 11          entry O          line   318 file /home/liuchw/anaconda3/envs/psi4env/share/psi4/basis/aug-cc-pvqz-jkfit.gbs 

  ==> Pre-Iterations <==

   -------------------------------------------------------
    Irrep   Nso     Nmo     Nalpha   Nbeta   Ndocc  Nsocc
   -------------------------------------------------------
     A        768     768       0       0       0       0
   -------------------------------------------------------
    Total     768     768       5       5       5       0
   -------------------------------------------------------

  ==> Integral Setup <==

  DFHelper Memory: AOs need 5.543 GiB; user supplied 27.940 GiB. Using in-core AOs.

  ==> MemDFJK: Density-Fitted J/K Matrices <==

    J tasked:                   Yes
    K tasked:                   Yes
    wK tasked:                   No
    OpenMP threads:               6
    Memory [MiB]:             28610
    Algorithm:                 Core
    Schwarz Cutoff:           1E-12
    Mask sparsity (%):       7.4863
    Fitting Condition:        1E-10

   => Auxiliary Basis Set <=

  Basis Set: (AUG-CC-PVQZ AUX)
    Blend: AUG-CC-PVQZ-JKFIT
    Number of shells: 314
    Number of basis function: 1318
    Number of Cartesian functions: 1798
    Spherical Harmonics?: true
    Max angular momentum: 5

  Minimum eigenvalue in the overlap matrix is 3.6591774789E-06.
  Using Symmetric Orthogonalization.

  SCF Guess: Superposition of Atomic Densities via on-the-fly atomic UHF.

  ==> Iterations <==

                           Total Energy        Delta E     RMS |[F,P]|

   @DF-RHF iter SAD:   -75.47767571542182   -7.54777e+01   0.00000e+00 
   @DF-RHF iter   1:   -75.98075980340667   -5.03084e-01   6.10963e-04 DIIS
   @DF-RHF iter   2:   -76.03326679904167   -5.25070e-02   4.19013e-04 DIIS
   @DF-RHF iter   3:   -76.06516142355335   -3.18946e-02   2.85726e-05 DIIS
   @DF-RHF iter   4:   -76.06555636217195   -3.94939e-04   7.03923e-06 DIIS
   @DF-RHF iter   5:   -76.06558221299868   -2.58508e-05   1.59882e-06 DIIS
   @DF-RHF iter   6:   -76.06558434909269   -2.13609e-06   3.59788e-07 DIIS
   @DF-RHF iter   7:   -76.06558446895271   -1.19860e-07   6.68089e-08 DIIS
   @DF-RHF iter   8:   -76.06558447258132   -3.62861e-09   1.08065e-08 DIIS
   @DF-RHF iter   9:   -76.06558447265847   -7.71507e-11   2.59664e-09 DIIS
  Energy and wave function converged.


  ==> Post-Iterations <==

    Orbital Energies [Eh]
    ---------------------

    Doubly Occupied:                                                      

       1A    -20.565906     2A     -1.350515     3A     -0.713685  
       4A     -0.585117     5A     -0.510213  

    Virtual:                                                              

       6A      0.020593     7A      0.028803     8A      0.036248  
       9A      0.041593    10A      0.048561    11A      0.058071  
      12A      0.071462    13A      0.071859    14A      0.078077  
      15A      0.084496    16A      0.105323    17A      0.107209  
      18A      0.111830    19A      0.118717    20A      0.124322  
      21A      0.125315    22A      0.139521    23A      0.142106  
      24A      0.149694    25A      0.162815    26A      0.166250  
      27A      0.169172    28A      0.172412    29A      0.184136  
      30A      0.188330    31A      0.201636    32A      0.206389  
      33A      0.223678    34A      0.224257    35A      0.231265  
      36A      0.234968    37A      0.246636    38A      0.270426  
      39A      0.281341    40A      0.284580    41A      0.288636  
      42A      0.295352    43A      0.297463    44A      0.297546  
      45A      0.304599    46A      0.314700    47A      0.316108  
      48A      0.323157    49A      0.326080    50A      0.329144  
      51A      0.335226    52A      0.341582    53A      0.341590  
      54A      0.345986    55A      0.346640    56A      0.348962  
      57A      0.356886    58A      0.373561    59A      0.380676  
      60A      0.382923    61A      0.388968    62A      0.402395  
      63A      0.405884    64A      0.410270    65A      0.410336  
      66A      0.426008    67A      0.428999    68A      0.471192  
      69A      0.472181    70A      0.495657    71A      0.506422  
      72A      0.511167    73A      0.519980    74A      0.527517  
      75A      0.532811    76A      0.535144    77A      0.535886  
      78A      0.559469    79A      0.581238    80A      0.589925  
      81A      0.602875    82A      0.615456    83A      0.617226  
      84A      0.617554    85A      0.619799    86A      0.623538  
      87A      0.630721    88A      0.647795    89A      0.649488  
      90A      0.654569    91A      0.662722    92A      0.668864  
      93A      0.670871    94A      0.676011    95A      0.679328  
      96A      0.690931    97A      0.690956    98A      0.694451  
      99A      0.709725   100A      0.720099   101A      0.732183  
     102A      0.732356   103A      0.737459   104A      0.741123  
     105A      0.744246   106A      0.760908   107A      0.762990  
     108A      0.766367   109A      0.772090   110A      0.776046  
     111A      0.793359   112A      0.808387   113A      0.812745  
     114A      0.814302   115A      0.824619   116A      0.824681  
     117A      0.825447   118A      0.840114   119A      0.848228  
     120A      0.855142   121A      0.855676   122A      0.883248  
     123A      0.883608   124A      0.890185   125A      0.898962  
     126A      0.910828   127A      0.911330   128A      0.921303  
     129A      0.923831   130A      0.934741   131A      0.947589  
     132A      0.964414   133A      0.970091   134A      0.987975  
     135A      0.999846   136A      1.001939   137A      1.009122  
     138A      1.012208   139A      1.020159   140A      1.024576  
     141A      1.032114   142A      1.040975   143A      1.065602  
     144A      1.078037   145A      1.097317   146A      1.110580  
     147A      1.119555   148A      1.136179   149A      1.153106  
     150A      1.156613   151A      1.158544   152A      1.180180  
     153A      1.184746   154A      1.192284   155A      1.195104  
     156A      1.205547   157A      1.206948   158A      1.221448  
     159A      1.230266   160A      1.233896   161A      1.239865  
     162A      1.242538   163A      1.243360   164A      1.248491  
     165A      1.264275   166A      1.288909   167A      1.305159  
     168A      1.311571   169A      1.324733   170A      1.327021  
     171A      1.335949   172A      1.339924   173A      1.346977  
     174A      1.354917   175A      1.380770   176A      1.392176  
     177A      1.398479   178A      1.413142   179A      1.413937  
     180A      1.418096   181A      1.436187   182A      1.436689  
     183A      1.442537   184A      1.451282   185A      1.454905  
     186A      1.511684   187A      1.519014   188A      1.531970  
     189A      1.544802   190A      1.545830   191A      1.567132  
     192A      1.577646   193A      1.579180   194A      1.598877  
     195A      1.617784   196A      1.619779   197A      1.651166  
     198A      1.660672   199A      1.673183   200A      1.698126  
     201A      1.705732   202A      1.713677   203A      1.714266  
     204A      1.735511   205A      1.738096   206A      1.739093  
     207A      1.755065   208A      1.755565   209A      1.760741  
     210A      1.783722   211A      1.789069   212A      1.794872  
     213A      1.804062   214A      1.807369   215A      1.825643  
     216A      1.827837   217A      1.845724   218A      1.877125  
     219A      1.878444   220A      1.891117   221A      1.893108  
     222A      1.894122   223A      1.897914   224A      1.935608  
     225A      1.936539   226A      1.936753   227A      1.940522  
     228A      1.944950   229A      1.952325   230A      1.957438  
     231A      1.962482   232A      1.968873   233A      1.976622  
     234A      1.984481   235A      1.996541   236A      1.996670  
     237A      2.018813   238A      2.022864   239A      2.036873  
     240A      2.045866   241A      2.047488   242A      2.056236  
     243A      2.058107   244A      2.074748   245A      2.091646  
     246A      2.093376   247A      2.108645   248A      2.124103  
     249A      2.124323   250A      2.130203   251A      2.137839  
     252A      2.141103   253A      2.154546   254A      2.157600  
     255A      2.162565   256A      2.172743   257A      2.175469  
     258A      2.179499   259A      2.196846   260A      2.204581  
     261A      2.205772   262A      2.231288   263A      2.232465  
     264A      2.239043   265A      2.252460   266A      2.254250  
     267A      2.274127   268A      2.277853   269A      2.286373  
     270A      2.288712   271A      2.289044   272A      2.313135  
     273A      2.324022   274A      2.335268   275A      2.349435  
     276A      2.353696   277A      2.359552   278A      2.367185  
     279A      2.373702   280A      2.428282   281A      2.444849  
     282A      2.450720   283A      2.455399   284A      2.487334  
     285A      2.487612   286A      2.487800   287A      2.505772  
     288A      2.511238   289A      2.519552   290A      2.543935  
     291A      2.554740   292A      2.556045   293A      2.590565  
     294A      2.591533   295A      2.596708   296A      2.624832  
     297A      2.628730   298A      2.662908   299A      2.678211  
     300A      2.716391   301A      2.722955   302A      2.733954  
     303A      2.744205   304A      2.745133   305A      2.793719  
     306A      2.821029   307A      2.836056   308A      2.836393  
     309A      2.838576   310A      2.927780   311A      2.929508  
     312A      2.943289   313A      2.965233   314A      2.968292  
     315A      2.968633   316A      3.013476   317A      3.018499  
     318A      3.029134   319A      3.054801   320A      3.079154  
     321A      3.103020   322A      3.103384   323A      3.104786  
     324A      3.121171   325A      3.131240   326A      3.147045  
     327A      3.158753   328A      3.165356   329A      3.170705  
     330A      3.188848   331A      3.192985   332A      3.208838  
     333A      3.213631   334A      3.215110   335A      3.239421  
     336A      3.243655   337A      3.247119   338A      3.263750  
     339A      3.270346   340A      3.306987   341A      3.307991  
     342A      3.312458   343A      3.334716   344A      3.335332  
     345A      3.338305   346A      3.346317   347A      3.347184  
     348A      3.385655   349A      3.407216   350A      3.410001  
     351A      3.420563   352A      3.450874   353A      3.465969  
     354A      3.507311   355A      3.515976   356A      3.521711  
     357A      3.524811   358A      3.575118   359A      3.597225  
     360A      3.599995   361A      3.612862   362A      3.622902  
     363A      3.630676   364A      3.635534   365A      3.647790  
     366A      3.650681   367A      3.671971   368A      3.701733  
     369A      3.737968   370A      3.752335   371A      3.757120  
     372A      3.764442   373A      3.786816   374A      3.796394  
     375A      3.828372   376A      3.830886   377A      3.831558  
     378A      3.836026   379A      3.868532   380A      3.870187  
     381A      3.892070   382A      3.893054   383A      3.897964  
     384A      3.911809   385A      3.929921   386A      3.954273  
     387A      3.970341   388A      3.978399   389A      3.985535  
     390A      4.008047   391A      4.049178   392A      4.073254  
     393A      4.088519   394A      4.104909   395A      4.121927  
     396A      4.151599   397A      4.167685   398A      4.179932  
     399A      4.219743   400A      4.239026   401A      4.258775  
     402A      4.261549   403A      4.282893   404A      4.321791  
     405A      4.321980   406A      4.325263   407A      4.364800  
     408A      4.367910   409A      4.388073   410A      4.405915  
     411A      4.411997   412A      4.416534   413A      4.445748  
     414A      4.477502   415A      4.478439   416A      4.503739  
     417A      4.512061   418A      4.520200   419A      4.531277  
     420A      4.551565   421A      4.558120   422A      4.560468  
     423A      4.604555   424A      4.635770   425A      4.645546  
     426A      4.655604   427A      4.675977   428A      4.696388  
     429A      4.734275   430A      4.736297   431A      4.757798  
     432A      4.790374   433A      4.794139   434A      4.816736  
     435A      4.825509   436A      4.826427   437A      4.855930  
     438A      4.889803   439A      4.910725   440A      4.939092  
     441A      4.940445   442A      4.961196   443A      4.980716  
     444A      4.988121   445A      4.997138   446A      5.032259  
     447A      5.051407   448A      5.105253   449A      5.107360  
     450A      5.121764   451A      5.171290   452A      5.198106  
     453A      5.205734   454A      5.250372   455A      5.266373  
     456A      5.328622   457A      5.330018   458A      5.354864  
     459A      5.376631   460A      5.389467   461A      5.425843  
     462A      5.442594   463A      5.442843   464A      5.466285  
     465A      5.508722   466A      5.524718   467A      5.553550  
     468A      5.554610   469A      5.565476   470A      5.569198  
     471A      5.608528   472A      5.645020   473A      5.668148  
     474A      5.731437   475A      5.786411   476A      5.857951  
     477A      5.870084   478A      5.895679   479A      5.913752  
     480A      5.913920   481A      5.948663   482A      6.061754  
     483A      6.067164   484A      6.094399   485A      6.094446  
     486A      6.125497   487A      6.146151   488A      6.177818  
     489A      6.195837   490A      6.205003   491A      6.231111  
     492A      6.247627   493A      6.309697   494A      6.311142  
     495A      6.454344   496A      6.489950   497A      6.528543  
     498A      6.549302   499A      6.673748   500A      6.696829  
     501A      6.717447   502A      6.796544   503A      6.848604  
     504A      6.895344   505A      6.920039   506A      6.940877  
     507A      6.941072   508A      6.968184   509A      6.989388  
     510A      7.117450   511A      7.162860   512A      7.166402  
     513A      7.205664   514A      7.206420   515A      7.222406  
     516A      7.256609   517A      7.279342   518A      7.285782  
     519A      7.321094   520A      7.354630   521A      7.364338  
     522A      7.493580   523A      7.581977   524A      7.586241  
     525A      7.589668   526A      7.594031   527A      7.608742  
     528A      7.625140   529A      7.646518   530A      7.801200  
     531A      7.850159   532A      7.870214   533A      7.895115  
     534A      7.902946   535A      7.916164   536A      7.933205  
     537A      7.976118   538A      7.980918   539A      7.985159  
     540A      8.015791   541A      8.016190   542A      8.085221  
     543A      8.137504   544A      8.137798   545A      8.152479  
     546A      8.226293   547A      8.234817   548A      8.257691  
     549A      8.277396   550A      8.288002   551A      8.296201  
     552A      8.299515   553A      8.303432   554A      8.312013  
     555A      8.325442   556A      8.338962   557A      8.369229  
     558A      8.410491   559A      8.416290   560A      8.427771  
     561A      8.458776   562A      8.501310   563A      8.501332  
     564A      8.540388   565A      8.592047   566A      8.654498  
     567A      8.669636   568A      8.702874   569A      8.728075  
     570A      8.750229   571A      8.753628   572A      8.795561  
     573A      8.798274   574A      8.830705   575A      8.873112  
     576A      8.884105   577A      8.888504   578A      8.907466  
     579A      8.915492   580A      8.995864   581A      9.010280  
     582A      9.027590   583A      9.088014   584A      9.100414  
     585A      9.104398   586A      9.232303   587A      9.253014  
     588A      9.281119   589A      9.316440   590A      9.333623  
     591A      9.334712   592A      9.335782   593A      9.338155  
     594A      9.340735   595A      9.418701   596A      9.436321  
     597A      9.449980   598A      9.452139   599A      9.455663  
     600A      9.501645   601A      9.518351   602A      9.531636  
     603A      9.536373   604A      9.546813   605A      9.585538  
     606A      9.591748   607A      9.612943   608A      9.645243  
     609A      9.648126   610A      9.679799   611A      9.689413  
     612A      9.693771   613A      9.707367   614A      9.737093  
     615A      9.802033   616A      9.820119   617A      9.858349  
     618A      9.932235   619A      9.990296   620A     10.006754  
     621A     10.018842   622A     10.059055   623A     10.061691  
     624A     10.063770   625A     10.078437   626A     10.091752  
     627A     10.094990   628A     10.272341   629A     10.305845  
     630A     10.329139   631A     10.389004   632A     10.405329  
     633A     10.408169   634A     10.425912   635A     10.443251  
     636A     10.461687   637A     10.466627   638A     10.488850  
     639A     10.516831   640A     10.559257   641A     10.591313  
     642A     10.591879   643A     10.618589   644A     10.680371  
     645A     10.685813   646A     10.712927   647A     10.787945  
     648A     10.803807   649A     10.824518   650A     10.854574  
     651A     10.904040   652A     10.914042   653A     10.932562  
     654A     10.932978   655A     10.978124   656A     11.019785  
     657A     11.057962   658A     11.079116   659A     11.106092  
     660A     11.157908   661A     11.182798   662A     11.250176  
     663A     11.276929   664A     11.284714   665A     11.340833  
     666A     11.371453   667A     11.390266   668A     11.419081  
     669A     11.424271   670A     11.427173   671A     11.470668  
     672A     11.470925   673A     11.558823   674A     11.592140  
     675A     11.630685   676A     11.670512   677A     11.737653  
     678A     11.753726   679A     11.770962   680A     11.822412  
     681A     11.848530   682A     11.851040   683A     11.903961  
     684A     11.939552   685A     11.942261   686A     11.983802  
     687A     12.176490   688A     12.211929   689A     12.223203  
     690A     12.249785   691A     12.265137   692A     12.282692  
     693A     12.291975   694A     12.385034   695A     12.601494  
     696A     12.616202   697A     12.631832   698A     12.656049  
     699A     12.680450   700A     12.684348   701A     12.714394  
     702A     12.746663   703A     12.794359   704A     12.834344  
     705A     12.848602   706A     12.874058   707A     12.909886  
     708A     12.976543   709A     12.980841   710A     13.009555  
     711A     13.027516   712A     13.228599   713A     13.277604  
     714A     13.380031   715A     13.511551   716A     13.546347  
     717A     13.883574   718A     13.887048   719A     13.985601  
     720A     14.112328   721A     14.178968   722A     14.199012  
     723A     14.225376   724A     14.360034   725A     14.426650  
     726A     14.437380   727A     14.621909   728A     14.641009  
     729A     14.663340   730A     14.677532   731A     14.715214  
     732A     14.731868   733A     14.796096   734A     14.987843  
     735A     15.219677   736A     15.231643   737A     15.310104  
     738A     15.496676   739A     15.513719   740A     15.557351  
     741A     15.585923   742A     16.905155   743A     17.010989  
     744A     17.032595   745A     17.079283   746A     17.234148  
     747A     17.256489   748A     17.336051   749A     17.390541  
     750A     17.405222   751A     17.406096   752A     17.782518  
     753A     18.082717   754A     18.102935   755A     18.131183  
     756A     18.432079   757A     18.463104   758A     21.037817  
     759A     21.579916   760A     21.644367   761A     22.497586  
     762A     22.541458   763A     22.654571   764A     46.170017  
     765A     69.160727   766A     95.120609   767A     95.528250  
     768A     95.545682  

    Final Occupation by Irrep:
              A 
    DOCC [     5 ]

  @DF-RHF Final Energy:   -76.06558447265847

   => Energetics <=

    Nuclear Repulsion Energy =              9.1451612924934178
    One-Electron Energy =                -122.9706183123220740
    Two-Electron Energy =                  37.7598725471701968
    Total Energy =                        -76.0655844726584576

Computation Completed


Properties will be evaluated at   0.000000,   0.000000,   0.000000 [a0]

Properties computed using the SCF density matrix

  Nuclear Dipole Moment: [e a0]
     X:    48.2161      Y:   -15.3091      Z:    -6.8434

  Electronic Dipole Moment: [e a0]
     X:   -47.4750      Y:    15.0738      Z:     6.7382

  Dipole Moment: [e a0]
     X:     0.7411      Y:    -0.2353      Z:    -0.1052     Total:     0.7847

  Dipole Moment: [D]
     X:     1.8837      Y:    -0.5982      Z:    -0.2673     Total:     1.9944


*** tstop() called on node62.bme.utexas.edu at Sat Apr 11 16:43:49 2020
Module time:
	user time   =     134.78 seconds =       2.25 minutes
[...]
     316A      2.465895   317A      2.470150   318A      2.485841  
     319A      2.498281   320A      2.524453   321A      2.557422  
     322A      2.564808   323A      2.577645   324A      2.591044  
     325A      2.596460   326A      2.606267   327A      2.608997  
     328A      2.633902   329A      2.636634   330A      2.650102  
     331A      2.666308   332A      2.672163   333A      2.680952  
     334A      2.709795   335A      2.720537   336A      2.730478  
     337A      2.766457   338A      2.783817   339A      2.784513  
     340A      2.788343   341A      2.816568   342A      2.832342  
     343A      2.841820   344A      2.853166   345A      2.856633  
     346A      2.868213   347A      2.870798   348A      2.892336  
     349A      2.911331   350A      2.934443   351A      2.946076  
     352A      2.950950   353A      2.960591   354A      2.976258  
     355A      2.976874   356A      3.001033   357A      3.001353  
     358A      3.005269   359A      3.010207   360A      3.042499  
     361A      3.046376   362A      3.048765   363A      3.077825  
     364A      3.088340   365A      3.092446   366A      3.104317  
     367A      3.115644   368A      3.120574   369A      3.124512  
     370A      3.140060   371A      3.146639   372A      3.154762  
     373A      3.180921   374A      3.218806   375A      3.220378  
     376A      3.222791   377A      3.230857   378A      3.247801  
     379A      3.266537   380A      3.268827   381A      3.275278  
     382A      3.277940   383A      3.277979   384A      3.305794  
     385A      3.320484   386A      3.328501   387A      3.352212  
     388A      3.372620   389A      3.412680   390A      3.413515  
     391A      3.420379   392A      3.472560   393A      3.493936  
     394A      3.493982   395A      3.499645   396A      3.517075  
     397A      3.527906   398A      3.539830   399A      3.552354  
     400A      3.566654   401A      3.587778   402A      3.592316  
     403A      3.640436   404A      3.647676   405A      3.667003  
     406A      3.673717   407A      3.691609   408A      3.699340  
     409A      3.724800   410A      3.744138   411A      3.748143  
     412A      3.776554   413A      3.795521   414A      3.810166  
     415A      3.838901   416A      3.860189   417A      3.873967  
     418A      3.899087   419A      3.920829   420A      3.944776  
     421A      3.966146   422A      3.976185   423A      3.988161  
     424A      4.002777   425A      4.027320   426A      4.042983  
     427A      4.070402   428A      4.083924   429A      4.092876  
     430A      4.116955   431A      4.145198   432A      4.151007  
     433A      4.161601   434A      4.198807   435A      4.211815  
     436A      4.235642   437A      4.238999   438A      4.279202  
     439A      4.294840   440A      4.301594   441A      4.341052  
     442A      4.345160   443A      4.349384   444A      4.351248  
     445A      4.372333   446A      4.410856   447A      4.421789  
     448A      4.446889   449A      4.456113   450A      4.471419  
     451A      4.515607   452A      4.534958   453A      4.555188  
     454A      4.561660   455A      4.598000   456A      4.609296  
     457A      4.642938   458A      4.644445   459A      4.649217  
     460A      4.659501   461A      4.687417   462A      4.719393  
     463A      4.731909   464A      4.743470   465A      4.765480  
     466A      4.791217   467A      4.799347   468A      4.825917  
     469A      4.836004   470A      4.869082   471A      4.875455  
     472A      4.884329   473A      4.890711   474A      4.916304  
     475A      4.944592   476A      4.947640   477A      4.971037  
     478A      5.010201   479A      5.029515   480A      5.066309  
     481A      5.110958   482A      5.156699   483A      5.192674  
     484A      5.199827   485A      5.221241   486A      5.260524  
     487A      5.289729   488A      5.303696   489A      5.304399  
     490A      5.361634   491A      5.424415   492A      5.430376  
     493A      5.439132   494A      5.450025   495A      5.464241  
     496A      5.464251   497A      5.532360   498A      5.584386  
     499A      5.602115   500A      5.641750   501A      5.719373  
     502A      5.757815   503A      5.761718   504A      5.798025  
     505A      5.835686   506A      5.844080   507A      5.947877  
     508A      5.963116   509A      5.996486   510A      6.067513  
     511A      6.092128   512A      6.158361   513A      6.163597  
     514A      6.223118   515A      6.237961   516A      6.244831  
     517A      6.247743   518A      6.445698   519A      6.524899  
     520A      6.600547   521A      6.620297   522A      6.622416  
     523A      6.643106   524A      6.671130   525A      6.685946  
     526A      6.710545   527A      6.710554   528A      6.753145  
     529A      6.773915   530A      6.812892   531A      6.838873  
     532A      6.951028   533A      6.968979   534A      7.030653  
     535A      7.035117   536A      7.085044   537A      7.097530  
     538A      7.098993   539A      7.107797   540A      7.110792  
     541A      7.146807   542A      7.159694   543A      7.177539  
     544A      7.228398   545A      7.262286   546A      7.362154  
     547A      7.362528   548A      7.370095   549A      7.452175  
     550A      7.460998   551A      7.507478   552A      7.513567  
     553A      7.548197   554A      7.554428   555A      7.595990  
     556A      7.626985   557A      7.664905   558A      7.665998  
     559A      7.684059   560A      7.697342   561A      7.700090  
     562A      7.710973   563A      7.723885   564A      7.758393  
     565A      7.773748   566A      7.788586   567A      7.789378  
     568A      7.802394   569A      7.839637   570A      7.841607  
     571A      7.859858   572A      7.872551   573A      7.896617  
     574A      7.899743   575A      7.940951   576A      7.950807  
     577A      7.968298   578A      7.969940   579A      7.985252  
     580A      8.001962   581A      8.011955   582A      8.048248  
     583A      8.060594   584A      8.176270   585A      8.204911  
     586A      8.218886   587A      8.284230   588A      8.293725  
     589A      8.307575   590A      8.363270   591A      8.377663  
     592A      8.388401   593A      8.396970   594A      8.410935  
     595A      8.414606   596A      8.476884   597A      8.527900  
     598A      8.557673   599A      8.564318   600A      8.578238  
     601A      8.594221   602A      8.618757   603A      8.635826  
     604A      8.644096   605A      8.656578   606A      8.662451  
     607A      8.670781   608A      8.687117   609A      8.697394  
     610A      8.702147   611A      8.743957   612A      8.753309  
     613A      8.756990   614A      8.823007   615A      8.832532  
     616A      8.838409   617A      8.850813   618A      8.887363  
     619A      8.890059   620A      8.897100   621A      8.902623  
     622A      8.921177   623A      8.935927   624A      8.964041  
     625A      8.977609   626A      9.024595   627A      9.061965  
     628A      9.078495   629A      9.096968   630A      9.135774  
     631A      9.136362   632A      9.147037   633A      9.147241  
     634A      9.179586   635A      9.187111   636A      9.210381  
     637A      9.229342   638A      9.232257   639A      9.233450  
     640A      9.272992   641A      9.328314   642A      9.346432  
     643A      9.350646   644A      9.364878   645A      9.393593  
     646A      9.399733   647A      9.446245   648A      9.508037  
     649A      9.519576   650A      9.539626   651A      9.612353  
     652A      9.613298   653A      9.632509   654A      9.661872  
     655A      9.672638   656A      9.685723   657A      9.715641  
     658A      9.736373   659A      9.761615   660A      9.766136  
     661A      9.766237   662A      9.824327   663A      9.839336  
     664A      9.843146   665A      9.894401   666A      9.901402  
     667A      9.901763   668A      9.906107   669A      9.914729  
     670A      9.987449   671A     10.009643   672A     10.018808  
     673A     10.025400   674A     10.027152   675A     10.103592  
     676A     10.110448   677A     10.138827   678A     10.198588  
     679A     10.234233   680A     10.239217   681A     10.252100  
     682A     10.271975   683A     10.305274   684A     10.330162  
     685A     10.333241   686A     10.380590   687A     10.411638  
     688A     10.411786   689A     10.521837   690A     10.527783  
     691A     10.570889   692A     10.579354   693A     10.618268  
     694A     10.693681   695A     10.727664   696A     10.819510  
     697A     10.866368   698A     10.891841   699A     11.017970  
     700A     11.030766   701A     11.060936   702A     11.063414  
     703A     11.126665   704A     11.127631   705A     11.178250  
     706A     11.213959   707A     11.253549   708A     11.277261  
     709A     11.312150   710A     11.325133   711A     11.405007  
     712A     11.602753   713A     11.701733   714A     11.728836  
     715A     11.737700   716A     11.777619   717A     11.876933  
     718A     11.889668   719A     11.920217   720A     12.005817  
     721A     12.008353   722A     12.047210   723A     12.098987  
     724A     12.108852   725A     12.118256   726A     12.138584  
     727A     12.139157   728A     12.154618   729A     12.168651  
     730A     12.339364   731A     12.341262   732A     12.434746  
     733A     12.447257   734A     12.459122   735A     12.564024  
     736A     12.668791   737A     12.689111   738A     12.759396  
     739A     12.793496   740A     12.800260   741A     12.817663  
     742A     13.051047   743A     13.065950   744A     13.155491  
     745A     13.289584   746A     13.329094   747A     13.715631  
     748A     13.760633   749A     13.813453   750A     13.873987  
     751A     14.184073   752A     14.446055   753A     14.617900  
     754A     14.741422   755A     14.818005   756A     14.896283  
     757A     14.961159   758A     15.135374   759A     15.241568  
     760A     15.337268   761A     15.341754   762A     17.088777  
     763A     17.234281   764A     26.510118   765A     35.554243  
     766A     35.825502   767A     35.843471   768A     45.997435  

    Final Occupation by Irrep:
              A 
    DOCC [    21 ]

  @DF-RHF Final Energy:  -280.71774251611680

   => Energetics <=

    Nuclear Repulsion Energy =            193.8904291179765664
    One-Electron Energy =                -758.6020836601969677
    Two-Electron Energy =                 283.9939120261036578
    Total Energy =                       -280.7177425161168003

Computation Completed


Properties will be evaluated at   0.000000,   0.000000,   0.000000 [a0]

Properties computed using the SCF density matrix

  Nuclear Dipole Moment: [e a0]
     X:     1.4521      Y:    -0.4611      Z:    -0.2061

  Electronic Dipole Moment: [e a0]
     X:    -1.6073      Y:     0.5103      Z:     0.2281

  Dipole Moment: [e a0]
     X:    -0.1552      Y:     0.0492      Z:     0.0220     Total:     0.1643

  Dipole Moment: [D]
     X:    -0.3944      Y:     0.1252      Z:     0.0560     Total:     0.4175


*** tstop() called on node62.bme.utexas.edu at Sat Apr 11 16:46:12 2020
Module time:
	user time   =     157.37 seconds =       2.62 minutes
	system time =       3.51 seconds =       0.06 minutes
	total time  =         30 seconds =       0.50 minutes
Total time:
	user time   =     896.93 seconds =      14.95 minutes
	system time =      25.72 seconds =       0.43 minutes
	total time  =        184 seconds =       3.07 minutes

*** tstart() called on node62.bme.utexas.edu
*** at Sat Apr 11 16:46:12 2020


  //>>>>>>>>>>>>>>>>>>>>>>>>>>>>>>>>>>>//
  //               DFMP2               //
  //<<<<<<<<<<<<<<<<<<<<<<<<<<<<<<<<<<<//

   => Loading Basis Set <=

    Name: (AUG-CC-PVQZ AUX)
    Role: RIFIT
    Keyword: DF_BASIS_MP2
    atoms 1           entry C          line   184 file /home/liuchw/anaconda3/envs/psi4env/share/psi4/basis/aug-cc-pvqz-ri.gbs 
    atoms 2-4         entry N          line   258 file /home/liuchw/anaconda3/envs/psi4env/share/psi4/basis/aug-cc-pvqz-ri.gbs 
    atoms 5-10, 12-13 entry H          line    30 file /home/liuchw/anaconda3/envs/psi4env/share/psi4/basis/aug-cc-pvqz-ri.gbs 
    atoms 11          entry O          line   332 file /home/liuchw/anaconda3/envs/psi4env/share/psi4/basis/aug-cc-pvqz-ri.gbs 

	 --------------------------------------------------------
	                          DF-MP2                         
	      2nd-Order Density-Fitted Moller-Plesset Theory     
	              RMP2 Wavefunction,   6 Threads             
	                                                         
	        Rob Parrish, Justin Turney, Andy Simmonett,      
	           Ed Hohenstein, and C. David Sherrill          
	 --------------------------------------------------------

   => Auxiliary Basis Set <=

  Basis Set: (AUG-CC-PVQZ AUX)
    Blend: AUG-CC-PVQZ-RI
    Number of shells: 340
    Number of basis function: 1480
    Number of Cartesian functions: 2025
    Spherical Harmonics?: true
    Max angular momentum: 5

	 --------------------------------------------------------
	                 NBF =   768, NAUX =  1480
	 --------------------------------------------------------
	   CLASS    FOCC     OCC    AOCC    AVIR     VIR    FVIR
	   PAIRS       0      21      21     747     747       0
	 --------------------------------------------------------

	-----------------------------------------------------------
	 ==================> DF-MP2 Energies <==================== 
	-----------------------------------------------------------
	 Reference Energy          =    -280.7177425161168003 [Eh]
	 Singles Energy            =      -0.0000000000000000 [Eh]
	 Same-Spin Energy          =      -0.2913269034377187 [Eh]
	 Opposite-Spin Energy      =      -0.9839565614918383 [Eh]
	 Correlation Energy        =      -1.2752834649295570 [Eh]
	 Total Energy              =    -281.9930259810463440 [Eh]
	-----------------------------------------------------------
	 ================> DF-SCS-MP2 Energies <================== 
	-----------------------------------------------------------
	 SCS Same-Spin Scale       =       0.3333333333333333 [-]
	 SCS Opposite-Spin Scale   =       1.2000000000000000 [-]
	 SCS Same-Spin Energy      =      -0.0971089678125729 [Eh]
	 SCS Opposite-Spin Energy  =      -1.1807478737902060 [Eh]
	 SCS Correlation Energy    =      -1.2778568416027789 [Eh]
	 SCS Total Energy          =    -281.9955993577195841 [Eh]
	-----------------------------------------------------------


*** tstop() called on node62.bme.utexas.edu at Sat Apr 11 16:46:30 2020
Module time:
	user time   =      82.75 seconds =       1.38 minutes
	system time =       2.54 seconds =       0.04 minutes
	total time  =         18 seconds =       0.30 minutes
Total time:
	user time   =     979.68 seconds =      16.33 minutes
	system time =      28.26 seconds =       0.47 minutes
	total time  =        202 seconds =       3.37 minutes

  //>>>>>>>>>>>>>>>>>>>>>>>>>>>>>>>>>>>//
  //  CBS Results: mp2/aug-cc-pv[tq]z  //
  //<<<<<<<<<<<<<<<<<<<<<<<<<<<<<<<<<<<//


   ==> HF <==

   HI-zeta (4) Energy:               -280.717742516117


   ==> Helgaker 2-point correlated extrapolation for method: MP2 <==

   LO-zeta (3) Energy:               -281.846083938263
   HI-zeta (4) Energy:               -281.993025981046
   Alpha (exponent) Value:             3.000000000000
   Extrapolated Energy:              -282.100253958212

   @Extrapolated MP2/(T,Q):          -282.100253958212



   ==> Helgaker 2-point correlated extrapolation for method: HF <==

   LO-zeta (3) Energy:               -280.699373299141
   HI-zeta (4) Energy:               -280.717742516117
   Alpha (exponent) Value:             3.000000000000
   Extrapolated Energy:              -280.731147079856

   @Extrapolated HF/(T,Q):           -280.731147079856


   ==> Components <==

  ---------------------------------------------------------------------------------------------------------
                          Method / Basis                      Rqd      Energy [Eh]   Variable
  ---------------------------------------------------------------------------------------------------------
                              hf / aug-cc-pvtz                  *    -280.69937330   HF TOTAL ENERGY
                             mp2 / aug-cc-pvtz                  *    -281.84608394   MP2 TOTAL ENERGY
                              hf / aug-cc-pvqz                  *    -280.71774252   HF TOTAL ENERGY
                             mp2 / aug-cc-pvqz                  *    -281.99302598   MP2 TOTAL ENERGY
  ---------------------------------------------------------------------------------------------------------

   ==> Stages <==

  ---------------------------------------------------------------------------------------------------------
      Stage               Method / Basis                       Wt      Energy [Eh]   Scheme
  ---------------------------------------------------------------------------------------------------------
        scf                   hf / aug-cc-pvqz                  1    -280.71774252   xtpl_highest_1
       corl                  mp2 / aug-cc-pv[tq]z               1    -282.10025396   corl_xtpl_helgaker_2
       corl                   hf / aug-cc-pv[tq]z              -1    -280.73114708   corl_xtpl_helgaker_2
  ---------------------------------------------------------------------------------------------------------

   ==> CBS <==

  ---------------------------------------------------------------------------------------------------------
      Stage               Method / Basis                               Energy [Eh]   Scheme
  ---------------------------------------------------------------------------------------------------------
        scf                   hf / aug-cc-pvqz                       -280.71774252   xtpl_highest_1
       corl                  mp2 / aug-cc-pv[tq]z                      -1.36910688   corl_xtpl_helgaker_2
      total                  CBS                                     -282.08684939   
  ---------------------------------------------------------------------------------------------------------
   => Loading Basis Set <=

    Name: DEF2-SVP
    Role: ORBITAL
    Keyword: BASIS
    atoms 1           entry C          line    90 file /home/liuchw/anaconda3/envs/psi4env/share/psi4/basis/def2-svp.gbs 
    atoms 2-4         entry N          line   110 file /home/liuchw/anaconda3/envs/psi4env/share/psi4/basis/def2-svp.gbs 
    atoms 5-10, 12-13 entry H          line    15 file /home/liuchw/anaconda3/envs/psi4env/share/psi4/basis/def2-svp.gbs 
    atoms 11          entry O          line   130 file /home/liuchw/anaconda3/envs/psi4env/share/psi4/basis/def2-svp.gbs 


       N-Body: Complex Energy (fragments = (1, 2), basis = (1, 2):  -282.08684939447346)

   ==> N-Body: Counterpoise Corrected (CP) energies <==

   n-Body     Total Energy [Eh]       I.E. [kcal/mol]      Delta [kcal/mol]
        1     -282.059040169403        0.000000000000        0.000000000000
        2     -282.087270873708      -17.715034402819      -17.715034402819

   => Loading Basis Set <=

    Name: DEF2-SVP
    Role: ORBITAL
    Keyword: BASIS
    atoms 1           entry C          line    90 file /home/liuchw/anaconda3/envs/psi4env/share/psi4/basis/def2-svp.gbs 
    atoms 2-4         entry N          line   110 file /home/liuchw/anaconda3/envs/psi4env/share/psi4/basis/def2-svp.gbs 
    atoms 5-10, 12-13 entry H          line    15 file /home/liuchw/anaconda3/envs/psi4env/share/psi4/basis/def2-svp.gbs 
    atoms 11          entry O          line   130 file /home/liuchw/anaconda3/envs/psi4env/share/psi4/basis/def2-svp.gbs 


    Psi4 stopped on: Saturday, 11 April 2020 04:46PM
    Psi4 wall time for execution: 0:03:22.13

*** Psi4 exiting successfully. Buy a developer a beer!
