
    -----------------------------------------------------------------------
          Psi4: An Open-Source Ab Initio Electronic Structure Package
                               Psi4 1.4a2.dev224 

                         Git: Rev {master} e453b16 


    R. M. Parrish, L. A. Burns, D. G. A. Smith, A. C. Simmonett,
    A. E. DePrince III, E. G. Hohenstein, U. Bozkaya, A. Yu. Sokolov,
    R. Di Remigio, R. M. Richard, J. F. Gonthier, A. M. James,
    H. R. McAlexander, A. Kumar, M. Saitow, X. Wang, B. P. Pritchard,
    P. Verma, H. F. Schaefer III, K. Patkowski, R. A. King, E. F. Valeev,
    F. A. Evangelista, J. M. Turney, T. D. Crawford, and C. D. Sherrill,
    J. Chem. Theory Comput. 13(7) pp 3185--3197 (2017).
    (doi: 10.1021/acs.jctc.7b00174)


                         Additional Contributions by
    P. Kraus, H. Kruse, M. H. Lechner, M. C. Schieber, R. A. Shaw,
    A. Alenaizan, R. Galvelis, Z. L. Glick, S. Lehtola, and J. P. Misiewicz

    -----------------------------------------------------------------------


    Psi4 started on: Saturday, 11 April 2020 04:22PM

    Process ID: 19775
    Host:       node70.bme.utexas.edu
    PSIDATADIR: /home/liuchw/anaconda3/envs/psi4env/share/psi4
    Memory:     500.0 MiB
    Threads:    6
    
  ==> Input File <==

--------------------------------------------------------------------------
#Generated by lconvert.py for cbs job

memory 40 GB

molecule  {
-1 1
  C       -0.8399350     0.4807070    -0.3696050
  C       -2.1072780    -0.3420020    -0.0493320
  O       -2.0428620    -1.5800500    -0.2641380
  O       -3.0771720     0.3265260     0.3971320
  H       -0.5060400     0.9951150     0.5319170
  H       -0.0398040    -0.1506950    -0.7502850
  H       -1.0841300     1.2488090    -1.1039280
--
0 1
  O       -4.7512870    -1.9789070     0.6311550
  H       -4.5082830    -1.0390780     0.6910610
  H       -3.8902070    -2.2614260     0.2830220
units angstrom
no_reorient
symmetry c1
}

set {
scf_type DF
mp2_type DF
e_convergence 7
reference rhf
}

energy('mp2/aug-cc-pv[tq]z', bsse_type='cp')
--------------------------------------------------------------------------

  Memory set to  37.253 GiB by Python driver.

Scratch directory: /scratch//


   ===> N-Body Interaction Abacus <===
        BSSE Treatment:                     cp
        Number of 1-body computations:     4
        Number of 2-body computations:     1

   ==> N-Body: Now computing 1-body complexes <==


       N-Body: Computing complex (1/4) with fragments (2,) in the basis of fragments (2,).


Scratch directory: /scratch//

  //>>>>>>>>>>>>>>>>>>>>>>>>>>>>>>>>>>>//
  //   CBS Setup: mp2/aug-cc-pv[tq]z   //
  //<<<<<<<<<<<<<<<<<<<<<<<<<<<<<<<<<<<//

    Naive listing of computations required.
             hf / aug-cc-pvqz              for  HF TOTAL ENERGY
            mp2 / aug-cc-pvtz              for  MP2 TOTAL ENERGY
            mp2 / aug-cc-pvqz              for  MP2 TOTAL ENERGY
             hf / aug-cc-pvtz              for  HF TOTAL ENERGY
             hf / aug-cc-pvqz              for  HF TOTAL ENERGY

    Enlightened listing of computations required.
            mp2 / aug-cc-pvtz              for  MP2 TOTAL ENERGY
            mp2 / aug-cc-pvqz              for  MP2 TOTAL ENERGY

    Full listing of computations to be obtained (required and bonus).
             hf / aug-cc-pvtz              for  HF TOTAL ENERGY
            mp2 / aug-cc-pvtz              for  MP2 TOTAL ENERGY
             hf / aug-cc-pvqz              for  HF TOTAL ENERGY
            mp2 / aug-cc-pvqz              for  MP2 TOTAL ENERGY

  //>>>>>>>>>>>>>>>>>>>>>>>>>>>>>>>>>>>>//
  // CBS Computation: MP2 / AUG-CC-PVTZ //
  //<<<<<<<<<<<<<<<<<<<<<<<<<<<<<<<<<<<<//


Scratch directory: /scratch//

*** tstart() called on node70.bme.utexas.edu
*** at Sat Apr 11 16:22:11 2020

   => Loading Basis Set <=

    Name: AUG-CC-PVTZ
    Role: ORBITAL
    Keyword: BASIS
    atoms 1   entry O          line   331 file /home/liuchw/anaconda3/envs/psi4env/share/psi4/basis/aug-cc-pvtz.gbs 
    atoms 2-3 entry H          line    40 file /home/liuchw/anaconda3/envs/psi4env/share/psi4/basis/aug-cc-pvtz.gbs 


         ---------------------------------------------------------
                                   SCF
               by Justin Turney, Rob Parrish, Andy Simmonett
                          and Daniel G. A. Smith
                              RHF Reference
                        6 Threads,  38146 MiB Core
         ---------------------------------------------------------

  ==> Geometry <==

    Molecular point group: c1
    Full point group: C1

    Geometry (in Angstrom), charge = 0, multiplicity = 1:

       Center              X                  Y                   Z               Mass       
    ------------   -----------------  -----------------  -----------------  -----------------
         O           -2.111008963864    -1.313467565749     0.542295321555    15.994914619570
         H           -1.868004963864    -0.373638565749     0.602201321555     1.007825032230
         H           -1.249928963864    -1.595986565749     0.194162321555     1.007825032230

  Running in c1 symmetry.

  Rotational constants: A =     16.38052  B =      0.15221  C =      0.15081 [cm^-1]
  Rotational constants: A = 491075.53438  B =   4563.21029  C =   4521.19807 [MHz]
  Nuclear repulsion =    9.083719965408552

  Charge       = 0
  Multiplicity = 1
  Electrons    = 10
  Nalpha       = 5
  Nbeta        = 5

  ==> Algorithm <==

  SCF Algorithm Type is DF.
  DIIS enabled.
  MOM disabled.
  Fractional occupation disabled.
  Guess Type is SAD.
  Energy threshold   = 1.00e-07
  Density threshold  = 1.00e-08
  Integral threshold = 0.00e+00

  ==> Primary Basis <==

  Basis Set: AUG-CC-PVTZ
    Blend: AUG-CC-PVTZ
    Number of shells: 32
    Number of basis function: 92
    Number of Cartesian functions: 105
    Spherical Harmonics?: true
    Max angular momentum: 3

   => Loading Basis Set <=

    Name: (AUG-CC-PVTZ AUX)
    Role: JKFIT
    Keyword: DF_BASIS_SCF
    atoms 1   entry O          line   286 file /home/liuchw/anaconda3/envs/psi4env/share/psi4/basis/aug-cc-pvtz-jkfit.gbs 
    atoms 2-3 entry H          line    70 file /home/liuchw/anaconda3/envs/psi4env/share/psi4/basis/aug-cc-pvtz-jkfit.gbs 

  ==> Pre-Iterations <==

   -------------------------------------------------------
    Irrep   Nso     Nmo     Nalpha   Nbeta   Ndocc  Nsocc
   -------------------------------------------------------
     A         92      92       0       0       0       0
   -------------------------------------------------------
    Total      92      92       5       5       5       0
   -------------------------------------------------------

  ==> Integral Setup <==

  DFHelper Memory: AOs need 0.015 GiB; user supplied 27.940 GiB. Using in-core AOs.

  ==> MemDFJK: Density-Fitted J/K Matrices <==

    J tasked:                   Yes
    K tasked:                   Yes
    wK tasked:                   No
    OpenMP threads:               6
    Memory [MiB]:             28610
    Algorithm:                 Core
    Schwarz Cutoff:           1E-12
    Mask sparsity (%):       0.0000
    Fitting Condition:        1E-10

   => Auxiliary Basis Set <=

  Basis Set: (AUG-CC-PVTZ AUX)
    Blend: AUG-CC-PVTZ-JKFIT
    Number of shells: 58
    Number of basis function: 196
    Number of Cartesian functions: 241
    Spherical Harmonics?: true
    Max angular momentum: 4

  Minimum eigenvalue in the overlap matrix is 4.0939799483E-04.
  Using Symmetric Orthogonalization.

  SCF Guess: Superposition of Atomic Densities via on-the-fly atomic UHF.

  ==> Iterations <==

                           Total Energy        Delta E     RMS |[F,P]|

   @DF-RHF iter SAD:   -75.47242828100538   -7.54724e+01   0.00000e+00 
   @DF-RHF iter   1:   -75.97014475277712   -4.97716e-01   5.08926e-03 DIIS
   @DF-RHF iter   2:   -76.02245105340143   -5.23063e-02   3.55639e-03 DIIS
   @DF-RHF iter   3:   -76.05579754188082   -3.33465e-02   2.39468e-04 DIIS
   @DF-RHF iter   4:   -76.05619157083105   -3.94029e-04   5.96815e-05 DIIS
   @DF-RHF iter   5:   -76.05621943538466   -2.78646e-05   1.42478e-05 DIIS
   @DF-RHF iter   6:   -76.05622187581400   -2.44043e-06   3.03119e-06 DIIS
   @DF-RHF iter   7:   -76.05622199278656   -1.16973e-07   4.78409e-07 DIIS
   @DF-RHF iter   8:   -76.05622199525003   -2.46347e-09   7.77995e-08 DIIS
   @DF-RHF iter   9:   -76.05622199529587   -4.58442e-11   1.57489e-08 DIIS
   @DF-RHF iter  10:   -76.05622199529823   -2.35900e-12   2.91081e-09 DIIS
  Energy and wave function converged.


  ==> Post-Iterations <==

    Orbital Energies [Eh]
    ---------------------

    Doubly Occupied:                                                      

       1A    -20.573829     2A     -1.353515     3A     -0.690211  
       4A     -0.601554     5A     -0.512020  

    Virtual:                                                              

       6A      0.028550     7A      0.048258     8A      0.134215  
       9A      0.160735    10A      0.176498    11A      0.185488  
      12A      0.222990    13A      0.245737    14A      0.268942  
      15A      0.290160    16A      0.304849    17A      0.367294  
      18A      0.433754    19A      0.462982    20A      0.592992  
      21A      0.666311    22A      0.700198    23A      0.728455  
      24A      0.730691    25A      0.837868    26A      0.857767  
      27A      0.898453    28A      0.907281    29A      0.909798  
      30A      0.924209    31A      0.939761    32A      0.944069  
      33A      1.014581    34A      1.037272    35A      1.077320  
      36A      1.103853    37A      1.181089    38A      1.193337  
      39A      1.268176    40A      1.469285    41A      1.509496  
      42A      1.552292    43A      1.822588    44A      1.884046  
      45A      1.951217    46A      2.130264    47A      2.267068  
      48A      2.313400    49A      2.335748    50A      2.411184  
      51A      2.419650    52A      2.448628    53A      2.501309  
      54A      2.671065    55A      2.700503    56A      2.734949  
      57A      2.809243    58A      2.875864    59A      3.607499  
      60A      3.663789    61A      4.045243    62A      4.061681  
      63A      4.074982    64A      4.146038    65A      4.286972  
      66A      4.355428    67A      4.374596    68A      4.406601  
      69A      4.561099    70A      4.748371    71A      4.840137  
      72A      5.100640    73A      5.139643    74A      5.232106  
      75A      5.320213    76A      5.521943    77A      5.557145  
      78A      6.241540    79A      6.472800    80A      6.702471  
      81A      6.990231    82A      7.115524    83A      7.130797  
      84A      7.269986    85A      7.303719    86A      7.335105  
      87A      7.414087    88A      7.485884    89A      7.762305  
      90A      7.951321    91A      8.814962    92A     15.409507  

    Final Occupation by Irrep:
              A 
    DOCC [     5 ]

  @DF-RHF Final Energy:   -76.05622199529823

   => Energetics <=

    Nuclear Repulsion Energy =              9.0837199654085516
    One-Electron Energy =                -122.8176270207793550
    Two-Electron Energy =                  37.6776850600725908
    Total Energy =                        -76.0562219952982161

Computation Completed


Properties will be evaluated at   0.000000,   0.000000,   0.000000 [a0]

Properties computed using the SCF density matrix

  Nuclear Dipole Moment: [e a0]
     X:   -37.8059      Y:   -23.5788      Z:     9.7032

  Electronic Dipole Moment: [e a0]
     X:    38.5154      Y:    24.0008      Z:    -9.8885

  Dipole Moment: [e a0]
     X:     0.7095      Y:     0.4220      Z:    -0.1853     Total:     0.8460

  Dipole Moment: [D]
     X:     1.8033      Y:     1.0725      Z:    -0.4709     Total:     2.1503


*** tstop() called on node70.bme.utexas.edu at Sat Apr 11 16:22:12 2020
Module time:
	user time   =       5.04 seconds =       0.08 minutes
	system time =       0.27 seconds =       0.00 minutes
	total time  =          1 seconds =       0.02 minutes
Total time:
	user time   =       5.04 seconds =       0.08 minutes
	system time =       0.27 seconds =       0.00 minutes
	total time  =          1 seconds =       0.02 minutes

*** tstart() called on node70.bme.utexas.edu
*** at Sat Apr 11 16:22:12 2020


  //>>>>>>>>>>>>>>>>>>>>>>>>>>>>>>>>>>>//
  //               DFMP2               //
  //<<<<<<<<<<<<<<<<<<<<<<<<<<<<<<<<<<<//

   => Loading Basis Set <=

    Name: (AUG-CC-PVTZ AUX)
    Role: RIFIT
    Keyword: DF_BASIS_MP2
    atoms 1   entry O          line   264 file /home/liuchw/anaconda3/envs/psi4env/share/psi4/basis/aug-cc-pvtz-ri.gbs 
    atoms 2-3 entry H          line    30 file /home/liuchw/anaconda3/envs/psi4env/share/psi4/basis/aug-cc-pvtz-ri.gbs 

	 --------------------------------------------------------
	                          DF-MP2                         
	      2nd-Order Density-Fitted Moller-Plesset Theory     
	              RMP2 Wavefunction,   6 Threads             
	                                                         
	        Rob Parrish, Justin Turney, Andy Simmonett,      
	           Ed Hohenstein, and C. David Sherrill          
	 --------------------------------------------------------

   => Auxiliary Basis Set <=

  Basis Set: (AUG-CC-PVTZ AUX)
    Blend: AUG-CC-PVTZ-RI
    Number of shells: 56
    Number of basis function: 198
    Number of Cartesian functions: 246
    Spherical Harmonics?: true
    Max angular momentum: 4

	 --------------------------------------------------------
	                 NBF =    92, NAUX =   198
	 --------------------------------------------------------
	   CLASS    FOCC     OCC    AOCC    AVIR     VIR    FVIR
	   PAIRS       0       5       5      87      87       0
	 --------------------------------------------------------

	-----------------------------------------------------------
	 ==================> DF-MP2 Energies <==================== 
	-----------------------------------------------------------
	 Reference Energy          =     -76.0562219952982304 [Eh]
	 Singles Energy            =      -0.0000000000000000 [Eh]
	 Same-Spin Energy          =      -0.0688986858209881 [Eh]
	 Opposite-Spin Energy      =      -0.2166336195424580 [Eh]
	 Correlation Energy        =      -0.2855323053634461 [Eh]
	 Total Energy              =     -76.3417543006616768 [Eh]
	-----------------------------------------------------------
	 ================> DF-SCS-MP2 Energies <================== 
	-----------------------------------------------------------
	 SCS Same-Spin Scale       =       0.3333333333333333 [-]
	 SCS Opposite-Spin Scale   =       1.2000000000000000 [-]
	 SCS Same-Spin Energy      =      -0.0229662286069960 [Eh]
	 SCS Opposite-Spin Energy  =      -0.2599603434509496 [Eh]
	 SCS Correlation Energy    =      -0.2829265720579456 [Eh]
	 SCS Total Energy          =     -76.3391485673561760 [Eh]
	-----------------------------------------------------------


*** tstop() called on node70.bme.utexas.edu at Sat Apr 11 16:22:12 2020
Module time:
	user time   =       2.44 seconds =       0.04 minutes
	system time =       0.15 seconds =       0.00 minutes
	total time  =          0 seconds =       0.00 minutes
Total time:
	user time   =       7.49 seconds =       0.12 minutes
	system time =       0.43 seconds =       0.01 minutes
	total time  =          1 seconds =       0.02 minutes

  //>>>>>>>>>>>>>>>>>>>>>>>>>>>>>>>>>>>>//
  // CBS Computation: MP2 / AUG-CC-PVQZ //
  //<<<<<<<<<<<<<<<<<<<<<<<<<<<<<<<<<<<<//


Scratch directory: /scratch//

*** tstart() called on node70.bme.utexas.edu
*** at Sat Apr 11 16:22:12 2020

   => Loading Basis Set <=

    Name: AUG-CC-PVQZ
    Role: ORBITAL
    Keyword: BASIS
    atoms 1   entry O          line   423 file /home/liuchw/anaconda3/envs/psi4env/share/psi4/basis/aug-cc-pvqz.gbs 
    atoms 2-3 entry H          line    40 file /home/liuchw/anaconda3/envs/psi4env/share/psi4/basis/aug-cc-pvqz.gbs 


         ---------------------------------------------------------
                                   SCF
               by Justin Turney, Rob Parrish, Andy Simmonett
                          and Daniel G. A. Smith
                              RHF Reference
                        6 Threads,  38146 MiB Core
         ---------------------------------------------------------

  ==> Geometry <==

    Molecular point group: c1
    Full point group: C1

    Geometry (in Angstrom), charge = 0, multiplicity = 1:

       Center              X                  Y                   Z               Mass       
    ------------   -----------------  -----------------  -----------------  -----------------
         O           -2.111008963864    -1.313467565749     0.542295321555    15.994914619570
         H           -1.868004963864    -0.373638565749     0.602201321555     1.007825032230
         H           -1.249928963864    -1.595986565749     0.194162321555     1.007825032230

  Running in c1 symmetry.

  Rotational constants: A =     16.38052  B =      0.15221  C =      0.15081 [cm^-1]
  Rotational constants: A = 491075.53438  B =   4563.21029  C =   4521.19807 [MHz]
  Nuclear repulsion =    9.083719965408552

  Charge       = 0
  Multiplicity = 1
  Electrons    = 10
  Nalpha       = 5
  Nbeta        = 5

  ==> Algorithm <==

  SCF Algorithm Type is DF.
  DIIS enabled.
  MOM disabled.
  Fractional occupation disabled.
  Guess Type is SAD.
  Energy threshold   = 1.00e-07
  Density threshold  = 1.00e-08
  Integral threshold = 0.00e+00

  ==> Primary Basis <==

  Basis Set: AUG-CC-PVQZ
    Blend: AUG-CC-PVQZ
    Number of shells: 48
    Number of basis function: 172
    Number of Cartesian functions: 215
    Spherical Harmonics?: true
    Max angular momentum: 4

   => Loading Basis Set <=

    Name: (AUG-CC-PVQZ AUX)
    Role: JKFIT
    Keyword: DF_BASIS_SCF
    atoms 1   entry O          line   318 file /home/liuchw/anaconda3/envs/psi4env/share/psi4/basis/aug-cc-pvqz-jkfit.gbs 
    atoms 2-3 entry H          line    70 file /home/liuchw/anaconda3/envs/psi4env/share/psi4/basis/aug-cc-pvqz-jkfit.gbs 

  ==> Pre-Iterations <==

   -------------------------------------------------------
    Irrep   Nso     Nmo     Nalpha   Nbeta   Ndocc  Nsocc
   -------------------------------------------------------
     A        172     172       0       0       0       0
   -------------------------------------------------------
    Total     172     172       5       5       5       0
   -------------------------------------------------------

  ==> Integral Setup <==

  DFHelper Memory: AOs need 0.074 GiB; user supplied 27.940 GiB. Using in-core AOs.

  ==> MemDFJK: Density-Fitted J/K Matrices <==

    J tasked:                   Yes
    K tasked:                   Yes
    wK tasked:                   No
    OpenMP threads:               6
    Memory [MiB]:             28610
    Algorithm:                 Core
    Schwarz Cutoff:           1E-12
    Mask sparsity (%):       0.0000
    Fitting Condition:        1E-10

   => Auxiliary Basis Set <=

  Basis Set: (AUG-CC-PVQZ AUX)
    Blend: AUG-CC-PVQZ-JKFIT
    Number of shells: 70
    Number of basis function: 294
    Number of Cartesian functions: 400
    Spherical Harmonics?: true
    Max angular momentum: 5

  Minimum eigenvalue in the overlap matrix is 9.2067192199E-05.
  Using Symmetric Orthogonalization.

  SCF Guess: Superposition of Atomic Densities via on-the-fly atomic UHF.

  ==> Iterations <==

                           Total Energy        Delta E     RMS |[F,P]|

   @DF-RHF iter SAD:   -75.47752003189650   -7.54775e+01   0.00000e+00 
   @DF-RHF iter   1:   -75.97518569810030   -4.97666e-01   2.72819e-03 DIIS
   @DF-RHF iter   2:   -76.02757911606153   -5.23934e-02   1.91033e-03 DIIS
   @DF-RHF iter   3:   -76.06112653876148   -3.35474e-02   1.29156e-04 DIIS
   @DF-RHF iter   4:   -76.06152274256148   -3.96204e-04   3.28217e-05 DIIS
   @DF-RHF iter   5:   -76.06155154921247   -2.88067e-05   7.81324e-06 DIIS
   @DF-RHF iter   6:   -76.06155408179559   -2.53258e-06   1.71383e-06 DIIS
   @DF-RHF iter   7:   -76.06155421274455   -1.30949e-07   2.80922e-07 DIIS
   @DF-RHF iter   8:   -76.06155421571171   -2.96716e-09   4.33722e-08 DIIS
   @DF-RHF iter   9:   -76.06155421576372   -5.20117e-11   8.73250e-09 DIIS
  Energy and wave function converged.


  ==> Post-Iterations <==

    Orbital Energies [Eh]
    ---------------------

    Doubly Occupied:                                                      

       1A    -20.571364     2A     -1.352777     3A     -0.690178  
       4A     -0.601590     5A     -0.512160  

    Virtual:                                                              

       6A      0.026169     7A      0.043568     8A      0.112562  
       9A      0.135378    10A      0.152094    11A      0.160425  
      12A      0.182454    13A      0.197025    14A      0.211747  
      15A      0.229580    16A      0.253732    17A      0.294009  
      18A      0.354041    19A      0.386767    20A      0.466907  
      21A      0.512502    22A      0.538450    23A      0.552019  
      24A      0.557338    25A      0.619284    26A      0.630283  
      27A      0.646246    28A      0.662794    29A      0.662972  
      30A      0.674343    31A      0.709538    32A      0.726934  
      33A      0.769292    34A      0.784774    35A      0.790401  
      36A      0.801233    37A      0.840383    38A      0.847835  
      39A      0.973128    40A      1.088692    41A      1.147755  
      42A      1.190782    43A      1.336136    44A      1.471655  
      45A      1.487649    46A      1.496053    47A      1.514043  
      48A      1.532432    49A      1.551685    50A      1.579130  
      51A      1.623793    52A      1.631998    53A      1.647508  
      54A      1.676890    55A      1.692059    56A      1.698680  
      57A      1.734745    58A      1.739560    59A      1.752903  
      60A      1.780209    61A      1.868563    62A      1.877885  
      63A      1.918391    64A      1.949627    65A      1.981188  
      66A      2.038744    67A      2.046079    68A      2.076129  
      69A      2.106399    70A      2.177319    71A      2.196610  
      72A      2.318056    73A      2.362821    74A      2.582967  
      75A      2.607645    76A      2.886084    77A      2.920078  
      78A      2.954289    79A      3.033070    80A      3.057502  
      81A      3.088085    82A      3.175386    83A      3.380441  
      84A      3.415423    85A      3.423869    86A      3.566796  
      87A      3.613603    88A      3.674520    89A      3.692979  
      90A      3.904879    91A      3.931693    92A      4.082689  
      93A      4.155644    94A      4.169074    95A      4.173298  
      96A      4.193242    97A      4.208017    98A      4.302020  
      99A      4.437711   100A      4.594849   101A      4.671618  
     102A      4.722812   103A      4.728465   104A      4.741865  
     105A      4.873514   106A      4.908086   107A      4.962443  
     108A      5.186949   109A      5.288964   110A      5.460408  
     111A      5.581623   112A      5.783336   113A      5.888032  
     114A      6.049599   115A      6.177345   116A      6.689266  
     117A      6.779669   118A      6.923447   119A      6.994556  
     120A      7.641371   121A      7.714235   122A      7.752772  
     123A      7.799634   124A      7.802865   125A      7.811427  
     126A      7.944085   127A      7.988172   128A      8.038583  
     129A      8.078469   130A      8.538596   131A      8.583352  
     132A      8.631222   133A      8.720073   134A      8.807482  
     135A      8.818340   136A      9.001622   137A      9.025280  
     138A      9.310637   139A      9.646767   140A      9.789254  
     141A      9.877820   142A      9.922239   143A     10.120269  
     144A     10.322494   145A     10.336968   146A     10.800350  
     147A     11.030387   148A     11.063097   149A     11.182492  
     150A     11.185322   151A     11.291578   152A     11.353273  
     153A     11.745439   154A     11.773802   155A     11.803740  
     156A     11.948027   157A     12.130714   158A     12.235677  
     159A     12.550869   160A     12.726135   161A     12.883604  
     162A     12.887782   163A     13.006314   164A     13.768529  
     165A     13.932214   166A     14.483069   167A     14.658505  
     168A     14.979355   169A     15.149789   170A     16.623771  
     171A     17.279502   172A     45.379310  

    Final Occupation by Irrep:
              A 
    DOCC [     5 ]

  @DF-RHF Final Energy:   -76.06155421576372

   => Energetics <=

    Nuclear Repulsion Energy =              9.0837199654085516
    One-Electron Energy =                -122.8344075113317899
    Two-Electron Energy =                  37.6891333301595282
    Total Energy =                        -76.0615542157637208

Computation Completed


Properties will be evaluated at   0.000000,   0.000000,   0.000000 [a0]

Properties computed using the SCF density matrix

  Nuclear Dipole Moment: [e a0]
     X:   -37.8059      Y:   -23.5788      Z:     9.7032

  Electronic Dipole Moment: [e a0]
     X:    38.5146      Y:    24.0003      Z:    -9.8883

  Dipole Moment: [e a0]
     X:     0.7088      Y:     0.4215      Z:    -0.1851     Total:     0.8451

  Dipole Moment: [D]
     X:     1.8015      Y:     1.0714      Z:    -0.4705     Total:     2.1481


*** tstop() called on node70.bme.utexas.edu at Sat Apr 11 16:22:14 2020
Module time:
	user time   =       8.10 seconds =       0.13 minutes
	system time =       0.44 seconds =       0.01 minutes
	total time  =          2 seconds =       0.03 minutes
Total time:
	user time   =      15.63 seconds =       0.26 minutes
	system time =       0.87 seconds =       0.01 minutes
	total time  =          3 seconds =       0.05 minutes

*** tstart() called on node70.bme.utexas.edu
*** at Sat Apr 11 16:22:14 2020


  //>>>>>>>>>>>>>>>>>>>>>>>>>>>>>>>>>>>//
  //               DFMP2               //
  //<<<<<<<<<<<<<<<<<<<<<<<<<<<<<<<<<<<//

   => Loading Basis Set <=

    Name: (AUG-CC-PVQZ AUX)
    Role: RIFIT
    Keyword: DF_BASIS_MP2
    atoms 1   entry O          line   332 file /home/liuchw/anaconda3/envs/psi4env/share/psi4/basis/aug-cc-pvqz-ri.gbs 
    atoms 2-3 entry H          line    30 file /home/liuchw/anaconda3/envs/psi4env/share/psi4/basis/aug-cc-pvqz-ri.gbs 

	 --------------------------------------------------------
	                          DF-MP2                         
	      2nd-Order Density-Fitted Moller-Plesset Theory     
	              RMP2 Wavefunction,   6 Threads             
	                                                         
	        Rob Parrish, Justin Turney, Andy Simmonett,      
	           Ed Hohenstein, and C. David Sherrill          
	 --------------------------------------------------------

   => Auxiliary Basis Set <=

  Basis Set: (AUG-CC-PVQZ AUX)
    Blend: AUG-CC-PVQZ-RI
    Number of shells: 76
    Number of basis function: 328
    Number of Cartesian functions: 447
    Spherical Harmonics?: true
    Max angular momentum: 5

	 --------------------------------------------------------
	                 NBF =   172, NAUX =   328
	 --------------------------------------------------------
	   CLASS    FOCC     OCC    AOCC    AVIR     VIR    FVIR
	   PAIRS       0       5       5     167     167       0
	 --------------------------------------------------------

	-----------------------------------------------------------
	 ==================> DF-MP2 Energies <==================== 
	-----------------------------------------------------------
	 Reference Energy          =     -76.0615542157637208 [Eh]
	 Singles Energy            =      -0.0000000000000000 [Eh]
	 Same-Spin Energy          =      -0.0731976367255150 [Eh]
	 Opposite-Spin Energy      =      -0.2455350885001154 [Eh]
	 Correlation Energy        =      -0.3187327252256304 [Eh]
	 Total Energy              =     -76.3802869409893503 [Eh]
	-----------------------------------------------------------
	 ================> DF-SCS-MP2 Energies <================== 
	-----------------------------------------------------------
	 SCS Same-Spin Scale       =       0.3333333333333333 [-]
	 SCS Opposite-Spin Scale   =       1.2000000000000000 [-]
	 SCS Same-Spin Energy      =      -0.0243992122418383 [Eh]
	 SCS Opposite-Spin Energy  =      -0.2946421062001385 [Eh]
	 SCS Correlation Energy    =      -0.3190413184419768 [Eh]
	 SCS Total Energy          =     -76.3805955342056961 [Eh]
	-----------------------------------------------------------


*** tstop() called on node70.bme.utexas.edu at Sat Apr 11 16:22:15 2020
Module time:
	user time   =       3.16 seconds =       0.05 minutes
	system time =       0.20 seconds =       0.00 minutes
	total time  =          1 seconds =       0.02 minutes
Total time:
	user time   =      18.79 seconds =       0.31 minutes
	system time =       1.07 seconds =       0.02 minutes
	total time  =          4 seconds =       0.07 minutes

  //>>>>>>>>>>>>>>>>>>>>>>>>>>>>>>>>>>>//
  //  CBS Results: mp2/aug-cc-pv[tq]z  //
  //<<<<<<<<<<<<<<<<<<<<<<<<<<<<<<<<<<<//


   ==> HF <==

   HI-zeta (4) Energy:               -76.061554215764


   ==> Helgaker 2-point correlated extrapolation for method: MP2 <==

   LO-zeta (3) Energy:               -76.341754300662
   HI-zeta (4) Energy:               -76.380286940989
   Alpha (exponent) Value:             3.000000000000
   Extrapolated Energy:              -76.408405354201

   @Extrapolated MP2/(T,Q):          -76.408405354201



   ==> Helgaker 2-point correlated extrapolation for method: HF <==

   LO-zeta (3) Energy:               -76.056221995298
   HI-zeta (4) Energy:               -76.061554215764
   Alpha (exponent) Value:             3.000000000000
   Extrapolated Energy:              -76.065445295563

   @Extrapolated HF/(T,Q):           -76.065445295563


   ==> Components <==

  ---------------------------------------------------------------------------------------------------------
                          Method / Basis                      Rqd      Energy [Eh]   Variable
  ---------------------------------------------------------------------------------------------------------
                              hf / aug-cc-pvtz                  *     -76.05622200   HF TOTAL ENERGY
                             mp2 / aug-cc-pvtz                  *     -76.34175430   MP2 TOTAL ENERGY
                              hf / aug-cc-pvqz                  *     -76.06155422   HF TOTAL ENERGY
                             mp2 / aug-cc-pvqz                  *     -76.38028694   MP2 TOTAL ENERGY
  ---------------------------------------------------------------------------------------------------------

   ==> Stages <==

  ---------------------------------------------------------------------------------------------------------
      Stage               Method / Basis                       Wt      Energy [Eh]   Scheme
  ---------------------------------------------------------------------------------------------------------
        scf                   hf / aug-cc-pvqz                  1     -76.06155422   xtpl_highest_1
       corl                  mp2 / aug-cc-pv[tq]z               1     -76.40840535   corl_xtpl_helgaker_2
       corl                   hf / aug-cc-pv[tq]z              -1     -76.06544530   corl_xtpl_helgaker_2
  ---------------------------------------------------------------------------------------------------------

   ==> CBS <==

  ---------------------------------------------------------------------------------------------------------
      Stage               Method / Basis                               Energy [Eh]   Scheme
  ---------------------------------------------------------------------------------------------------------
        scf                   hf / aug-cc-pvqz                        -76.06155422   xtpl_highest_1
       corl                  mp2 / aug-cc-pv[tq]z                      -0.34296006   corl_xtpl_helgaker_2
      total                  CBS                                      -76.40451427   
  ---------------------------------------------------------------------------------------------------------
   => Loading Basis Set <=

    Name: DEF2-SVP
    Role: ORBITAL
    Keyword: BASIS
    atoms 1   entry O          line   130 file /home/liuchw/anaconda3/envs/psi4env/share/psi4/basis/def2-svp.gbs 
    atoms 2-3 entry H          line    15 file /home/liuchw/anaconda3/envs/psi4env/share/psi4/basis/def2-svp.gbs 


       N-Body: Complex Energy (fragments = (2,), basis = (2,):   -76.40451427440229)

       N-Body: Computing complex (2/4) with fragments (2,) in the basis of fragments (1, 2).


Scratch directory: /scratch//

  //>>>>>>>>>>>>>>>>>>>>>>>>>>>>>>>>>>>//
  //   CBS Setup: mp2/aug-cc-pv[tq]z   //
  //<<<<<<<<<<<<<<<<<<<<<<<<<<<<<<<<<<<//

    Naive listing of computations required.
             hf / aug-cc-pvqz              for  HF TOTAL ENERGY
            mp2 / aug-cc-pvtz              for  MP2 TOTAL ENERGY
            mp2 / aug-cc-pvqz              for  MP2 TOTAL ENERGY
             hf / aug-cc-pvtz              for  HF TOTAL ENERGY
             hf / aug-cc-pvqz              for  HF TOTAL ENERGY

    Enlightened listing of computations required.
            mp2 / aug-cc-pvtz              for  MP2 TOTAL ENERGY
            mp2 / aug-cc-pvqz              for  MP2 TOTAL ENERGY

    Full listing of computations to be obtained (required and bonus).
             hf / aug-cc-pvtz              for  HF TOTAL ENERGY
            mp2 / aug-cc-pvtz              for  MP2 TOTAL ENERGY
             hf / aug-cc-pvqz              for  HF TOTAL ENERGY
            mp2 / aug-cc-pvqz              for  MP2 TOTAL ENERGY

  //>>>>>>>>>>>>>>>>>>>>>>>>>>>>>>>>>>>>//
  // CBS Computation: MP2 / AUG-CC-PVTZ //
  //<<<<<<<<<<<<<<<<<<<<<<<<<<<<<<<<<<<<//


Scratch directory: /scratch//

*** tstart() called on node70.bme.utexas.edu
*** at Sat Apr 11 16:22:15 2020

   => Loading Basis Set <=

    Name: AUG-CC-PVTZ
    Role: ORBITAL
    Keyword: BASIS
    atoms 1-2       entry C          line   239 file /home/liuchw/anaconda3/envs/psi4env/share/psi4/basis/aug-cc-pvtz.gbs 
    atoms 3-4, 8    entry O          line   331 file /home/liuchw/anaconda3/envs/psi4env/share/psi4/basis/aug-cc-pvtz.gbs 
    atoms 5-7, 9-10 entry H          line    40 file /home/liuchw/anaconda3/envs/psi4env/share/psi4/basis/aug-cc-pvtz.gbs 


         ---------------------------------------------------------
                                   SCF
               by Justin Turney, Rob Parrish, Andy Simmonett
                          and Daniel G. A. Smith
                              RHF Reference
                        6 Threads,  38146 MiB Core
         ---------------------------------------------------------

  ==> Geometry <==

    Molecular point group: c1
    Full point group: C1

    Geometry (in Angstrom), charge = 0, multiplicity = 1:

       Center              X                  Y                   Z               Mass       
    ------------   -----------------  -----------------  -----------------  -----------------
      Gh(C)           1.800343036136     1.146146434251    -0.458464678445    12.000000000000
      Gh(C)           0.533000036136     0.323437434251    -0.138191678445    12.000000000000
      Gh(O)           0.597416036136    -0.914610565749    -0.352997678445    15.994914619570
      Gh(O)          -0.436893963864     0.991965434251     0.308272321555    15.994914619570
      Gh(H)           2.134238036136     1.660554434251     0.443057321555     1.007825032230
      Gh(H)           2.600474036136     0.514744434251    -0.839144678445     1.007825032230
      Gh(H)           1.556148036136     1.914248434251    -1.192787678445     1.007825032230
         O           -2.111008963864    -1.313467565749     0.542295321555    15.994914619570
         H           -1.868004963864    -0.373638565749     0.602201321555     1.007825032230
         H           -1.249928963864    -1.595986565749     0.194162321555     1.007825032230

  Running in c1 symmetry.

  Rotational constants: A =      0.37189  B =      0.08672  C =      0.07124 [cm^-1]
  Rotational constants: A =  11149.08245  B =   2599.75065  C =   2135.77314 [MHz]
  Nuclear repulsion =    9.083719965408552

  Charge       = 0
  Multiplicity = 1
  Electrons    = 10
  Nalpha       = 5
  Nbeta        = 5

  ==> Algorithm <==

  SCF Algorithm Type is DF.
  DIIS enabled.
  MOM disabled.
  Fractional occupation disabled.
  Guess Type is SAD.
  Energy threshold   = 1.00e-07
  Density threshold  = 1.00e-08
  Integral threshold = 0.00e+00

  ==> Primary Basis <==

  Basis Set: AUG-CC-PVTZ
    Blend: AUG-CC-PVTZ
    Number of shells: 115
    Number of basis function: 345
    Number of Cartesian functions: 400
    Spherical Harmonics?: true
    Max angular momentum: 3

   => Loading Basis Set <=

    Name: (AUG-CC-PVTZ AUX)
    Role: JKFIT
    Keyword: DF_BASIS_SCF
    atoms 1-2       entry C          line   162 file /home/liuchw/anaconda3/envs/psi4env/share/psi4/basis/aug-cc-pvtz-jkfit.gbs 
    atoms 3-4, 8    entry O          line   286 file /home/liuchw/anaconda3/envs/psi4env/share/psi4/basis/aug-cc-pvtz-jkfit.gbs 
    atoms 5-7, 9-10 entry H          line    70 file /home/liuchw/anaconda3/envs/psi4env/share/psi4/basis/aug-cc-pvtz-jkfit.gbs 

  ==> Pre-Iterations <==

   -------------------------------------------------------
    Irrep   Nso     Nmo     Nalpha   Nbeta   Ndocc  Nsocc
   -------------------------------------------------------
     A        345     345       0       0       0       0
   -------------------------------------------------------
    Total     345     345       5       5       5       0
   -------------------------------------------------------

  ==> Integral Setup <==

  DFHelper Memory: AOs need 0.677 GiB; user supplied 27.940 GiB. Using in-core AOs.

  ==> MemDFJK: Density-Fitted J/K Matrices <==

    J tasked:                   Yes
    K tasked:                   Yes
    wK tasked:                   No
    OpenMP threads:               6
    Memory [MiB]:             28610
    Algorithm:                 Core
    Schwarz Cutoff:           1E-12
    Mask sparsity (%):       3.2733
    Fitting Condition:        1E-10

   => Auxiliary Basis Set <=

  Basis Set: (AUG-CC-PVTZ AUX)
    Blend: AUG-CC-PVTZ-JKFIT
    Number of shells: 220
    Number of basis function: 750
    Number of Cartesian functions: 930
    Spherical Harmonics?: true
    Max angular momentum: 4

  Minimum eigenvalue in the overlap matrix is 1.6508105160E-05.
  Using Symmetric Orthogonalization.

  SCF Guess: Superposition of Atomic Densities via on-the-fly atomic UHF.

  ==> Iterations <==

                           Total Energy        Delta E     RMS |[F,P]|

   @DF-RHF iter SAD:   -75.47242822675679   -7.54724e+01   0.00000e+00 
   @DF-RHF iter   1:   -75.97019555986031   -4.97767e-01   1.35728e-03 DIIS
   @DF-RHF iter   2:   -76.02251527598027   -5.23197e-02   9.48580e-04 DIIS
   @DF-RHF iter   3:   -76.05586647926926   -3.33512e-02   6.38715e-05 DIIS
   @DF-RHF iter   4:   -76.05626061627798   -3.94137e-04   1.59214e-05 DIIS
   @DF-RHF iter   5:   -76.05628851394891   -2.78977e-05   3.80221e-06 DIIS
   @DF-RHF iter   6:   -76.05629095872870   -2.44478e-06   8.09315e-07 DIIS
   @DF-RHF iter   7:   -76.05629107613703   -1.17408e-07   1.28198e-07 DIIS
   @DF-RHF iter   8:   -76.05629107862922   -2.49219e-09   2.08260e-08 DIIS
   @DF-RHF iter   9:   -76.05629107867601   -4.67963e-11   4.22791e-09 DIIS
  Energy and wave function converged.


  ==> Post-Iterations <==

    Orbital Energies [Eh]
    ---------------------

    Doubly Occupied:                                                      

       1A    -20.573796     2A     -1.353465     3A     -0.690165  
       4A     -0.601520     5A     -0.511983  

    Virtual:                                                              

       6A      0.014957     7A      0.037151     8A      0.041520  
       9A      0.042026    10A      0.060114    11A      0.071865  
      12A      0.085763    13A      0.092053    14A      0.099608  
      15A      0.115832    16A      0.118821    17A      0.123073  
      18A      0.152389    19A      0.155614    20A      0.167730  
      21A      0.180300    22A      0.184192    23A      0.195073  
      24A      0.199811    25A      0.211641    26A      0.215346  
      27A      0.220693    28A      0.227733    29A      0.236949  
      30A      0.241145    31A      0.255577    32A      0.289182  
      33A      0.294157    34A      0.298372    35A      0.315068  
      36A      0.315747    37A      0.326431    38A      0.333462  
      39A      0.334847    40A      0.355306    41A      0.368011  
      42A      0.370469    43A      0.385090    44A      0.390679  
      45A      0.406441    46A      0.410114    47A      0.418424  
      48A      0.420908    49A      0.445683    50A      0.455983  
      51A      0.471220    52A      0.485295    53A      0.493291  
      54A      0.513196    55A      0.513486    56A      0.524118  
      57A      0.534573    58A      0.549506    59A      0.574272  
      60A      0.587570    61A      0.595569    62A      0.604202  
      63A      0.609433    64A      0.642644    65A      0.663467  
      66A      0.682367    67A      0.688714    68A      0.705198  
      69A      0.716994    70A      0.717919    71A      0.745317  
      72A      0.761622    73A      0.763993    74A      0.781761  
      75A      0.792728    76A      0.824018    77A      0.834146  
      78A      0.850155    79A      0.863653    80A      0.868668  
      81A      0.869994    82A      0.893748    83A      0.898004  
      84A      0.922705    85A      0.935606    86A      0.947863  
      87A      0.959970    88A      0.967160    89A      0.972706  
      90A      0.995147    91A      1.011774    92A      1.014487  
      93A      1.024623    94A      1.043967    95A      1.048648  
      96A      1.063335    97A      1.068627    98A      1.079824  
      99A      1.090927   100A      1.095816   101A      1.101405  
     102A      1.118871   103A      1.155794   104A      1.156701  
     105A      1.173600   106A      1.178764   107A      1.202043  
     108A      1.204037   109A      1.215095   110A      1.226966  
     111A      1.230523   112A      1.243211   113A      1.266449  
     114A      1.273060   115A      1.277890   116A      1.300764  
     117A      1.320975   118A      1.328817   119A      1.331842  
     120A      1.348171   121A      1.384092   122A      1.385295  
     123A      1.393270   124A      1.418486   125A      1.429546  
     126A      1.444507   127A      1.488206   128A      1.499032  
     129A      1.558934   130A      1.566131   131A      1.583222  
     132A      1.606611   133A      1.628908   134A      1.633762  
     135A      1.651232   136A      1.667243   137A      1.694055  
     138A      1.721833   139A      1.755486   140A      1.755738  
     141A      1.792428   142A      1.817490   143A      1.831948  
     144A      1.861202   145A      1.875133   146A      1.882968  
     147A      1.930394   148A      1.949222   149A      1.951025  
     150A      1.965934   151A      1.991672   152A      2.055026  
     153A      2.057842   154A      2.067321   155A      2.088157  
     156A      2.096409   157A      2.108177   158A      2.141427  
     159A      2.148620   160A      2.160541   161A      2.200195  
     162A      2.302958   163A      2.320176   164A      2.377575  
     165A      2.383940   166A      2.386743   167A      2.399398  
     168A      2.433333   169A      2.469368   170A      2.509742  
     171A      2.535756   172A      2.546367   173A      2.561753  
     174A      2.562913   175A      2.583732   176A      2.611904  
     177A      2.613201   178A      2.652355   179A      2.660756  
     180A      2.674129   181A      2.689651   182A      2.692852  
     183A      2.696053   184A      2.703006   185A      2.750485  
     186A      2.751964   187A      2.763683   188A      2.774178  
     189A      2.782991   190A      2.849312   191A      2.854229  
     192A      2.854383   193A      2.875514   194A      2.911083  
     195A      2.915261   196A      2.960773   197A      2.966839  
     198A      3.008400   199A      3.050318   200A      3.135692  
     201A      3.191433   202A      3.218606   203A      3.226831  
     204A      3.257442   205A      3.289020   206A      3.326250  
     207A      3.456365   208A      3.497836   209A      3.575140  
     210A      3.617991   211A      3.678728   212A      3.801687  
     213A      3.822908   214A      3.863775   215A      3.923329  
     216A      3.982561   217A      4.010040   218A      4.034414  
     219A      4.052431   220A      4.096996   221A      4.103024  
     222A      4.121244   223A      4.138860   224A      4.159050  
     225A      4.175902   226A      4.219786   227A      4.230661  
     228A      4.263068   229A      4.271682   230A      4.386084  
     231A      4.413717   232A      4.422395   233A      4.423586  
     234A      4.465720   235A      4.485227   236A      4.493354  
     237A      4.518602   238A      4.535819   239A      4.584197  
     240A      4.628229   241A      4.638232   242A      4.675758  
     243A      4.701774   244A      4.776281   245A      4.799330  
     246A      4.859739   247A      4.874444   248A      4.907806  
     249A      4.977583   250A      5.011224   251A      5.024360  
     252A      5.030841   253A      5.045121   254A      5.059039  
     255A      5.115759   256A      5.155097   257A      5.232162  
     258A      5.264786   259A      5.303981   260A      5.332453  
     261A      5.335770   262A      5.381738   263A      5.422886  
     264A      5.428913   265A      5.442766   266A      5.470888  
     267A      5.505824   268A      5.509591   269A      5.532380  
     270A      5.542700   271A      5.632674   272A      5.652914  
     273A      5.665690   274A      5.884237   275A      5.999470  
     276A      6.144516   277A      6.178533   278A      6.204170  
     279A      6.205226   280A      6.388666   281A      6.406429  
     282A      6.533904   283A      6.597504   284A      6.685015  
     285A      6.825209   286A      6.828742   287A      7.081361  
     288A      7.084727   289A      7.105374   290A      7.134513  
     291A      7.267187   292A      7.308284   293A      7.323741  
     294A      7.394985   295A      7.412249   296A      7.454373  
     297A      7.529011   298A      7.619723   299A      7.655127  
     300A      7.707590   301A      7.779329   302A      7.781503  
     303A      7.794639   304A      7.799329   305A      7.853619  
     306A      7.867893   307A      7.878957   308A      7.917221  
     309A      7.937289   310A      8.069191   311A      8.085657  
     312A      8.150256   313A      8.185814   314A      8.188525  
     315A      8.242330   316A      8.326887   317A      8.625175  
     318A      8.837053   319A      8.876808   320A      8.916867  
     321A      9.570502   322A      9.662251   323A      9.871525  
     324A      9.881895   325A      9.921641   326A     10.060953  
     327A     10.067782   328A     10.135631   329A     10.192033  
     330A     10.270589   331A     10.434304   332A     10.494000  
     333A     11.503015   334A     11.805353   335A     11.883312  
     336A     12.121696   337A     12.815520   338A     12.893301  
     339A     13.715594   340A     13.989206   341A     16.432822  
     342A     49.337575   343A     52.725075   344A     63.213736  
     345A     67.239184  

    Final Occupation by Irrep:
              A 
    DOCC [     5 ]

  @DF-RHF Final Energy:   -76.05629107867601

   => Energetics <=

    Nuclear Repulsion Energy =              9.0837199654085516
    One-Electron Energy =                -122.8181621400943015
    Two-Electron Energy =                  37.6781510960097350
    Total Energy =                        -76.0562910786760256

Computation Completed


Properties will be evaluated at   0.000000,   0.000000,   0.000000 [a0]

Properties computed using the SCF density matrix

  Nuclear Dipole Moment: [e a0]
     X:   -37.8059      Y:   -23.5788      Z:     9.7032

  Electronic Dipole Moment: [e a0]
     X:    38.5153      Y:    24.0008      Z:    -9.8885

  Dipole Moment: [e a0]
     X:     0.7095      Y:     0.4220      Z:    -0.1853     Total:     0.8460

  Dipole Moment: [D]
     X:     1.8033      Y:     1.0726      Z:    -0.4709     Total:     2.1503


*** tstop() called on node70.bme.utexas.edu at Sat Apr 11 16:22:20 2020
Module time:
	user time   =      20.38 seconds =       0.34 minutes
	system time =       0.65 seconds =       0.01 minutes
	total time  =          5 seconds =       0.08 minutes
Total time:
	user time   =      40.78 seconds =       0.68 minutes
	system time =       1.79 seconds =       0.03 minutes
	total time  =          9 seconds =       0.15 minutes

*** tstart() called on node70.bme.utexas.edu
*** at Sat Apr 11 16:22:20 2020


  //>>>>>>>>>>>>>>>>>>>>>>>>>>>>>>>>>>>//
  //               DFMP2               //
  //<<<<<<<<<<<<<<<<<<<<<<<<<<<<<<<<<<<//

   => Loading Basis Set <=

    Name: (AUG-CC-PVTZ AUX)
    Role: RIFIT
    Keyword: DF_BASIS_MP2
    atoms 1-2       entry C          line   148 file /home/liuchw/anaconda3/envs/psi4env/share/psi4/basis/aug-cc-pvtz-ri.gbs 
    atoms 3-4, 8    entry O          line   264 file /home/liuchw/anaconda3/envs/psi4env/share/psi4/basis/aug-cc-pvtz-ri.gbs 
    atoms 5-7, 9-10 entry H          line    30 file /home/liuchw/anaconda3/envs/psi4env/share/psi4/basis/aug-cc-pvtz-ri.gbs 

	 --------------------------------------------------------
	                          DF-MP2                         
	      2nd-Order Density-Fitted Moller-Plesset Theory     
	              RMP2 Wavefunction,   6 Threads             
	                                                         
	        Rob Parrish, Justin Turney, Andy Simmonett,      
	           Ed Hohenstein, and C. David Sherrill          
	 --------------------------------------------------------

   => Auxiliary Basis Set <=

  Basis Set: (AUG-CC-PVTZ AUX)
    Blend: AUG-CC-PVTZ-RI
    Number of shells: 210
    Number of basis function: 760
    Number of Cartesian functions: 955
    Spherical Harmonics?: true
    Max angular momentum: 4

	 --------------------------------------------------------
	                 NBF =   345, NAUX =   760
	 --------------------------------------------------------
	   CLASS    FOCC     OCC    AOCC    AVIR     VIR    FVIR
	   PAIRS       0       5       5     340     340       0
	 --------------------------------------------------------

	-----------------------------------------------------------
	 ==================> DF-MP2 Energies <==================== 
	-----------------------------------------------------------
	 Reference Energy          =     -76.0562910786760114 [Eh]
	 Singles Energy            =      -0.0000000000000000 [Eh]
	 Same-Spin Energy          =      -0.0689592741260735 [Eh]
	 Opposite-Spin Energy      =      -0.2174204447242096 [Eh]
	 Correlation Energy        =      -0.2863797188502831 [Eh]
	 Total Energy              =     -76.3426707975262957 [Eh]
	-----------------------------------------------------------
	 ================> DF-SCS-MP2 Energies <================== 
	-----------------------------------------------------------
	 SCS Same-Spin Scale       =       0.3333333333333333 [-]
	 SCS Opposite-Spin Scale   =       1.2000000000000000 [-]
	 SCS Same-Spin Energy      =      -0.0229864247086912 [Eh]
	 SCS Opposite-Spin Energy  =      -0.2609045336690515 [Eh]
	 SCS Correlation Energy    =      -0.2838909583777427 [Eh]
	 SCS Total Energy          =     -76.3401820370537507 [Eh]
	-----------------------------------------------------------


*** tstop() called on node70.bme.utexas.edu at Sat Apr 11 16:22:22 2020
Module time:
	user time   =       9.64 seconds =       0.16 minutes
	system time =       0.40 seconds =       0.01 minutes
	total time  =          2 seconds =       0.03 minutes
Total time:
	user time   =      50.43 seconds =       0.84 minutes
	system time =       2.19 seconds =       0.04 minutes
	total time  =         11 seconds =       0.18 minutes

  //>>>>>>>>>>>>>>>>>>>>>>>>>>>>>>>>>>>>//
  // CBS Computation: MP2 / AUG-CC-PVQZ //
  //<<<<<<<<<<<<<<<<<<<<<<<<<<<<<<<<<<<<//


Scratch directory: /scratch//

*** tstart() called on node70.bme.utexas.edu
*** at Sat Apr 11 16:22:22 2020

   => Loading Basis Set <=

    Name: AUG-CC-PVQZ
    Role: ORBITAL
    Keyword: BASIS
    atoms 1-2       entry C          line   303 file /home/liuchw/anaconda3/envs/psi4env/share/psi4/basis/aug-cc-pvqz.gbs 
    atoms 3-4, 8    entry O          line   423 file /home/liuchw/anaconda3/envs/psi4env/share/psi4/basis/aug-cc-pvqz.gbs 
    atoms 5-7, 9-10 entry H          line    40 file /home/liuchw/anaconda3/envs/psi4env/share/psi4/basis/aug-cc-pvqz.gbs 


         ---------------------------------------------------------
                                   SCF
               by Justin Turney, Rob Parrish, Andy Simmonett
                          and Daniel G. A. Smith
                              RHF Reference
                        6 Threads,  38146 MiB Core
         ---------------------------------------------------------

  ==> Geometry <==

    Molecular point group: c1
    Full point group: C1

    Geometry (in Angstrom), charge = 0, multiplicity = 1:

       Center              X                  Y                   Z               Mass       
    ------------   -----------------  -----------------  -----------------  -----------------
      Gh(C)           1.800343036136     1.146146434251    -0.458464678445    12.000000000000
      Gh(C)           0.533000036136     0.323437434251    -0.138191678445    12.000000000000
      Gh(O)           0.597416036136    -0.914610565749    -0.352997678445    15.994914619570
      Gh(O)          -0.436893963864     0.991965434251     0.308272321555    15.994914619570
      Gh(H)           2.134238036136     1.660554434251     0.443057321555     1.007825032230
      Gh(H)           2.600474036136     0.514744434251    -0.839144678445     1.007825032230
      Gh(H)           1.556148036136     1.914248434251    -1.192787678445     1.007825032230
         O           -2.111008963864    -1.313467565749     0.542295321555    15.994914619570
         H           -1.868004963864    -0.373638565749     0.602201321555     1.007825032230
         H           -1.249928963864    -1.595986565749     0.194162321555     1.007825032230

  Running in c1 symmetry.

  Rotational constants: A =      0.37189  B =      0.08672  C =      0.07124 [cm^-1]
  Rotational constants: A =  11149.08245  B =   2599.75065  C =   2135.77314 [MHz]
  Nuclear repulsion =    9.083719965408552

  Charge       = 0
  Multiplicity = 1
  Electrons    = 10
  Nalpha       = 5
  Nbeta        = 5

  ==> Algorithm <==

  SCF Algorithm Type is DF.
  DIIS enabled.
  MOM disabled.
  Fractional occupation disabled.
  Guess Type is SAD.
  Energy threshold   = 1.00e-07
  Density threshold  = 1.00e-08
  Integral threshold = 0.00e+00

  ==> Primary Basis <==

  Basis Set: AUG-CC-PVQZ
    Blend: AUG-CC-PVQZ
    Number of shells: 170
    Number of basis function: 630
    Number of Cartesian functions: 800
    Spherical Harmonics?: true
    Max angular momentum: 4

   => Loading Basis Set <=

    Name: (AUG-CC-PVQZ AUX)
    Role: JKFIT
    Keyword: DF_BASIS_SCF
    atoms 1-2       entry C          line   178 file /home/liuchw/anaconda3/envs/psi4env/share/psi4/basis/aug-cc-pvqz-jkfit.gbs 
    atoms 3-4, 8    entry O          line   318 file /home/liuchw/anaconda3/envs/psi4env/share/psi4/basis/aug-cc-pvqz-jkfit.gbs 
    atoms 5-7, 9-10 entry H          line    70 file /home/liuchw/anaconda3/envs/psi4env/share/psi4/basis/aug-cc-pvqz-jkfit.gbs 

  ==> Pre-Iterations <==

   -------------------------------------------------------
    Irrep   Nso     Nmo     Nalpha   Nbeta   Ndocc  Nsocc
   -------------------------------------------------------
     A        630     630       0       0       0       0
   -------------------------------------------------------
    Total     630     630       5       5       5       0
   -------------------------------------------------------

  ==> Integral Setup <==

  DFHelper Memory: AOs need 3.143 GiB; user supplied 27.940 GiB. Using in-core AOs.

  ==> MemDFJK: Density-Fitted J/K Matrices <==

    J tasked:                   Yes
    K tasked:                   Yes
    wK tasked:                   No
    OpenMP threads:               6
    Memory [MiB]:             28610
    Algorithm:                 Core
    Schwarz Cutoff:           1E-12
    Mask sparsity (%):       6.3573
    Fitting Condition:        1E-10

   => Auxiliary Basis Set <=

  Basis Set: (AUG-CC-PVQZ AUX)
    Blend: AUG-CC-PVQZ-JKFIT
    Number of shells: 260
    Number of basis function: 1090
    Number of Cartesian functions: 1495
    Spherical Harmonics?: true
    Max angular momentum: 5

  Minimum eigenvalue in the overlap matrix is 4.6443012849E-06.
  Using Symmetric Orthogonalization.

  SCF Guess: Superposition of Atomic Densities via on-the-fly atomic UHF.

  ==> Iterations <==

                           Total Energy        Delta E     RMS |[F,P]|

   @DF-RHF iter SAD:   -75.47752001395401   -7.54775e+01   0.00000e+00 
   @DF-RHF iter   1:   -75.97521481752605   -4.97695e-01   7.44863e-04 DIIS
   @DF-RHF iter   2:   -76.02761249136518   -5.23977e-02   5.21571e-04 DIIS
   @DF-RHF iter   3:   -76.06115793263359   -3.35454e-02   3.52651e-05 DIIS
   @DF-RHF iter   4:   -76.06155417225095   -3.96240e-04   8.96047e-06 DIIS
   @DF-RHF iter   5:   -76.06158297271237   -2.88005e-05   2.13353e-06 DIIS
   @DF-RHF iter   6:   -76.06158550623306   -2.53352e-06   4.68066e-07 DIIS
   @DF-RHF iter   7:   -76.06158563733979   -1.31107e-07   7.68328e-08 DIIS
   @DF-RHF iter   8:   -76.06158564032241   -2.98262e-09   1.18765e-08 DIIS
   @DF-RHF iter   9:   -76.06158564037439   -5.19833e-11   2.39262e-09 DIIS
  Energy and wave function converged.


  ==> Post-Iterations <==

    Orbital Energies [Eh]
    ---------------------

    Doubly Occupied:                                                      

       1A    -20.571334     2A     -1.352748     3A     -0.690157  
       4A     -0.601570     5A     -0.512142  

    Virtual:                                                              

       6A      0.013391     7A      0.033598     8A      0.037727  
       9A      0.037893    10A      0.054671    11A      0.064248  
      12A      0.075266    13A      0.080315    14A      0.088997  
      15A      0.098786    16A      0.103954    17A      0.104180  
      18A      0.130387    19A      0.132222    20A      0.145559  
      21A      0.154715    22A      0.156157    23A      0.170910  
      24A      0.174703    25A      0.180841    26A      0.184213  
      27A      0.187817    28A      0.198667    29A      0.201569  
      30A      0.204598    31A      0.220574    32A      0.243591  
      33A      0.248256    34A      0.252741    35A      0.257368  
      36A      0.265928    37A      0.268071    38A      0.278459  
      39A      0.285558    40A      0.299381    41A      0.306273  
      42A      0.307568    43A      0.313297    44A      0.322619  
      45A      0.336304    46A      0.345735    47A      0.346470  
      48A      0.350369    49A      0.373208    50A      0.376576  
      51A      0.377147    52A      0.385089    53A      0.396513  
      54A      0.401234    55A      0.417076    56A      0.427924  
      57A      0.440937    58A      0.444926    59A      0.457195  
      60A      0.470234    61A      0.480042    62A      0.480653  
      63A      0.500146    64A      0.507921    65A      0.531361  
      66A      0.537950    67A      0.561663    68A      0.563462  
      69A      0.567645    70A      0.579075    71A      0.580451  
      72A      0.596796    73A      0.599105    74A      0.605922  
      75A      0.617846    76A      0.618510    77A      0.633714  
      78A      0.640206    79A      0.644308    80A      0.647308  
      81A      0.657464    82A      0.683259    83A      0.684663  
      84A      0.703754    85A      0.710694    86A      0.719914  
      87A      0.721415    88A      0.731545    89A      0.739824  
      90A      0.752816    91A      0.763637    92A      0.772686  
      93A      0.788668    94A      0.790877    95A      0.801795  
      96A      0.818102    97A      0.819408    98A      0.824824  
      99A      0.833179   100A      0.838593   101A      0.843194  
     102A      0.848146   103A      0.851842   104A      0.889175  
     105A      0.889554   106A      0.901157   107A      0.916439  
     108A      0.920576   109A      0.931061   110A      0.932463  
     111A      0.946406   112A      0.952905   113A      0.955568  
     114A      0.976166   115A      0.979727   116A      0.995988  
     117A      1.007540   118A      1.012503   119A      1.030279  
     120A      1.036476   121A      1.044831   122A      1.060908  
     123A      1.074227   124A      1.077119   125A      1.093586  
     126A      1.095954   127A      1.100394   128A      1.103483  
     129A      1.140811   130A      1.190556   131A      1.197569  
     132A      1.198161   133A      1.207059   134A      1.229528  
     135A      1.235309   136A      1.240669   137A      1.243457  
     138A      1.268170   139A      1.275795   140A      1.305078  
     141A      1.316592   142A      1.328575   143A      1.343115  
     144A      1.349825   145A      1.356201   146A      1.374061  
     147A      1.387974   148A      1.415905   149A      1.445055  
     150A      1.450875   151A      1.486719   152A      1.496529  
     153A      1.509494   154A      1.526474   155A      1.547307  
     156A      1.547964   157A      1.559784   158A      1.577764  
     159A      1.587166   160A      1.592373   161A      1.603360  
     162A      1.621762   163A      1.626838   164A      1.648983  
     165A      1.652245   166A      1.664825   167A      1.668869  
     168A      1.676789   169A      1.683447   170A      1.690602  
     171A      1.695772   172A      1.703166   173A      1.720271  
     174A      1.732913   175A      1.739121   176A      1.746400  
     177A      1.765962   178A      1.783113   179A      1.785453  
     180A      1.800798   181A      1.820959   182A      1.831145  
     183A      1.831246   184A      1.846459   185A      1.850579  
     186A      1.869543   187A      1.878234   188A      1.888201  
     189A      1.912651   190A      1.913297   191A      1.925812  
     192A      1.930271   193A      1.941832   194A      1.970417  
     195A      1.971481   196A      1.980305   197A      1.981487  
     198A      2.005054   199A      2.019088   200A      2.019245  
     201A      2.034499   202A      2.046241   203A      2.056238  
     204A      2.068450   205A      2.086502   206A      2.087635  
     207A      2.092417   208A      2.101005   209A      2.111050  
     210A      2.113884   211A      2.135348   212A      2.147582  
     213A      2.168231   214A      2.186411   215A      2.197726  
     216A      2.204669   217A      2.215943   218A      2.225210  
     219A      2.240808   220A      2.255166   221A      2.271099  
     222A      2.292356   223A      2.300598   224A      2.305652  
     225A      2.313022   226A      2.316115   227A      2.324988  
     228A      2.331076   229A      2.365681   230A      2.381920  
     231A      2.401637   232A      2.420032   233A      2.440144  
     234A      2.453033   235A      2.470822   236A      2.491253  
     237A      2.523478   238A      2.535353   239A      2.539156  
     240A      2.545948   241A      2.569383   242A      2.610968  
     243A      2.625661   244A      2.631809   245A      2.657359  
     246A      2.678690   247A      2.679495   248A      2.710558  
     249A      2.717733   250A      2.734440   251A      2.757429  
     252A      2.781118   253A      2.785230   254A      2.788203  
     255A      2.792843   256A      2.832272   257A      2.852701  
     258A      2.892013   259A      2.936431   260A      2.947891  
     261A      2.949362   262A      2.997130   263A      3.025819  
     264A      3.028995   265A      3.040904   266A      3.041790  
     267A      3.045413   268A      3.068063   269A      3.090442  
     270A      3.108934   271A      3.140371   272A      3.149596  
     273A      3.157053   274A      3.185777   275A      3.188100  
     276A      3.190245   277A      3.225994   278A      3.242990  
     279A      3.251642   280A      3.256606   281A      3.303308  
     282A      3.319966   283A      3.357281   284A      3.376600  
     285A      3.388018   286A      3.398778   287A      3.411174  
     288A      3.443884   289A      3.455399   290A      3.469564  
     291A      3.485745   292A      3.507640   293A      3.517962  
     294A      3.524988   295A      3.525709   296A      3.567068  
     297A      3.585415   298A      3.613526   299A      3.657652  
     300A      3.679798   301A      3.695182   302A      3.709054  
     303A      3.755181   304A      3.792794   305A      3.803607  
     306A      3.829127   307A      3.855113   308A      3.858916  
     309A      3.893126   310A      3.926586   311A      3.939005  
     312A      3.948570   313A      3.961212   314A      4.018166  
     315A      4.025086   316A      4.035571   317A      4.073331  
     318A      4.077452   319A      4.149086   320A      4.154347  
     321A      4.204782   322A      4.230767   323A      4.243436  
     324A      4.246965   325A      4.283804   326A      4.289579  
     327A      4.291907   328A      4.295718   329A      4.298479  
     330A      4.339178   331A      4.351320   332A      4.352137  
     333A      4.381861   334A      4.386610   335A      4.402513  
     336A      4.413316   337A      4.465591   338A      4.467693  
     339A      4.474737   340A      4.506664   341A      4.535382  
     342A      4.569831   343A      4.573230   344A      4.600247  
     345A      4.607708   346A      4.624297   347A      4.638455  
     348A      4.651414   349A      4.659120   350A      4.678128  
     351A      4.682564   352A      4.729841   353A      4.751016  
     354A      4.760774   355A      4.793675   356A      4.826590  
     357A      4.840451   358A      4.870865   359A      4.872121  
     360A      4.893600   361A      4.907872   362A      4.928108  
     363A      4.981967   364A      4.983584   365A      5.014795  
     366A      5.023354   367A      5.064972   368A      5.102373  
     369A      5.136882   370A      5.142105   371A      5.146311  
     372A      5.165966   373A      5.172058   374A      5.236979  
     375A      5.241428   376A      5.282776   377A      5.300571  
     378A      5.313533   379A      5.370838   380A      5.375957  
     381A      5.392647   382A      5.444835   383A      5.479773  
     384A      5.498948   385A      5.507697   386A      5.567606  
     387A      5.583218   388A      5.598867   389A      5.604847  
     390A      5.654141   391A      5.657548   392A      5.674454  
     393A      5.780205   394A      5.808225   395A      5.855452  
     396A      5.917573   397A      5.963263   398A      5.970241  
     399A      6.003473   400A      6.083479   401A      6.110027  
     402A      6.175806   403A      6.238160   404A      6.305671  
     405A      6.321744   406A      6.363133   407A      6.434846  
     408A      6.436371   409A      6.456877   410A      6.624793  
     411A      6.627281   412A      6.647195   413A      6.725776  
     414A      6.755765   415A      6.795713   416A      6.853922  
     417A      6.872173   418A      6.877337   419A      6.915903  
     420A      6.952244   421A      6.953800   422A      6.966720  
     423A      7.009468   424A      7.018105   425A      7.038435  
     426A      7.046370   427A      7.085486   428A      7.088074  
     429A      7.167963   430A      7.197295   431A      7.200769  
     432A      7.266989   433A      7.272376   434A      7.342567  
     435A      7.367150   436A      7.402596   437A      7.448147  
     438A      7.499936   439A      7.506169   440A      7.579809  
     441A      7.628556   442A      7.653234   443A      7.694443  
     444A      7.718123   445A      7.729640   446A      7.791229  
     447A      7.815060   448A      7.823894   449A      7.850842  
     450A      7.865317   451A      7.874144   452A      7.874379  
     453A      7.905257   454A      7.926999   455A      7.944520  
     456A      8.002515   457A      8.018465   458A      8.048022  
     459A      8.071007   460A      8.084297   461A      8.107480  
     462A      8.115397   463A      8.165279   464A      8.204429  
     465A      8.221996   466A      8.259160   467A      8.316928  
     468A      8.353741   469A      8.362385   470A      8.428889  
     471A      8.543803   472A      8.595920   473A      8.599708  
     474A      8.709391   475A      8.731861   476A      8.815047  
     477A      8.841555   478A      8.844911   479A      8.869246  
     480A      8.885413   481A      8.894038   482A      8.902492  
     483A      8.915020   484A      8.962592   485A      9.003135  
     486A      9.093865   487A      9.121608   488A      9.209218  
     489A      9.247980   490A      9.273844   491A      9.359339  
     492A      9.381266   493A      9.387635   494A      9.441003  
     495A      9.499780   496A      9.541513   497A      9.671388  
     498A      9.694538   499A      9.730338   500A      9.780765  
     501A      9.803364   502A      9.816488   503A      9.831135  
     504A      9.885235   505A      9.901720   506A      9.946274  
     507A      9.966857   508A      9.977262   509A      9.980778  
     510A     10.092894   511A     10.121051   512A     10.144367  
     513A     10.190635   514A     10.302907   515A     10.321115  
     516A     10.352389   517A     10.427804   518A     10.431641  
     519A     10.474778   520A     10.491132   521A     10.594525  
     522A     10.681082   523A     10.735679   524A     10.770321  
     525A     10.812612   526A     10.865171   527A     10.866154  
     528A     10.880640   529A     11.020113   530A     11.050142  
     531A     11.149555   532A     11.212345   533A     11.260143  
     534A     11.313028   535A     11.341130   536A     11.356898  
     537A     11.366062   538A     11.372903   539A     11.454788  
     540A     11.484701   541A     11.648185   542A     11.799338  
     543A     11.818730   544A     11.844892   545A     11.851565  
     546A     11.870832   547A     11.913654   548A     11.929423  
     549A     11.989276   550A     11.999080   551A     12.030217  
     552A     12.051685   553A     12.080015   554A     12.133075  
     555A     12.140259   556A     12.146277   557A     12.217586  
     558A     12.301285   559A     12.314118   560A     12.327783  
     561A     12.351224   562A     12.363000   563A     12.404705  
     564A     12.430049   565A     12.487783   566A     12.567272  
     567A     12.779382   568A     12.828804   569A     12.844114  
     570A     12.922675   571A     12.957902   572A     12.976252  
     573A     13.153119   574A     13.172460   575A     13.191212  
     576A     13.402041   577A     13.527115   578A     13.611443  
     579A     13.828154   580A     14.125190   581A     14.210774  
     582A     14.233517   583A     14.264598   584A     14.295878  
     585A     14.369533   586A     14.521430   587A     14.595326  
     588A     14.675691   589A     14.692464   590A     14.713293  
     591A     14.755524   592A     14.873255   593A     14.957071  
     594A     15.021453   595A     15.078149   596A     15.183567  
     597A     15.194664   598A     15.268089   599A     15.290588  
     600A     15.461246   601A     15.573431   602A     15.863979  
     603A     16.715607   604A     16.844524   605A     17.365486  
     606A     17.372493   607A     17.520111   608A     17.531689  
     609A     17.544234   610A     17.702440   611A     17.752637  
     612A     18.070385   613A     18.089048   614A     18.330252  
     615A     18.648466   616A     18.868966   617A     18.967500  
     618A     21.149096   619A     21.420355   620A     22.648000  
     621A     22.985220   622A     23.333157   623A     23.440729  
     624A     24.093297   625A     24.585474   626A     45.746885  
     627A     68.791899   628A     72.139377   629A    122.723217  
     630A    122.984085  

    Final Occupation by Irrep:
              A 
    DOCC [     5 ]

  @DF-RHF Final Energy:   -76.06158564037439

   => Energetics <=

    Nuclear Repulsion Energy =              9.0837199654085516
    One-Electron Energy =                -122.8347071950644818
    Two-Electron Energy =                  37.6894015892815446
    Total Energy =                        -76.0615856403743891

Computation Completed


Properties will be evaluated at   0.000000,   0.000000,   0.000000 [a0]

Properties computed using the SCF density matrix

  Nuclear Dipole Moment: [e a0]
     X:   -37.8059      Y:   -23.5788      Z:     9.7032

  Electronic Dipole Moment: [e a0]
     X:    38.5146      Y:    24.0003      Z:    -9.8883

  Dipole Moment: [e a0]
     X:     0.7087      Y:     0.4215      Z:    -0.1851     Total:     0.8451

  Dipole Moment: [D]
     X:     1.8014      Y:     1.0714      Z:    -0.4704     Total:     2.1481


*** tstop() called on node70.bme.utexas.edu at Sat Apr 11 16:22:37 2020
Module time:
	user time   =      74.53 seconds =       1.24 minutes
	system time =       2.08 seconds =       0.03 minutes
	total time  =         15 seconds =       0.25 minutes
Total time:
	user time   =     125.00 seconds =       2.08 minutes
	system time =       4.27 seconds =       0.07 minutes
	total time  =         26 seconds =       0.43 minutes

*** tstart() called on node70.bme.utexas.edu
*** at Sat Apr 11 16:22:37 2020


  //>>>>>>>>>>>>>>>>>>>>>>>>>>>>>>>>>>>//
  //               DFMP2               //
  //<<<<<<<<<<<<<<<<<<<<<<<<<<<<<<<<<<<//

   => Loading Basis Set <=

    Name: (AUG-CC-PVQZ AUX)
    Role: RIFIT
    Keyword: DF_BASIS_MP2
    atoms 1-2       entry C          line   184 file /home/liuchw/anaconda3/envs/psi4env/share/psi4/basis/aug-cc-pvqz-ri.gbs 
    atoms 3-4, 8    entry O          line   332 file /home/liuchw/anaconda3/envs/psi4env/share/psi4/basis/aug-cc-pvqz-ri.gbs 
    atoms 5-7, 9-10 entry H          line    30 file /home/liuchw/anaconda3/envs/psi4env/share/psi4/basis/aug-cc-pvqz-ri.gbs 

	 --------------------------------------------------------
	                          DF-MP2                         
	      2nd-Order Density-Fitted Moller-Plesset Theory     
	              RMP2 Wavefunction,   6 Threads             
	                                                         
	        Rob Parrish, Justin Turney, Andy Simmonett,      
	           Ed Hohenstein, and C. David Sherrill          
	 --------------------------------------------------------

   => Auxiliary Basis Set <=

  Basis Set: (AUG-CC-PVQZ AUX)
    Blend: AUG-CC-PVQZ-RI
    Number of shells: 280
    Number of basis function: 1240
    Number of Cartesian functions: 1710
    Spherical Harmonics?: true
    Max angular momentum: 5

	 --------------------------------------------------------
	                 NBF =   630, NAUX =  1240
	 --------------------------------------------------------
	   CLASS    FOCC     OCC    AOCC    AVIR     VIR    FVIR
	   PAIRS       0       5       5     625     625       0
	 --------------------------------------------------------

	-----------------------------------------------------------
	 ==================> DF-MP2 Energies <==================== 
	-----------------------------------------------------------
	 Reference Energy          =     -76.0615856403743891 [Eh]
	 Singles Energy            =      -0.0000000000000000 [Eh]
	 Same-Spin Energy          =      -0.0732249644297341 [Eh]
	 Opposite-Spin Energy      =      -0.2457718902784902 [Eh]
	 Correlation Energy        =      -0.3189968547082243 [Eh]
	 Total Energy              =     -76.3805824950826064 [Eh]
	-----------------------------------------------------------
	 ================> DF-SCS-MP2 Energies <================== 
	-----------------------------------------------------------
	 SCS Same-Spin Scale       =       0.3333333333333333 [-]
	 SCS Opposite-Spin Scale   =       1.2000000000000000 [-]
	 SCS Same-Spin Energy      =      -0.0244083214765780 [Eh]
	 SCS Opposite-Spin Energy  =      -0.2949262683341883 [Eh]
	 SCS Correlation Energy    =      -0.3193345898107663 [Eh]
	 SCS Total Energy          =     -76.3809202301851542 [Eh]
	-----------------------------------------------------------


*** tstop() called on node70.bme.utexas.edu at Sat Apr 11 16:22:45 2020
Module time:
	user time   =      37.23 seconds =       0.62 minutes
	system time =       1.11 seconds =       0.02 minutes
	total time  =          8 seconds =       0.13 minutes
Total time:
	user time   =     162.23 seconds =       2.70 minutes
	system time =       5.38 seconds =       0.09 minutes
	total time  =         34 seconds =       0.57 minutes

  //>>>>>>>>>>>>>>>>>>>>>>>>>>>>>>>>>>>//
  //  CBS Results: mp2/aug-cc-pv[tq]z  //
  //<<<<<<<<<<<<<<<<<<<<<<<<<<<<<<<<<<<//


   ==> HF <==

   HI-zeta (4) Energy:               -76.061585640374


   ==> Helgaker 2-point correlated extrapolation for method: MP2 <==

   LO-zeta (3) Energy:               -76.342670797526
   HI-zeta (4) Energy:               -76.380582495083
   Alpha (exponent) Value:             3.000000000000
   Extrapolated Energy:              -76.408247787894

   @Extrapolated MP2/(T,Q):          -76.408247787894



   ==> Helgaker 2-point correlated extrapolation for method: HF <==

   LO-zeta (3) Energy:               -76.056291078676
   HI-zeta (4) Energy:               -76.061585640374
   Alpha (exponent) Value:             3.000000000000
   Extrapolated Energy:              -76.065449239452

   @Extrapolated HF/(T,Q):           -76.065449239452


   ==> Components <==

  ---------------------------------------------------------------------------------------------------------
                          Method / Basis                      Rqd      Energy [Eh]   Variable
  ---------------------------------------------------------------------------------------------------------
                              hf / aug-cc-pvtz                  *     -76.05629108   HF TOTAL ENERGY
                             mp2 / aug-cc-pvtz                  *     -76.34267080   MP2 TOTAL ENERGY
                              hf / aug-cc-pvqz                  *     -76.06158564   HF TOTAL ENERGY
                             mp2 / aug-cc-pvqz                  *     -76.38058250   MP2 TOTAL ENERGY
  ---------------------------------------------------------------------------------------------------------

   ==> Stages <==

  ---------------------------------------------------------------------------------------------------------
      Stage               Method / Basis                       Wt      Energy [Eh]   Scheme
  ---------------------------------------------------------------------------------------------------------
        scf                   hf / aug-cc-pvqz                  1     -76.06158564   xtpl_highest_1
       corl                  mp2 / aug-cc-pv[tq]z               1     -76.40824779   corl_xtpl_helgaker_2
       corl                   hf / aug-cc-pv[tq]z              -1     -76.06544924   corl_xtpl_helgaker_2
  ---------------------------------------------------------------------------------------------------------

   ==> CBS <==

[...]
     160A      1.500260   161A      1.504122   162A      1.524282  
     163A      1.533782   164A      1.577797   165A      1.578500  
     166A      1.593043   167A      1.616166   168A      1.637003  
     169A      1.660382   170A      1.667648   171A      1.674814  
     172A      1.691942   173A      1.715933   174A      1.719897  
     175A      1.752809   176A      1.778138   177A      1.784701  
     178A      1.798592   179A      1.802026   180A      1.810875  
     181A      1.824287   182A      1.837990   183A      1.846409  
     184A      1.853696   185A      1.868835   186A      1.880505  
     187A      1.886684   188A      1.892571   189A      1.895162  
     190A      1.903159   191A      1.908221   192A      1.910715  
     193A      1.937679   194A      1.948433   195A      1.977431  
     196A      2.000698   197A      2.008369   198A      2.013816  
     199A      2.023854   200A      2.033822   201A      2.039569  
     202A      2.061664   203A      2.089160   204A      2.091720  
     205A      2.101778   206A      2.102514   207A      2.110477  
     208A      2.111644   209A      2.127938   210A      2.135772  
     211A      2.138340   212A      2.158570   213A      2.167617  
     214A      2.179749   215A      2.180503   216A      2.193899  
     217A      2.203464   218A      2.209680   219A      2.217440  
     220A      2.225654   221A      2.230706   222A      2.235185  
     223A      2.251950   224A      2.267157   225A      2.274624  
     226A      2.291537   227A      2.309019   228A      2.327487  
     229A      2.332615   230A      2.345571   231A      2.351385  
     232A      2.359439   233A      2.367626   234A      2.380912  
     235A      2.399207   236A      2.404185   237A      2.408367  
     238A      2.413325   239A      2.416172   240A      2.436186  
     241A      2.459971   242A      2.461765   243A      2.467306  
     244A      2.475497   245A      2.499510   246A      2.519759  
     247A      2.538824   248A      2.553469   249A      2.559990  
     250A      2.573215   251A      2.583664   252A      2.622358  
     253A      2.634297   254A      2.639804   255A      2.701803  
     256A      2.718855   257A      2.721984   258A      2.722328  
     259A      2.746490   260A      2.768382   261A      2.792321  
     262A      2.812430   263A      2.828041   264A      2.835230  
     265A      2.865600   266A      2.871239   267A      2.892713  
     268A      2.919900   269A      2.930638   270A      2.943506  
     271A      2.967612   272A      2.968805   273A      2.995510  
     274A      3.005912   275A      3.046512   276A      3.066974  
     277A      3.073271   278A      3.093754   279A      3.107239  
     280A      3.109130   281A      3.151443   282A      3.161227  
     283A      3.169077   284A      3.180263   285A      3.190545  
     286A      3.228798   287A      3.229328   288A      3.243186  
     289A      3.271760   290A      3.281509   291A      3.290652  
     292A      3.301052   293A      3.317157   294A      3.343238  
     295A      3.359618   296A      3.386691   297A      3.399530  
     298A      3.431373   299A      3.436791   300A      3.476628  
     301A      3.489130   302A      3.511513   303A      3.531810  
     304A      3.553061   305A      3.557538   306A      3.615031  
     307A      3.616154   308A      3.662044   309A      3.680491  
     310A      3.755149   311A      3.774538   312A      3.802355  
     313A      3.832612   314A      3.848241   315A      3.858903  
     316A      3.888815   317A      3.905770   318A      3.918858  
     319A      3.950732   320A      3.961240   321A      3.975227  
     322A      4.012544   323A      4.052311   324A      4.055184  
     325A      4.088325   326A      4.104705   327A      4.148226  
     328A      4.159595   329A      4.176656   330A      4.197689  
     331A      4.203495   332A      4.210572   333A      4.241339  
     334A      4.249414   335A      4.249675   336A      4.273705  
     337A      4.314795   338A      4.346486   339A      4.369197  
     340A      4.372291   341A      4.376689   342A      4.397663  
     343A      4.402298   344A      4.443911   345A      4.452626  
     346A      4.455928   347A      4.462189   348A      4.479094  
     349A      4.492333   350A      4.493758   351A      4.504678  
     352A      4.517476   353A      4.546664   354A      4.561351  
     355A      4.566310   356A      4.572700   357A      4.585219  
     358A      4.599194   359A      4.636229   360A      4.652680  
     361A      4.688405   362A      4.701186   363A      4.711003  
     364A      4.728123   365A      4.739845   366A      4.745408  
     367A      4.794971   368A      4.797663   369A      4.835651  
     370A      4.850232   371A      4.862420   372A      4.898290  
     373A      4.899291   374A      4.908010   375A      4.935361  
     376A      4.954820   377A      4.955142   378A      4.968431  
     379A      5.008014   380A      5.009706   381A      5.066148  
     382A      5.075980   383A      5.104223   384A      5.112964  
     385A      5.166884   386A      5.195642   387A      5.198561  
     388A      5.216582   389A      5.217980   390A      5.258019  
     391A      5.270483   392A      5.273670   393A      5.309971  
     394A      5.348462   395A      5.391547   396A      5.427625  
     397A      5.428926   398A      5.471502   399A      5.494171  
     400A      5.548538   401A      5.554417   402A      5.567648  
     403A      5.661439   404A      5.708944   405A      5.784980  
     406A      5.787058   407A      5.802226   408A      5.835748  
     409A      5.858979   410A      5.864398   411A      5.904159  
     412A      5.928452   413A      5.973327   414A      6.000429  
     415A      6.091832   416A      6.165525   417A      6.169887  
     418A      6.187924   419A      6.257948   420A      6.280205  
     421A      6.313229   422A      6.382860   423A      6.404882  
     424A      6.474771   425A      6.517768   426A      6.542051  
     427A      6.565778   428A      6.585189   429A      6.623619  
     430A      6.681729   431A      6.708741   432A      6.727285  
     433A      6.786290   434A      6.864816   435A      6.885291  
     436A      6.918164   437A      6.922240   438A      6.961686  
     439A      6.974375   440A      6.999091   441A      7.020196  
     442A      7.021906   443A      7.071920   444A      7.072503  
     445A      7.105933   446A      7.151952   447A      7.166669  
     448A      7.202924   449A      7.244512   450A      7.253710  
     451A      7.263556   452A      7.277216   453A      7.298388  
     454A      7.303275   455A      7.338559   456A      7.377948  
     457A      7.393040   458A      7.461045   459A      7.487049  
     460A      7.514288   461A      7.523966   462A      7.544144  
     463A      7.576401   464A      7.752431   465A      7.769347  
     466A      7.838945   467A      7.873638   468A      7.880221  
     469A      7.886191   470A      7.937364   471A      8.010055  
     472A      8.043321   473A      8.073639   474A      8.081028  
     475A      8.088233   476A      8.095488   477A      8.117532  
     478A      8.155005   479A      8.174876   480A      8.232652  
     481A      8.251217   482A      8.272182   483A      8.300797  
     484A      8.320538   485A      8.381142   486A      8.404061  
     487A      8.439162   488A      8.536100   489A      8.549855  
     490A      8.583744   491A      8.645858   492A      8.689846  
     493A      8.698026   494A      8.702271   495A      8.842531  
     496A      8.844023   497A      8.879297   498A      8.890149  
     499A      8.929836   500A      8.937655   501A      9.026670  
     502A      9.035064   503A      9.083638   504A      9.100687  
     505A      9.116214   506A      9.125624   507A      9.209293  
     508A      9.295185   509A      9.308239   510A      9.315202  
     511A      9.321918   512A      9.393583   513A      9.445523  
     514A      9.479478   515A      9.498887   516A      9.521638  
     517A      9.550434   518A      9.573825   519A      9.719824  
     520A      9.745134   521A      9.793218   522A      9.843492  
     523A      9.866674   524A      9.890221   525A      9.974932  
     526A     10.022398   527A     10.043190   528A     10.091810  
     529A     10.183191   530A     10.185480   531A     10.198079  
     532A     10.228550   533A     10.257249   534A     10.319502  
     535A     10.383652   536A     10.401909   537A     10.560897  
     538A     10.565006   539A     10.637755   540A     10.677847  
     541A     10.713434   542A     10.745708   543A     10.975870  
     544A     11.103054   545A     11.146278   546A     11.194624  
     547A     11.213798   548A     11.221742   549A     11.284604  
     550A     11.290494   551A     11.320784   552A     11.351099  
     553A     11.368522   554A     11.378133   555A     11.390455  
     556A     11.406179   557A     11.467025   558A     11.487986  
     559A     11.514590   560A     11.549076   561A     11.556992  
     562A     11.565194   563A     11.601514   564A     11.613495  
     565A     11.619317   566A     11.645126   567A     11.658770  
     568A     11.673392   569A     11.769143   570A     11.796746  
     571A     11.798060   572A     11.887521   573A     11.985371  
     574A     12.034787   575A     12.095461   576A     12.117240  
     577A     12.142565   578A     12.164958   579A     12.286856  
     580A     12.362006   581A     12.385420   582A     12.424919  
     583A     12.452147   584A     12.460689   585A     12.492187  
     586A     12.537941   587A     12.599075   588A     12.657549  
     589A     12.718256   590A     12.773938   591A     12.992380  
     592A     13.005618   593A     13.011038   594A     13.099430  
     595A     13.141501   596A     13.163744   597A     13.181201  
     598A     13.251536   599A     13.270324   600A     13.374941  
     601A     13.444352   602A     13.462953   603A     13.491061  
     604A     13.512201   605A     13.513336   606A     13.541294  
     607A     13.591418   608A     13.791102   609A     13.914780  
     610A     13.961443   611A     14.122887   612A     14.131137  
     613A     14.175238   614A     14.361623   615A     14.372909  
     616A     14.661315   617A     14.740513   618A     14.892895  
     619A     15.001521   620A     15.128641   621A     15.217608  
     622A     15.285184   623A     15.461783   624A     17.059838  
     625A     17.601060   626A     26.668452   627A     29.202800  
     628A     44.296938   629A     44.481755   630A     45.969409  

    Final Occupation by Irrep:
              A 
    DOCC [    21 ]

  @DF-RHF Final Energy:  -303.43386541114444

   => Energetics <=

    Nuclear Repulsion Energy =            172.3255518968472018
    One-Electron Energy =                -767.7543344889867285
    Two-Electron Energy =                 291.9949171809951167
    Total Energy =                       -303.4338654111444384

Computation Completed


Properties will be evaluated at   0.000000,   0.000000,   0.000000 [a0]

Properties computed using the SCF density matrix

  Nuclear Dipole Moment: [e a0]
     X:     2.9651      Y:     1.9814      Z:    -0.7406

  Electronic Dipole Moment: [e a0]
     X:    -1.7056      Y:    -1.1961      Z:     0.4173

  Dipole Moment: [e a0]
     X:     1.2595      Y:     0.7853      Z:    -0.3233     Total:     1.5191

  Dipole Moment: [D]
     X:     3.2013      Y:     1.9960      Z:    -0.8218     Total:     3.8611


*** tstop() called on node70.bme.utexas.edu at Sat Apr 11 16:24:02 2020
Module time:
	user time   =      89.21 seconds =       1.49 minutes
	system time =       2.28 seconds =       0.04 minutes
	total time  =         17 seconds =       0.28 minutes
Total time:
	user time   =     538.06 seconds =       8.97 minutes
	system time =      17.13 seconds =       0.29 minutes
	total time  =        111 seconds =       1.85 minutes

*** tstart() called on node70.bme.utexas.edu
*** at Sat Apr 11 16:24:02 2020


  //>>>>>>>>>>>>>>>>>>>>>>>>>>>>>>>>>>>//
  //               DFMP2               //
  //<<<<<<<<<<<<<<<<<<<<<<<<<<<<<<<<<<<//

   => Loading Basis Set <=

    Name: (AUG-CC-PVQZ AUX)
    Role: RIFIT
    Keyword: DF_BASIS_MP2
    atoms 1-2       entry C          line   184 file /home/liuchw/anaconda3/envs/psi4env/share/psi4/basis/aug-cc-pvqz-ri.gbs 
    atoms 3-4, 8    entry O          line   332 file /home/liuchw/anaconda3/envs/psi4env/share/psi4/basis/aug-cc-pvqz-ri.gbs 
    atoms 5-7, 9-10 entry H          line    30 file /home/liuchw/anaconda3/envs/psi4env/share/psi4/basis/aug-cc-pvqz-ri.gbs 

	 --------------------------------------------------------
	                          DF-MP2                         
	      2nd-Order Density-Fitted Moller-Plesset Theory     
	              RMP2 Wavefunction,   6 Threads             
	                                                         
	        Rob Parrish, Justin Turney, Andy Simmonett,      
	           Ed Hohenstein, and C. David Sherrill          
	 --------------------------------------------------------

   => Auxiliary Basis Set <=

  Basis Set: (AUG-CC-PVQZ AUX)
    Blend: AUG-CC-PVQZ-RI
    Number of shells: 280
    Number of basis function: 1240
    Number of Cartesian functions: 1710
    Spherical Harmonics?: true
    Max angular momentum: 5

	 --------------------------------------------------------
	                 NBF =   630, NAUX =  1240
	 --------------------------------------------------------
	   CLASS    FOCC     OCC    AOCC    AVIR     VIR    FVIR
	   PAIRS       0      21      21     609     609       0
	 --------------------------------------------------------

	-----------------------------------------------------------
	 ==================> DF-MP2 Energies <==================== 
	-----------------------------------------------------------
	 Reference Energy          =    -303.4338654111444384 [Eh]
	 Singles Energy            =      -0.0000000000000000 [Eh]
	 Same-Spin Energy          =      -0.3122933148659581 [Eh]
	 Opposite-Spin Energy      =      -1.0119976217485713 [Eh]
	 Correlation Energy        =      -1.3242909366145295 [Eh]
	 Total Energy              =    -304.7581563477589839 [Eh]
	-----------------------------------------------------------
	 ================> DF-SCS-MP2 Energies <================== 
	-----------------------------------------------------------
	 SCS Same-Spin Scale       =       0.3333333333333333 [-]
	 SCS Opposite-Spin Scale   =       1.2000000000000000 [-]
	 SCS Same-Spin Energy      =      -0.1040977716219860 [Eh]
	 SCS Opposite-Spin Energy  =      -1.2143971460982856 [Eh]
	 SCS Correlation Energy    =      -1.3184949177202716 [Eh]
	 SCS Total Energy          =    -304.7523603288647109 [Eh]
	-----------------------------------------------------------


*** tstop() called on node70.bme.utexas.edu at Sat Apr 11 16:24:12 2020
Module time:
	user time   =      48.95 seconds =       0.82 minutes
	system time =       1.43 seconds =       0.02 minutes
	total time  =         10 seconds =       0.17 minutes
Total time:
	user time   =     587.02 seconds =       9.78 minutes
	system time =      18.56 seconds =       0.31 minutes
	total time  =        121 seconds =       2.02 minutes

  //>>>>>>>>>>>>>>>>>>>>>>>>>>>>>>>>>>>//
  //  CBS Results: mp2/aug-cc-pv[tq]z  //
  //<<<<<<<<<<<<<<<<<<<<<<<<<<<<<<<<<<<//


   ==> HF <==

   HI-zeta (4) Energy:               -303.433865411144


   ==> Helgaker 2-point correlated extrapolation for method: MP2 <==

   LO-zeta (3) Energy:               -304.602560385825
   HI-zeta (4) Energy:               -304.758156347759
   Alpha (exponent) Value:             3.000000000000
   Extrapolated Energy:              -304.871699347008

   @Extrapolated MP2/(T,Q):          -304.871699347008



   ==> Helgaker 2-point correlated extrapolation for method: HF <==

   LO-zeta (3) Energy:               -303.414212838973
   HI-zeta (4) Energy:               -303.433865411144
   Alpha (exponent) Value:             3.000000000000
   Extrapolated Energy:              -303.448206477324

   @Extrapolated HF/(T,Q):           -303.448206477324


   ==> Components <==

  ---------------------------------------------------------------------------------------------------------
                          Method / Basis                      Rqd      Energy [Eh]   Variable
  ---------------------------------------------------------------------------------------------------------
                              hf / aug-cc-pvtz                  *    -303.41421284   HF TOTAL ENERGY
                             mp2 / aug-cc-pvtz                  *    -304.60256039   MP2 TOTAL ENERGY
                              hf / aug-cc-pvqz                  *    -303.43386541   HF TOTAL ENERGY
                             mp2 / aug-cc-pvqz                  *    -304.75815635   MP2 TOTAL ENERGY
  ---------------------------------------------------------------------------------------------------------

   ==> Stages <==

  ---------------------------------------------------------------------------------------------------------
      Stage               Method / Basis                       Wt      Energy [Eh]   Scheme
  ---------------------------------------------------------------------------------------------------------
        scf                   hf / aug-cc-pvqz                  1    -303.43386541   xtpl_highest_1
       corl                  mp2 / aug-cc-pv[tq]z               1    -304.87169935   corl_xtpl_helgaker_2
       corl                   hf / aug-cc-pv[tq]z              -1    -303.44820648   corl_xtpl_helgaker_2
  ---------------------------------------------------------------------------------------------------------

   ==> CBS <==

  ---------------------------------------------------------------------------------------------------------
      Stage               Method / Basis                               Energy [Eh]   Scheme
  ---------------------------------------------------------------------------------------------------------
        scf                   hf / aug-cc-pvqz                       -303.43386541   xtpl_highest_1
       corl                  mp2 / aug-cc-pv[tq]z                      -1.42349287   corl_xtpl_helgaker_2
      total                  CBS                                     -304.85735828   
  ---------------------------------------------------------------------------------------------------------
   => Loading Basis Set <=

    Name: DEF2-SVP
    Role: ORBITAL
    Keyword: BASIS
    atoms 1-2       entry C          line    90 file /home/liuchw/anaconda3/envs/psi4env/share/psi4/basis/def2-svp.gbs 
    atoms 3-4, 8    entry O          line   130 file /home/liuchw/anaconda3/envs/psi4env/share/psi4/basis/def2-svp.gbs 
    atoms 5-7, 9-10 entry H          line    15 file /home/liuchw/anaconda3/envs/psi4env/share/psi4/basis/def2-svp.gbs 


       N-Body: Complex Energy (fragments = (1, 2), basis = (1, 2):  -304.85735828082915)

   ==> N-Body: Counterpoise Corrected (CP) energies <==

   n-Body     Total Energy [Eh]       I.E. [kcal/mol]      Delta [kcal/mol]
        1     -304.823843625752        0.000000000000        0.000000000000
        2     -304.857275351126      -20.978724396549      -20.978724396549

   => Loading Basis Set <=

    Name: DEF2-SVP
    Role: ORBITAL
    Keyword: BASIS
    atoms 1-2       entry C          line    90 file /home/liuchw/anaconda3/envs/psi4env/share/psi4/basis/def2-svp.gbs 
    atoms 3-4, 8    entry O          line   130 file /home/liuchw/anaconda3/envs/psi4env/share/psi4/basis/def2-svp.gbs 
    atoms 5-7, 9-10 entry H          line    15 file /home/liuchw/anaconda3/envs/psi4env/share/psi4/basis/def2-svp.gbs 


    Psi4 stopped on: Saturday, 11 April 2020 04:24PM
    Psi4 wall time for execution: 0:02:02.66

*** Psi4 exiting successfully. Buy a developer a beer!
