
    -----------------------------------------------------------------------
          Psi4: An Open-Source Ab Initio Electronic Structure Package
                               Psi4 1.4a2.dev224 

                         Git: Rev {master} e453b16 


    R. M. Parrish, L. A. Burns, D. G. A. Smith, A. C. Simmonett,
    A. E. DePrince III, E. G. Hohenstein, U. Bozkaya, A. Yu. Sokolov,
    R. Di Remigio, R. M. Richard, J. F. Gonthier, A. M. James,
    H. R. McAlexander, A. Kumar, M. Saitow, X. Wang, B. P. Pritchard,
    P. Verma, H. F. Schaefer III, K. Patkowski, R. A. King, E. F. Valeev,
    F. A. Evangelista, J. M. Turney, T. D. Crawford, and C. D. Sherrill,
    J. Chem. Theory Comput. 13(7) pp 3185--3197 (2017).
    (doi: 10.1021/acs.jctc.7b00174)


                         Additional Contributions by
    P. Kraus, H. Kruse, M. H. Lechner, M. C. Schieber, R. A. Shaw,
    A. Alenaizan, R. Galvelis, Z. L. Glick, S. Lehtola, and J. P. Misiewicz

    -----------------------------------------------------------------------


    Psi4 started on: Saturday, 11 April 2020 04:42PM

    Process ID: 21954
    Host:       node36.bme.utexas.edu
    PSIDATADIR: /home/liuchw/anaconda3/envs/psi4env/share/psi4
    Memory:     500.0 MiB
    Threads:    6
    
  ==> Input File <==

--------------------------------------------------------------------------
#Generated by lconvert.py for cbs job

memory 40 GB

molecule  {
0 1
  C       -0.8622250    -0.9335500    -0.2460230
  C       -3.1939110     0.4610760    -0.0197610
  S       -2.3327360    -0.5677070    -1.2294530
  H       -1.1362690    -1.4624590     0.6640190
  H       -0.2165310    -1.5679050    -0.8477970
  H       -0.3311290    -0.0157860    -0.0036480
  H       -3.4005570    -0.1080300     0.8838090
  H       -2.6023640     1.3427110     0.2166530
  H       -4.1333160     0.7746760    -0.4676800
--
0 1
  O       -3.3911730    -2.6600780     0.7562910
  H       -3.2166670    -2.2305740    -0.0917390
  H       -3.8848540    -3.4468060     0.5184380
units angstrom
no_reorient
symmetry c1
}

set {
scf_type DF
mp2_type DF
e_convergence 7
reference rhf
}

energy('mp2/aug-cc-pv[tq]z', bsse_type='cp')
--------------------------------------------------------------------------

  Memory set to  37.253 GiB by Python driver.

Scratch directory: /scratch//


   ===> N-Body Interaction Abacus <===
        BSSE Treatment:                     cp
        Number of 1-body computations:     4
        Number of 2-body computations:     1

   ==> N-Body: Now computing 1-body complexes <==


       N-Body: Computing complex (1/4) with fragments (2,) in the basis of fragments (2,).


Scratch directory: /scratch//

  //>>>>>>>>>>>>>>>>>>>>>>>>>>>>>>>>>>>//
  //   CBS Setup: mp2/aug-cc-pv[tq]z   //
  //<<<<<<<<<<<<<<<<<<<<<<<<<<<<<<<<<<<//

    Naive listing of computations required.
             hf / aug-cc-pvqz              for  HF TOTAL ENERGY
            mp2 / aug-cc-pvtz              for  MP2 TOTAL ENERGY
            mp2 / aug-cc-pvqz              for  MP2 TOTAL ENERGY
             hf / aug-cc-pvtz              for  HF TOTAL ENERGY
             hf / aug-cc-pvqz              for  HF TOTAL ENERGY

    Enlightened listing of computations required.
            mp2 / aug-cc-pvtz              for  MP2 TOTAL ENERGY
            mp2 / aug-cc-pvqz              for  MP2 TOTAL ENERGY

    Full listing of computations to be obtained (required and bonus).
             hf / aug-cc-pvtz              for  HF TOTAL ENERGY
            mp2 / aug-cc-pvtz              for  MP2 TOTAL ENERGY
             hf / aug-cc-pvqz              for  HF TOTAL ENERGY
            mp2 / aug-cc-pvqz              for  MP2 TOTAL ENERGY

  //>>>>>>>>>>>>>>>>>>>>>>>>>>>>>>>>>>>>//
  // CBS Computation: MP2 / AUG-CC-PVTZ //
  //<<<<<<<<<<<<<<<<<<<<<<<<<<<<<<<<<<<<//


Scratch directory: /scratch//

*** tstart() called on node36.bme.utexas.edu
*** at Sat Apr 11 16:42:13 2020

   => Loading Basis Set <=

    Name: AUG-CC-PVTZ
    Role: ORBITAL
    Keyword: BASIS
    atoms 1   entry O          line   331 file /home/liuchw/anaconda3/envs/psi4env/share/psi4/basis/aug-cc-pvtz.gbs 
    atoms 2-3 entry H          line    40 file /home/liuchw/anaconda3/envs/psi4env/share/psi4/basis/aug-cc-pvtz.gbs 


         ---------------------------------------------------------
                                   SCF
               by Justin Turney, Rob Parrish, Andy Simmonett
                          and Daniel G. A. Smith
                              RHF Reference
                        6 Threads,  38146 MiB Core
         ---------------------------------------------------------

  ==> Geometry <==

    Molecular point group: c1
    Full point group: C1

    Geometry (in Angstrom), charge = 0, multiplicity = 1:

       Center              X                  Y                   Z               Mass       
    ------------   -----------------  -----------------  -----------------  -----------------
         O           -0.934990036594    -1.746229855460     1.125178050989    15.994914619570
         H           -0.760484036594    -1.316725855460     0.277148050989     1.007825032230
         H           -1.428671036594    -2.532957855460     0.887325050989     1.007825032230

  Running in c1 symmetry.

  Rotational constants: A =     26.65545  B =      0.17915  C =      0.17795 [cm^-1]
  Rotational constants: A = 799110.25018  B =   5370.75827  C =   5334.90280 [MHz]
  Nuclear repulsion =    9.144806870192893

  Charge       = 0
  Multiplicity = 1
  Electrons    = 10
  Nalpha       = 5
  Nbeta        = 5

  ==> Algorithm <==

  SCF Algorithm Type is DF.
  DIIS enabled.
  MOM disabled.
  Fractional occupation disabled.
  Guess Type is SAD.
  Energy threshold   = 1.00e-07
  Density threshold  = 1.00e-08
  Integral threshold = 0.00e+00

  ==> Primary Basis <==

  Basis Set: AUG-CC-PVTZ
    Blend: AUG-CC-PVTZ
    Number of shells: 32
    Number of basis function: 92
    Number of Cartesian functions: 105
    Spherical Harmonics?: true
    Max angular momentum: 3

   => Loading Basis Set <=

    Name: (AUG-CC-PVTZ AUX)
    Role: JKFIT
    Keyword: DF_BASIS_SCF
    atoms 1   entry O          line   286 file /home/liuchw/anaconda3/envs/psi4env/share/psi4/basis/aug-cc-pvtz-jkfit.gbs 
    atoms 2-3 entry H          line    70 file /home/liuchw/anaconda3/envs/psi4env/share/psi4/basis/aug-cc-pvtz-jkfit.gbs 

  ==> Pre-Iterations <==

   -------------------------------------------------------
    Irrep   Nso     Nmo     Nalpha   Nbeta   Ndocc  Nsocc
   -------------------------------------------------------
     A         92      92       0       0       0       0
   -------------------------------------------------------
    Total      92      92       5       5       5       0
   -------------------------------------------------------

  ==> Integral Setup <==

  DFHelper Memory: AOs need 0.015 GiB; user supplied 27.940 GiB. Using in-core AOs.

  ==> MemDFJK: Density-Fitted J/K Matrices <==

    J tasked:                   Yes
    K tasked:                   Yes
    wK tasked:                   No
    OpenMP threads:               6
    Memory [MiB]:             28610
    Algorithm:                 Core
    Schwarz Cutoff:           1E-12
    Mask sparsity (%):       0.0000
    Fitting Condition:        1E-10

   => Auxiliary Basis Set <=

  Basis Set: (AUG-CC-PVTZ AUX)
    Blend: AUG-CC-PVTZ-JKFIT
    Number of shells: 58
    Number of basis function: 196
    Number of Cartesian functions: 241
    Spherical Harmonics?: true
    Max angular momentum: 4

  Minimum eigenvalue in the overlap matrix is 3.8972405397E-04.
  Using Symmetric Orthogonalization.

  SCF Guess: Superposition of Atomic Densities via on-the-fly atomic UHF.

  ==> Iterations <==

                           Total Energy        Delta E     RMS |[F,P]|

   @DF-RHF iter SAD:   -75.47248359655005   -7.54725e+01   0.00000e+00 
   @DF-RHF iter   1:   -75.97558690480763   -5.03103e-01   5.08922e-03 DIIS
   @DF-RHF iter   2:   -76.02799211724081   -5.24052e-02   3.48296e-03 DIIS
   @DF-RHF iter   3:   -76.05970432351941   -3.17122e-02   2.36714e-04 DIIS
   @DF-RHF iter   4:   -76.06009721190344   -3.92888e-04   5.70601e-05 DIIS
   @DF-RHF iter   5:   -76.06012217022537   -2.49583e-05   1.30019e-05 DIIS
   @DF-RHF iter   6:   -76.06012422274603   -2.05252e-06   2.84657e-06 DIIS
   @DF-RHF iter   7:   -76.06012433069156   -1.07946e-07   5.09926e-07 DIIS
   @DF-RHF iter   8:   -76.06012433372939   -3.03783e-09   8.57727e-08 DIIS
   @DF-RHF iter   9:   -76.06012433379674   -6.73452e-11   2.11337e-08 DIIS
   @DF-RHF iter  10:   -76.06012433380077   -4.03588e-12   3.12443e-09 DIIS
  Energy and wave function converged.


  ==> Post-Iterations <==

    Orbital Energies [Eh]
    ---------------------

    Doubly Occupied:                                                      

       1A    -20.568423     2A     -1.351302     3A     -0.713688  
       4A     -0.585142     5A     -0.510104  

    Virtual:                                                              

       6A      0.029328     7A      0.047702     8A      0.135838  
       9A      0.158883    10A      0.175157    11A      0.183137  
      12A      0.226920    13A      0.244897    14A      0.265484  
      15A      0.299722    16A      0.309948    17A      0.365780  
      18A      0.437045    19A      0.465822    20A      0.598971  
      21A      0.658593    22A      0.707765    23A      0.722899  
      24A      0.731766    25A      0.830355    26A      0.846460  
      27A      0.892571    28A      0.912244    29A      0.918196  
      30A      0.922389    31A      0.930871    32A      0.960910  
      33A      1.020180    34A      1.042746    35A      1.082296  
      36A      1.107988    37A      1.176173    38A      1.181734  
      39A      1.261613    40A      1.509593    41A      1.533789  
      42A      1.581389    43A      1.806301    44A      1.821230  
      45A      1.981299    46A      2.116676    47A      2.262920  
      48A      2.315564    49A      2.327406    50A      2.418250  
      51A      2.420919    52A      2.443237    53A      2.480716  
      54A      2.677968    55A      2.698454    56A      2.770179  
      57A      2.813285    58A      2.883437    59A      3.650534  
      60A      3.737736    61A      4.018166    62A      4.081322  
      63A      4.160488    64A      4.246866    65A      4.284189  
      66A      4.372742    67A      4.376637    68A      4.404120  
      69A      4.517754    70A      4.724064    71A      4.840007  
      72A      5.144439    73A      5.147846    74A      5.245118  
      75A      5.318149    76A      5.518862    77A      5.658138  
      78A      6.178461    79A      6.515852    80A      6.714029  
      81A      6.902102    82A      7.133897    83A      7.256338  
      84A      7.295314    85A      7.314502    86A      7.337142  
      87A      7.360128    88A      7.530124    89A      7.894908  
      90A      7.923480    91A      8.799563    92A     15.666751  

    Final Occupation by Irrep:
              A 
    DOCC [     5 ]

  @DF-RHF Final Energy:   -76.06012433380077

   => Energetics <=

    Nuclear Repulsion Energy =              9.1448068701928928
    One-Electron Energy =                -122.9525461794611090
    Two-Electron Energy =                  37.7476149754674424
    Total Energy =                        -76.0601243338007720

Computation Completed


Properties will be evaluated at   0.000000,   0.000000,   0.000000 [a0]

Properties computed using the SCF density matrix

  Nuclear Dipole Moment: [e a0]
     X:   -18.2719      Y:   -33.6740      Z:    19.2108

  Electronic Dipole Moment: [e a0]
     X:    18.0600      Y:    33.4364      Z:   -19.9292

  Dipole Moment: [e a0]
     X:    -0.2119      Y:    -0.2376      Z:    -0.7184     Total:     0.7858

  Dipole Moment: [D]
     X:    -0.5387      Y:    -0.6040      Z:    -1.8261     Total:     1.9974


*** tstop() called on node36.bme.utexas.edu at Sat Apr 11 16:42:15 2020
Module time:
	user time   =       6.86 seconds =       0.11 minutes
	system time =       0.50 seconds =       0.01 minutes
	total time  =          2 seconds =       0.03 minutes
Total time:
	user time   =       6.86 seconds =       0.11 minutes
	system time =       0.50 seconds =       0.01 minutes
	total time  =          2 seconds =       0.03 minutes

*** tstart() called on node36.bme.utexas.edu
*** at Sat Apr 11 16:42:15 2020


  //>>>>>>>>>>>>>>>>>>>>>>>>>>>>>>>>>>>//
  //               DFMP2               //
  //<<<<<<<<<<<<<<<<<<<<<<<<<<<<<<<<<<<//

   => Loading Basis Set <=

    Name: (AUG-CC-PVTZ AUX)
    Role: RIFIT
    Keyword: DF_BASIS_MP2
    atoms 1   entry O          line   264 file /home/liuchw/anaconda3/envs/psi4env/share/psi4/basis/aug-cc-pvtz-ri.gbs 
    atoms 2-3 entry H          line    30 file /home/liuchw/anaconda3/envs/psi4env/share/psi4/basis/aug-cc-pvtz-ri.gbs 

	 --------------------------------------------------------
	                          DF-MP2                         
	      2nd-Order Density-Fitted Moller-Plesset Theory     
	              RMP2 Wavefunction,   6 Threads             
	                                                         
	        Rob Parrish, Justin Turney, Andy Simmonett,      
	           Ed Hohenstein, and C. David Sherrill          
	 --------------------------------------------------------

   => Auxiliary Basis Set <=

  Basis Set: (AUG-CC-PVTZ AUX)
    Blend: AUG-CC-PVTZ-RI
    Number of shells: 56
    Number of basis function: 198
    Number of Cartesian functions: 246
    Spherical Harmonics?: true
    Max angular momentum: 4

	 --------------------------------------------------------
	                 NBF =    92, NAUX =   198
	 --------------------------------------------------------
	   CLASS    FOCC     OCC    AOCC    AVIR     VIR    FVIR
	   PAIRS       0       5       5      87      87       0
	 --------------------------------------------------------

	-----------------------------------------------------------
	 ==================> DF-MP2 Energies <==================== 
	-----------------------------------------------------------
	 Reference Energy          =     -76.0601243338007720 [Eh]
	 Singles Energy            =      -0.0000000000000000 [Eh]
	 Same-Spin Energy          =      -0.0684408581352839 [Eh]
	 Opposite-Spin Energy      =      -0.2154694236450516 [Eh]
	 Correlation Energy        =      -0.2839102817803355 [Eh]
	 Total Energy              =     -76.3440346155811085 [Eh]
	-----------------------------------------------------------
	 ================> DF-SCS-MP2 Energies <================== 
	-----------------------------------------------------------
	 SCS Same-Spin Scale       =       0.3333333333333333 [-]
	 SCS Opposite-Spin Scale   =       1.2000000000000000 [-]
	 SCS Same-Spin Energy      =      -0.0228136193784280 [Eh]
	 SCS Opposite-Spin Energy  =      -0.2585633083740619 [Eh]
	 SCS Correlation Energy    =      -0.2813769277524898 [Eh]
	 SCS Total Energy          =     -76.3415012615532618 [Eh]
	-----------------------------------------------------------


*** tstop() called on node36.bme.utexas.edu at Sat Apr 11 16:42:15 2020
Module time:
	user time   =       2.50 seconds =       0.04 minutes
	system time =       0.21 seconds =       0.00 minutes
	total time  =          0 seconds =       0.00 minutes
Total time:
	user time   =       9.37 seconds =       0.16 minutes
	system time =       0.71 seconds =       0.01 minutes
	total time  =          2 seconds =       0.03 minutes

  //>>>>>>>>>>>>>>>>>>>>>>>>>>>>>>>>>>>>//
  // CBS Computation: MP2 / AUG-CC-PVQZ //
  //<<<<<<<<<<<<<<<<<<<<<<<<<<<<<<<<<<<<//


Scratch directory: /scratch//

*** tstart() called on node36.bme.utexas.edu
*** at Sat Apr 11 16:42:15 2020

   => Loading Basis Set <=

    Name: AUG-CC-PVQZ
    Role: ORBITAL
    Keyword: BASIS
    atoms 1   entry O          line   423 file /home/liuchw/anaconda3/envs/psi4env/share/psi4/basis/aug-cc-pvqz.gbs 
    atoms 2-3 entry H          line    40 file /home/liuchw/anaconda3/envs/psi4env/share/psi4/basis/aug-cc-pvqz.gbs 


         ---------------------------------------------------------
                                   SCF
               by Justin Turney, Rob Parrish, Andy Simmonett
                          and Daniel G. A. Smith
                              RHF Reference
                        6 Threads,  38146 MiB Core
         ---------------------------------------------------------

  ==> Geometry <==

    Molecular point group: c1
    Full point group: C1

    Geometry (in Angstrom), charge = 0, multiplicity = 1:

       Center              X                  Y                   Z               Mass       
    ------------   -----------------  -----------------  -----------------  -----------------
         O           -0.934990036594    -1.746229855460     1.125178050989    15.994914619570
         H           -0.760484036594    -1.316725855460     0.277148050989     1.007825032230
         H           -1.428671036594    -2.532957855460     0.887325050989     1.007825032230

  Running in c1 symmetry.

  Rotational constants: A =     26.65545  B =      0.17915  C =      0.17795 [cm^-1]
  Rotational constants: A = 799110.25018  B =   5370.75827  C =   5334.90280 [MHz]
  Nuclear repulsion =    9.144806870192893

  Charge       = 0
  Multiplicity = 1
  Electrons    = 10
  Nalpha       = 5
  Nbeta        = 5

  ==> Algorithm <==

  SCF Algorithm Type is DF.
  DIIS enabled.
  MOM disabled.
  Fractional occupation disabled.
  Guess Type is SAD.
  Energy threshold   = 1.00e-07
  Density threshold  = 1.00e-08
  Integral threshold = 0.00e+00

  ==> Primary Basis <==

  Basis Set: AUG-CC-PVQZ
    Blend: AUG-CC-PVQZ
    Number of shells: 48
    Number of basis function: 172
    Number of Cartesian functions: 215
    Spherical Harmonics?: true
    Max angular momentum: 4

   => Loading Basis Set <=

    Name: (AUG-CC-PVQZ AUX)
    Role: JKFIT
    Keyword: DF_BASIS_SCF
    atoms 1   entry O          line   318 file /home/liuchw/anaconda3/envs/psi4env/share/psi4/basis/aug-cc-pvqz-jkfit.gbs 
    atoms 2-3 entry H          line    70 file /home/liuchw/anaconda3/envs/psi4env/share/psi4/basis/aug-cc-pvqz-jkfit.gbs 

  ==> Pre-Iterations <==

   -------------------------------------------------------
    Irrep   Nso     Nmo     Nalpha   Nbeta   Ndocc  Nsocc
   -------------------------------------------------------
     A        172     172       0       0       0       0
   -------------------------------------------------------
    Total     172     172       5       5       5       0
   -------------------------------------------------------

  ==> Integral Setup <==

  DFHelper Memory: AOs need 0.074 GiB; user supplied 27.940 GiB. Using in-core AOs.

  ==> MemDFJK: Density-Fitted J/K Matrices <==

    J tasked:                   Yes
    K tasked:                   Yes
    wK tasked:                   No
    OpenMP threads:               6
    Memory [MiB]:             28610
    Algorithm:                 Core
    Schwarz Cutoff:           1E-12
    Mask sparsity (%):       0.0000
    Fitting Condition:        1E-10

   => Auxiliary Basis Set <=

  Basis Set: (AUG-CC-PVQZ AUX)
    Blend: AUG-CC-PVQZ-JKFIT
    Number of shells: 70
    Number of basis function: 294
    Number of Cartesian functions: 400
    Spherical Harmonics?: true
    Max angular momentum: 5

  Minimum eigenvalue in the overlap matrix is 8.8023611444E-05.
  Using Symmetric Orthogonalization.

  SCF Guess: Superposition of Atomic Densities via on-the-fly atomic UHF.

  ==> Iterations <==

                           Total Energy        Delta E     RMS |[F,P]|

   @DF-RHF iter SAD:   -75.47762007370785   -7.54776e+01   0.00000e+00 
   @DF-RHF iter   1:   -75.98065262804261   -5.03033e-01   2.72802e-03 DIIS
   @DF-RHF iter   2:   -76.03315673392551   -5.25041e-02   1.87116e-03 DIIS
   @DF-RHF iter   3:   -76.06506799120932   -3.19113e-02   1.27578e-04 DIIS
   @DF-RHF iter   4:   -76.06546299133770   -3.95000e-04   3.14391e-05 DIIS
   @DF-RHF iter   5:   -76.06548886704624   -2.58757e-05   7.13875e-06 DIIS
   @DF-RHF iter   6:   -76.06549100361866   -2.13657e-06   1.60621e-06 DIIS
   @DF-RHF iter   7:   -76.06549112337277   -1.19754e-07   2.97586e-07 DIIS
   @DF-RHF iter   8:   -76.06549112697539   -3.60262e-09   4.80753e-08 DIIS
   @DF-RHF iter   9:   -76.06549112705149   -7.60991e-11   1.15721e-08 DIIS
   @DF-RHF iter  10:   -76.06549112705582   -4.33431e-12   1.74389e-09 DIIS
  Energy and wave function converged.


  ==> Post-Iterations <==

    Orbital Energies [Eh]
    ---------------------

    Doubly Occupied:                                                      

       1A    -20.565966     2A     -1.350571     3A     -0.713653  
       4A     -0.585189     5A     -0.510237  

    Virtual:                                                              

       6A      0.026854     7A      0.043096     8A      0.114081  
       9A      0.133600    10A      0.151076    11A      0.158695  
      12A      0.184841    13A      0.197015    14A      0.209341  
      15A      0.237232    16A      0.257016    17A      0.291553  
      18A      0.357171    19A      0.389559    20A      0.469665  
      21A      0.508712    22A      0.542014    23A      0.547534  
      24A      0.556343    25A      0.614273    26A      0.632619  
      27A      0.647205    28A      0.663454    29A      0.666012  
      30A      0.684700    31A      0.706576    32A      0.718777  
      33A      0.769495    34A      0.787903    35A      0.801896  
      36A      0.802602    37A      0.843298    38A      0.854287  
      39A      0.968482    40A      1.123581    41A      1.136241  
      42A      1.208004    43A      1.331846    44A      1.438881  
      45A      1.481385    46A      1.509312    47A      1.512179  
      48A      1.526890    49A      1.553953    50A      1.590986  
      51A      1.620486    52A      1.636734    53A      1.662489  
      54A      1.664517    55A      1.689179    56A      1.702758  
      57A      1.736147    58A      1.752444    59A      1.766829  
      60A      1.775637    61A      1.842282    62A      1.865131  
      63A      1.893690    64A      1.915176    65A      1.981117  
      66A      2.008911    67A      2.034250    68A      2.039384  
      69A      2.101065    70A      2.206060    71A      2.217032  
      72A      2.312427    73A      2.436570    74A      2.623935  
      75A      2.629316    76A      2.884130    77A      2.955115  
      78A      2.993583    79A      3.039707    80A      3.054177  
      81A      3.083799    82A      3.266635    83A      3.298363  
      84A      3.307626    85A      3.489436    86A      3.588356  
      87A      3.641895    88A      3.687410    89A      3.717672  
      90A      3.773846    91A      3.923911    92A      4.078366  
      93A      4.166575    94A      4.168559    95A      4.178097  
      96A      4.179439    97A      4.234786    98A      4.328349  
      99A      4.433045   100A      4.576878   101A      4.721177  
     102A      4.744112   103A      4.779314   104A      4.779677  
     105A      4.808090   106A      4.875656   107A      4.994579  
     108A      5.236408   109A      5.313286   110A      5.515863  
     111A      5.526661   112A      5.852198   113A      5.882514  
     114A      6.069556   115A      6.226718   116A      6.822859  
     117A      6.880735   118A      6.881910   119A      6.907648  
     120A      7.721344   121A      7.769166   122A      7.784950  
     123A      7.822692   124A      7.827233   125A      7.895933  
     126A      7.923895   127A      8.019038   128A      8.174478  
     129A      8.195719   130A      8.526388   131A      8.626104  
     132A      8.648306   133A      8.698153   134A      8.776512  
     135A      8.842048   136A      8.987942   137A      9.037684  
     138A      9.211436   139A      9.661765   140A      9.893660  
     141A      9.899229   142A      9.926282   143A      9.984946  
     144A     10.318919   145A     10.443905   146A     10.692630  
     147A     11.015276   148A     11.081198   149A     11.090286  
     150A     11.269714   151A     11.307810   152A     11.410277  
     153A     11.709617   154A     11.790882   155A     11.832611  
     156A     11.985356   157A     12.194234   158A     12.201827  
     159A     12.608981   160A     12.726862   161A     12.815614  
     162A     12.898567   163A     13.178074   164A     13.968805  
     165A     14.004214   166A     14.481842   167A     14.787326  
     168A     14.880100   169A     15.227672   170A     16.819196  
     171A     17.269382   172A     45.470038  

    Final Occupation by Irrep:
              A 
    DOCC [     5 ]

  @DF-RHF Final Energy:   -76.06549112705582

   => Energetics <=

    Nuclear Repulsion Energy =              9.1448068701928928
    One-Electron Energy =                -122.9693640602323370
    Two-Electron Energy =                  37.7590660629836350
    Total Energy =                        -76.0654911270558074

Computation Completed


Properties will be evaluated at   0.000000,   0.000000,   0.000000 [a0]

Properties computed using the SCF density matrix

  Nuclear Dipole Moment: [e a0]
     X:   -18.2719      Y:   -33.6740      Z:    19.2108

  Electronic Dipole Moment: [e a0]
     X:    18.0602      Y:    33.4367      Z:   -19.9284

  Dipole Moment: [e a0]
     X:    -0.2117      Y:    -0.2374      Z:    -0.7177     Total:     0.7850

  Dipole Moment: [D]
     X:    -0.5381      Y:    -0.6033      Z:    -1.8241     Total:     1.9953


*** tstop() called on node36.bme.utexas.edu at Sat Apr 11 16:42:17 2020
Module time:
	user time   =       9.29 seconds =       0.15 minutes
	system time =       0.58 seconds =       0.01 minutes
	total time  =          2 seconds =       0.03 minutes
Total time:
	user time   =      18.70 seconds =       0.31 minutes
	system time =       1.30 seconds =       0.02 minutes
	total time  =          4 seconds =       0.07 minutes

*** tstart() called on node36.bme.utexas.edu
*** at Sat Apr 11 16:42:17 2020


  //>>>>>>>>>>>>>>>>>>>>>>>>>>>>>>>>>>>//
  //               DFMP2               //
  //<<<<<<<<<<<<<<<<<<<<<<<<<<<<<<<<<<<//

   => Loading Basis Set <=

    Name: (AUG-CC-PVQZ AUX)
    Role: RIFIT
    Keyword: DF_BASIS_MP2
    atoms 1   entry O          line   332 file /home/liuchw/anaconda3/envs/psi4env/share/psi4/basis/aug-cc-pvqz-ri.gbs 
    atoms 2-3 entry H          line    30 file /home/liuchw/anaconda3/envs/psi4env/share/psi4/basis/aug-cc-pvqz-ri.gbs 

	 --------------------------------------------------------
	                          DF-MP2                         
	      2nd-Order Density-Fitted Moller-Plesset Theory     
	              RMP2 Wavefunction,   6 Threads             
	                                                         
	        Rob Parrish, Justin Turney, Andy Simmonett,      
	           Ed Hohenstein, and C. David Sherrill          
	 --------------------------------------------------------

   => Auxiliary Basis Set <=

  Basis Set: (AUG-CC-PVQZ AUX)
    Blend: AUG-CC-PVQZ-RI
    Number of shells: 76
    Number of basis function: 328
    Number of Cartesian functions: 447
    Spherical Harmonics?: true
    Max angular momentum: 5

	 --------------------------------------------------------
	                 NBF =   172, NAUX =   328
	 --------------------------------------------------------
	   CLASS    FOCC     OCC    AOCC    AVIR     VIR    FVIR
	   PAIRS       0       5       5     167     167       0
	 --------------------------------------------------------

	-----------------------------------------------------------
	 ==================> DF-MP2 Energies <==================== 
	-----------------------------------------------------------
	 Reference Energy          =     -76.0654911270558216 [Eh]
	 Singles Energy            =      -0.0000000000000000 [Eh]
	 Same-Spin Energy          =      -0.0727638818492012 [Eh]
	 Opposite-Spin Energy      =      -0.2444132793721802 [Eh]
	 Correlation Energy        =      -0.3171771612213815 [Eh]
	 Total Energy              =     -76.3826682882772019 [Eh]
	-----------------------------------------------------------
	 ================> DF-SCS-MP2 Energies <================== 
	-----------------------------------------------------------
	 SCS Same-Spin Scale       =       0.3333333333333333 [-]
	 SCS Opposite-Spin Scale   =       1.2000000000000000 [-]
	 SCS Same-Spin Energy      =      -0.0242546272830671 [Eh]
	 SCS Opposite-Spin Energy  =      -0.2932959352466162 [Eh]
	 SCS Correlation Energy    =      -0.3175505625296833 [Eh]
	 SCS Total Energy          =     -76.3830416895855109 [Eh]
	-----------------------------------------------------------


*** tstop() called on node36.bme.utexas.edu at Sat Apr 11 16:42:18 2020
Module time:
	user time   =       3.47 seconds =       0.06 minutes
	system time =       0.23 seconds =       0.00 minutes
	total time  =          1 seconds =       0.02 minutes
Total time:
	user time   =      22.17 seconds =       0.37 minutes
	system time =       1.53 seconds =       0.03 minutes
	total time  =          5 seconds =       0.08 minutes

  //>>>>>>>>>>>>>>>>>>>>>>>>>>>>>>>>>>>//
  //  CBS Results: mp2/aug-cc-pv[tq]z  //
  //<<<<<<<<<<<<<<<<<<<<<<<<<<<<<<<<<<<//


   ==> HF <==

   HI-zeta (4) Energy:               -76.065491127056


   ==> Helgaker 2-point correlated extrapolation for method: MP2 <==

   LO-zeta (3) Energy:               -76.344034615581
   HI-zeta (4) Energy:               -76.382668288277
   Alpha (exponent) Value:             3.000000000000
   Extrapolated Energy:              -76.410860427812

   @Extrapolated MP2/(T,Q):          -76.410860427812



   ==> Helgaker 2-point correlated extrapolation for method: HF <==

   LO-zeta (3) Energy:               -76.060124333801
   HI-zeta (4) Energy:               -76.065491127056
   Alpha (exponent) Value:             3.000000000000
   Extrapolated Energy:              -76.069407435647

   @Extrapolated HF/(T,Q):           -76.069407435647


   ==> Components <==

  ---------------------------------------------------------------------------------------------------------
                          Method / Basis                      Rqd      Energy [Eh]   Variable
  ---------------------------------------------------------------------------------------------------------
                              hf / aug-cc-pvtz                  *     -76.06012433   HF TOTAL ENERGY
                             mp2 / aug-cc-pvtz                  *     -76.34403462   MP2 TOTAL ENERGY
                              hf / aug-cc-pvqz                  *     -76.06549113   HF TOTAL ENERGY
                             mp2 / aug-cc-pvqz                  *     -76.38266829   MP2 TOTAL ENERGY
  ---------------------------------------------------------------------------------------------------------

   ==> Stages <==

  ---------------------------------------------------------------------------------------------------------
      Stage               Method / Basis                       Wt      Energy [Eh]   Scheme
  ---------------------------------------------------------------------------------------------------------
        scf                   hf / aug-cc-pvqz                  1     -76.06549113   xtpl_highest_1
       corl                  mp2 / aug-cc-pv[tq]z               1     -76.41086043   corl_xtpl_helgaker_2
       corl                   hf / aug-cc-pv[tq]z              -1     -76.06940744   corl_xtpl_helgaker_2
  ---------------------------------------------------------------------------------------------------------

   ==> CBS <==

  ---------------------------------------------------------------------------------------------------------
      Stage               Method / Basis                               Energy [Eh]   Scheme
  ---------------------------------------------------------------------------------------------------------
        scf                   hf / aug-cc-pvqz                        -76.06549113   xtpl_highest_1
       corl                  mp2 / aug-cc-pv[tq]z                      -0.34145299   corl_xtpl_helgaker_2
      total                  CBS                                      -76.40694412   
  ---------------------------------------------------------------------------------------------------------
   => Loading Basis Set <=

    Name: DEF2-SVP
    Role: ORBITAL
    Keyword: BASIS
    atoms 1   entry O          line   130 file /home/liuchw/anaconda3/envs/psi4env/share/psi4/basis/def2-svp.gbs 
    atoms 2-3 entry H          line    15 file /home/liuchw/anaconda3/envs/psi4env/share/psi4/basis/def2-svp.gbs 


       N-Body: Complex Energy (fragments = (2,), basis = (2,):   -76.40694411922070)

       N-Body: Computing complex (2/4) with fragments (2,) in the basis of fragments (1, 2).


Scratch directory: /scratch//

  //>>>>>>>>>>>>>>>>>>>>>>>>>>>>>>>>>>>//
  //   CBS Setup: mp2/aug-cc-pv[tq]z   //
  //<<<<<<<<<<<<<<<<<<<<<<<<<<<<<<<<<<<//

    Naive listing of computations required.
             hf / aug-cc-pvqz              for  HF TOTAL ENERGY
            mp2 / aug-cc-pvtz              for  MP2 TOTAL ENERGY
            mp2 / aug-cc-pvqz              for  MP2 TOTAL ENERGY
             hf / aug-cc-pvtz              for  HF TOTAL ENERGY
             hf / aug-cc-pvqz              for  HF TOTAL ENERGY

    Enlightened listing of computations required.
            mp2 / aug-cc-pvtz              for  MP2 TOTAL ENERGY
            mp2 / aug-cc-pvqz              for  MP2 TOTAL ENERGY

    Full listing of computations to be obtained (required and bonus).
             hf / aug-cc-pvtz              for  HF TOTAL ENERGY
            mp2 / aug-cc-pvtz              for  MP2 TOTAL ENERGY
             hf / aug-cc-pvqz              for  HF TOTAL ENERGY
            mp2 / aug-cc-pvqz              for  MP2 TOTAL ENERGY

  //>>>>>>>>>>>>>>>>>>>>>>>>>>>>>>>>>>>>//
  // CBS Computation: MP2 / AUG-CC-PVTZ //
  //<<<<<<<<<<<<<<<<<<<<<<<<<<<<<<<<<<<<//


Scratch directory: /scratch//

*** tstart() called on node36.bme.utexas.edu
*** at Sat Apr 11 16:42:19 2020

   => Loading Basis Set <=

    Name: AUG-CC-PVTZ
    Role: ORBITAL
    Keyword: BASIS
    atoms 1-2        entry C          line   239 file /home/liuchw/anaconda3/envs/psi4env/share/psi4/basis/aug-cc-pvtz.gbs 
    atoms 3          entry S          line   906 file /home/liuchw/anaconda3/envs/psi4env/share/psi4/basis/aug-cc-pvtz.gbs 
    atoms 4-9, 11-12 entry H          line    40 file /home/liuchw/anaconda3/envs/psi4env/share/psi4/basis/aug-cc-pvtz.gbs 
    atoms 10         entry O          line   331 file /home/liuchw/anaconda3/envs/psi4env/share/psi4/basis/aug-cc-pvtz.gbs 


         ---------------------------------------------------------
                                   SCF
               by Justin Turney, Rob Parrish, Andy Simmonett
                          and Daniel G. A. Smith
                              RHF Reference
                        6 Threads,  38146 MiB Core
         ---------------------------------------------------------

  ==> Geometry <==

    Molecular point group: c1
    Full point group: C1

    Geometry (in Angstrom), charge = 0, multiplicity = 1:

       Center              X                  Y                   Z               Mass       
    ------------   -----------------  -----------------  -----------------  -----------------
      Gh(C)           1.593957963406    -0.019701855460     0.122864050989    12.000000000000
      Gh(C)          -0.737728036594     1.374924144540     0.349126050989    12.000000000000
      Gh(S)           0.123446963406     0.346141144540    -0.860565949011    31.972071174400
      Gh(H)           1.319913963406    -0.548610855460     1.032906050989     1.007825032230
      Gh(H)           2.239651963406    -0.654056855460    -0.478909949011     1.007825032230
      Gh(H)           2.125053963406     0.898062144540     0.365239050989     1.007825032230
      Gh(H)          -0.944374036594     0.805818144540     1.252696050989     1.007825032230
      Gh(H)          -0.146181036594     2.256559144540     0.585540050989     1.007825032230
      Gh(H)          -1.677133036594     1.688524144540    -0.098792949011     1.007825032230
         O           -0.934990036594    -1.746229855460     1.125178050989    15.994914619570
         H           -0.760484036594    -1.316725855460     0.277148050989     1.007825032230
         H           -1.428671036594    -2.532957855460     0.887325050989     1.007825032230

  Running in c1 symmetry.

  Rotational constants: A =      0.19121  B =      0.11199  C =      0.09021 [cm^-1]
  Rotational constants: A =   5732.45282  B =   3357.35863  C =   2704.40090 [MHz]
  Nuclear repulsion =    9.144806870192893

  Charge       = 0
  Multiplicity = 1
  Electrons    = 10
  Nalpha       = 5
  Nbeta        = 5

  ==> Algorithm <==

  SCF Algorithm Type is DF.
  DIIS enabled.
  MOM disabled.
  Fractional occupation disabled.
  Guess Type is SAD.
  Energy threshold   = 1.00e-07
  Density threshold  = 1.00e-08
  Integral threshold = 0.00e+00

  ==> Primary Basis <==

  Basis Set: AUG-CC-PVTZ
    Blend: AUG-CC-PVTZ
    Number of shells: 130
    Number of basis function: 372
    Number of Cartesian functions: 424
    Spherical Harmonics?: true
    Max angular momentum: 3

   => Loading Basis Set <=

    Name: (AUG-CC-PVTZ AUX)
    Role: JKFIT
    Keyword: DF_BASIS_SCF
    atoms 1-2        entry C          line   162 file /home/liuchw/anaconda3/envs/psi4env/share/psi4/basis/aug-cc-pvtz-jkfit.gbs 
    atoms 3          entry S          line   730 file /home/liuchw/anaconda3/envs/psi4env/share/psi4/basis/aug-cc-pvtz-jkfit.gbs 
    atoms 4-9, 11-12 entry H          line    70 file /home/liuchw/anaconda3/envs/psi4env/share/psi4/basis/aug-cc-pvtz-jkfit.gbs 
    atoms 10         entry O          line   286 file /home/liuchw/anaconda3/envs/psi4env/share/psi4/basis/aug-cc-pvtz-jkfit.gbs 

  ==> Pre-Iterations <==

   -------------------------------------------------------
    Irrep   Nso     Nmo     Nalpha   Nbeta   Ndocc  Nsocc
   -------------------------------------------------------
     A        372     372       0       0       0       0
   -------------------------------------------------------
    Total     372     372       5       5       5       0
   -------------------------------------------------------

  ==> Integral Setup <==

  DFHelper Memory: AOs need 0.876 GiB; user supplied 27.940 GiB. Using in-core AOs.

  ==> MemDFJK: Density-Fitted J/K Matrices <==

    J tasked:                   Yes
    K tasked:                   Yes
    wK tasked:                   No
    OpenMP threads:               6
    Memory [MiB]:             28610
    Algorithm:                 Core
    Schwarz Cutoff:           1E-12
    Mask sparsity (%):       1.6808
    Fitting Condition:        1E-10

   => Auxiliary Basis Set <=

  Basis Set: (AUG-CC-PVTZ AUX)
    Blend: AUG-CC-PVTZ-JKFIT
    Number of shells: 244
    Number of basis function: 826
    Number of Cartesian functions: 1013
    Spherical Harmonics?: true
    Max angular momentum: 4

  Minimum eigenvalue in the overlap matrix is 2.1709216776E-05.
  Using Symmetric Orthogonalization.

  SCF Guess: Superposition of Atomic Densities via on-the-fly atomic UHF.

  ==> Iterations <==

                           Total Energy        Delta E     RMS |[F,P]|

   @DF-RHF iter SAD:   -75.47248359657739   -7.54725e+01   0.00000e+00 
   @DF-RHF iter   1:   -75.97566532535978   -5.03182e-01   1.25877e-03 DIIS
   @DF-RHF iter   2:   -76.02808419579573   -5.24189e-02   8.61514e-04 DIIS
   @DF-RHF iter   3:   -76.05979719382458   -3.17130e-02   5.85600e-05 DIIS
   @DF-RHF iter   4:   -76.06019027037426   -3.93077e-04   1.41235e-05 DIIS
   @DF-RHF iter   5:   -76.06021528008357   -2.50097e-05   3.21943e-06 DIIS
   @DF-RHF iter   6:   -76.06021733895801   -2.05887e-06   7.05721e-07 DIIS
   @DF-RHF iter   7:   -76.06021744765188   -1.08694e-07   1.26875e-07 DIIS
   @DF-RHF iter   8:   -76.06021745073363   -3.08175e-09   2.13073e-08 DIIS
   @DF-RHF iter   9:   -76.06021745080120   -6.75726e-11   5.25085e-09 DIIS
  Energy and wave function converged.


  ==> Post-Iterations <==

    Orbital Energies [Eh]
    ---------------------

    Doubly Occupied:                                                      

       1A    -20.568320     2A     -1.351220     3A     -0.713618  
       4A     -0.585066     5A     -0.510068  

    Virtual:                                                              

       6A      0.018682     7A      0.035645     8A      0.035863  
       9A      0.043647    10A      0.059544    11A      0.064145  
      12A      0.065385    13A      0.070760    14A      0.080827  
      15A      0.093923    16A      0.107977    17A      0.118179  
      18A      0.121703    19A      0.122329    20A      0.136793  
      21A      0.137987    22A      0.140728    23A      0.146646  
      24A      0.164760    25A      0.168822    26A      0.181997  
      27A      0.191894    28A      0.213934    29A      0.215668  
      30A      0.236983    31A      0.243351    32A      0.257739  
      33A      0.273356    34A      0.280351    35A      0.295698  
      36A      0.297123    37A      0.302969    38A      0.306137  
      39A      0.311358    40A      0.319444    41A      0.325146  
      42A      0.328683    43A      0.336959    44A      0.337330  
      45A      0.353076    46A      0.356046    47A      0.374518  
      48A      0.375383    49A      0.381380    50A      0.394554  
      51A      0.395458    52A      0.412576    53A      0.423405  
      54A      0.436108    55A      0.436813    56A      0.438095  
      57A      0.442343    58A      0.451877    59A      0.473864  
      60A      0.477379    61A      0.491238    62A      0.509070  
      63A      0.514948    64A      0.520073    65A      0.526765  
      66A      0.535001    67A      0.540115    68A      0.552229  
      69A      0.562757    70A      0.567136    71A      0.581782  
      72A      0.590146    73A      0.592911    74A      0.601355  
      75A      0.611965    76A      0.620277    77A      0.630626  
      78A      0.649543    79A      0.650472    80A      0.678231  
      81A      0.689582    82A      0.691464    83A      0.708717  
      84A      0.710860    85A      0.727572    86A      0.735939  
      87A      0.747754    88A      0.764241    89A      0.764495  
      90A      0.778772    91A      0.805175    92A      0.824089  
      93A      0.846326    94A      0.881773    95A      0.914480  
      96A      0.927083    97A      0.947890    98A      0.974532  
      99A      0.986858   100A      0.989414   101A      1.002429  
     102A      1.005996   103A      1.011084   104A      1.016262  
     105A      1.038577   106A      1.046016   107A      1.049612  
     108A      1.062042   109A      1.062651   110A      1.071941  
     111A      1.075073   112A      1.089546   113A      1.091466  
     114A      1.097862   115A      1.107472   116A      1.111336  
     117A      1.124105   118A      1.127545   119A      1.130448  
     120A      1.155994   121A      1.159191   122A      1.166538  
     123A      1.167849   124A      1.174709   125A      1.191420  
     126A      1.199192   127A      1.201844   128A      1.226381  
     129A      1.235381   130A      1.241490   131A      1.245155  
     132A      1.258348   133A      1.269002   134A      1.273230  
     135A      1.280245   136A      1.286506   137A      1.299719  
     138A      1.312494   139A      1.329939   140A      1.336027  
     141A      1.339860   142A      1.357665   143A      1.383645  
     144A      1.397139   145A      1.403619   146A      1.411383  
     147A      1.418748   148A      1.446694   149A      1.448080  
     150A      1.462523   151A      1.463513   152A      1.474640  
     153A      1.479612   154A      1.483598   155A      1.496104  
     156A      1.513073   157A      1.523388   158A      1.549474  
     159A      1.571494   160A      1.572456   161A      1.616730  
     162A      1.631733   163A      1.658727   164A      1.699647  
     165A      1.708884   166A      1.719862   167A      1.747141  
     168A      1.750623   169A      1.784864   170A      1.785849  
     171A      1.804471   172A      1.810469   173A      1.855929  
     174A      1.885746   175A      1.893157   176A      1.897883  
     177A      1.916299   178A      1.924338   179A      1.937939  
     180A      1.948662   181A      1.994949   182A      2.010281  
     183A      2.035452   184A      2.053175   185A      2.063077  
     186A      2.075657   187A      2.076227   188A      2.108789  
     189A      2.115252   190A      2.126528   191A      2.151014  
     192A      2.170362   193A      2.181403   194A      2.198549  
     195A      2.210200   196A      2.231598   197A      2.243262  
     198A      2.294394   199A      2.338974   200A      2.400870  
     201A      2.401534   202A      2.409786   203A      2.426752  
     204A      2.431092   205A      2.461488   206A      2.466567  
     207A      2.472511   208A      2.475394   209A      2.516525  
     210A      2.524588   211A      2.557373   212A      2.577935  
     213A      2.606164   214A      2.615916   215A      2.638684  
     216A      2.674135   217A      2.687599   218A      2.711077  
     219A      2.742742   220A      2.789586   221A      2.799498  
     222A      2.867409   223A      2.889731   224A      2.921683  
     225A      2.959619   226A      2.979046   227A      3.013439  
     228A      3.073624   229A      3.087651   230A      3.224764  
     231A      3.306774   232A      3.321298   233A      3.422508  
     234A      3.441820   235A      3.499966   236A      3.592966  
     237A      3.788160   238A      3.820776   239A      3.825027  
     240A      3.896680   241A      3.917365   242A      3.970647  
     243A      3.999080   244A      4.009910   245A      4.055363  
     246A      4.074777   247A      4.082194   248A      4.117234  
     249A      4.117623   250A      4.156790   251A      4.160037  
     252A      4.186583   253A      4.188587   254A      4.210673  
     255A      4.229683   256A      4.230213   257A      4.276783  
     258A      4.286946   259A      4.301736   260A      4.321651  
     261A      4.354611   262A      4.380194   263A      4.440574  
     264A      4.467498   265A      4.476304   266A      4.479692  
     267A      4.491845   268A      4.510868   269A      4.540902  
     270A      4.554966   271A      4.564894   272A      4.586078  
     273A      4.587784   274A      4.595199   275A      4.620424  
     276A      4.645962   277A      4.665193   278A      4.694684  
     279A      4.701077   280A      4.713863   281A      4.746679  
     282A      4.763979   283A      4.793474   284A      4.794462  
     285A      4.860343   286A      4.913506   287A      4.918192  
     288A      4.929559   289A      4.931928   290A      4.959126  
     291A      4.982079   292A      5.003177   293A      5.020905  
     294A      5.034070   295A      5.054985   296A      5.112479  
     297A      5.129445   298A      5.181816   299A      5.222310  
     300A      5.252709   301A      5.315172   302A      5.316160  
     303A      5.332576   304A      5.363455   305A      5.389082  
     306A      5.391056   307A      5.400242   308A      5.418541  
     309A      5.460712   310A      5.478798   311A      5.498202  
     312A      5.535118   313A      5.561476   314A      5.561796  
     315A      5.613594   316A      5.620885   317A      5.637586  
     318A      5.717348   319A      5.723242   320A      5.750326  
     321A      5.784539   322A      5.822754   323A      5.849141  
     324A      5.976717   325A      6.170220   326A      6.173972  
     327A      6.193756   328A      6.201088   329A      6.241754  
     330A      6.251055   331A      6.260426   332A      6.261549  
     333A      6.347451   334A      6.606547   335A      6.713703  
     336A      6.746673   337A      6.794455   338A      6.797534  
     339A      6.859079   340A      6.993970   341A      7.163767  
     342A      7.164375   343A      7.227713   344A      7.354910  
     345A      7.396458   346A      7.423681   347A      7.471022  
     348A      7.488932   349A      7.749893   350A      7.807891  
     351A      7.832098   352A      7.835680   353A      7.842918  
     354A      7.857978   355A      7.944287   356A      8.029710  
     357A      8.069796   358A      8.181405   359A      8.241487  
     360A      8.244551   361A      8.364122   362A      8.906871  
     363A     10.377269   364A     10.404808   365A     15.824068  
     366A     16.369847   367A     24.796592   368A     25.118352  
     369A     25.580197   370A     51.723137   371A     51.903540  
     372A    141.789776  

    Final Occupation by Irrep:
              A 
    DOCC [     5 ]

  @DF-RHF Final Energy:   -76.06021745080120

   => Energetics <=

    Nuclear Repulsion Energy =              9.1448068701928928
    One-Electron Energy =                -122.9534610395647007
    Two-Electron Energy =                  37.7484367185706020
    Total Energy =                        -76.0602174508012041

Computation Completed


Properties will be evaluated at   0.000000,   0.000000,   0.000000 [a0]

Properties computed using the SCF density matrix

  Nuclear Dipole Moment: [e a0]
     X:   -18.2719      Y:   -33.6740      Z:    19.2108

  Electronic Dipole Moment: [e a0]
     X:    18.0601      Y:    33.4366      Z:   -19.9290

  Dipole Moment: [e a0]
     X:    -0.2118      Y:    -0.2374      Z:    -0.7182     Total:     0.7856

  Dipole Moment: [D]
     X:    -0.5383      Y:    -0.6034      Z:    -1.8256     Total:     1.9967


*** tstop() called on node36.bme.utexas.edu at Sat Apr 11 16:42:26 2020
Module time:
	user time   =      32.60 seconds =       0.54 minutes
	system time =       1.09 seconds =       0.02 minutes
	total time  =          7 seconds =       0.12 minutes
Total time:
	user time   =      56.80 seconds =       0.95 minutes
	system time =       2.70 seconds =       0.04 minutes
	total time  =         13 seconds =       0.22 minutes

*** tstart() called on node36.bme.utexas.edu
*** at Sat Apr 11 16:42:26 2020


  //>>>>>>>>>>>>>>>>>>>>>>>>>>>>>>>>>>>//
  //               DFMP2               //
  //<<<<<<<<<<<<<<<<<<<<<<<<<<<<<<<<<<<//

   => Loading Basis Set <=

    Name: (AUG-CC-PVTZ AUX)
    Role: RIFIT
    Keyword: DF_BASIS_MP2
    atoms 1-2        entry C          line   148 file /home/liuchw/anaconda3/envs/psi4env/share/psi4/basis/aug-cc-pvtz-ri.gbs 
    atoms 3          entry S          line   666 file /home/liuchw/anaconda3/envs/psi4env/share/psi4/basis/aug-cc-pvtz-ri.gbs 
    atoms 4-9, 11-12 entry H          line    30 file /home/liuchw/anaconda3/envs/psi4env/share/psi4/basis/aug-cc-pvtz-ri.gbs 
    atoms 10         entry O          line   264 file /home/liuchw/anaconda3/envs/psi4env/share/psi4/basis/aug-cc-pvtz-ri.gbs 

	 --------------------------------------------------------
	                          DF-MP2                         
	      2nd-Order Density-Fitted Moller-Plesset Theory     
	              RMP2 Wavefunction,   6 Threads             
	                                                         
	        Rob Parrish, Justin Turney, Andy Simmonett,      
	           Ed Hohenstein, and C. David Sherrill          
	 --------------------------------------------------------

   => Auxiliary Basis Set <=

  Basis Set: (AUG-CC-PVTZ AUX)
    Blend: AUG-CC-PVTZ-RI
    Number of shells: 233
    Number of basis function: 833
    Number of Cartesian functions: 1039
    Spherical Harmonics?: true
    Max angular momentum: 4

	 --------------------------------------------------------
	                 NBF =   372, NAUX =   833
	 --------------------------------------------------------
	   CLASS    FOCC     OCC    AOCC    AVIR     VIR    FVIR
	   PAIRS       0       5       5     367     367       0
	 --------------------------------------------------------

	-----------------------------------------------------------
	 ==================> DF-MP2 Energies <==================== 
	-----------------------------------------------------------
	 Reference Energy          =     -76.0602174508012041 [Eh]
	 Singles Energy            =      -0.0000000000000000 [Eh]
	 Same-Spin Energy          =      -0.0685188016407932 [Eh]
	 Opposite-Spin Energy      =      -0.2162362990463564 [Eh]
	 Correlation Energy        =      -0.2847551006871496 [Eh]
	 Total Energy              =     -76.3449725514883539 [Eh]
	-----------------------------------------------------------
	 ================> DF-SCS-MP2 Energies <================== 
	-----------------------------------------------------------
	 SCS Same-Spin Scale       =       0.3333333333333333 [-]
	 SCS Opposite-Spin Scale   =       1.2000000000000000 [-]
	 SCS Same-Spin Energy      =      -0.0228396005469311 [Eh]
	 SCS Opposite-Spin Energy  =      -0.2594835588556276 [Eh]
	 SCS Correlation Energy    =      -0.2823231594025587 [Eh]
	 SCS Total Energy          =     -76.3425406102037698 [Eh]
	-----------------------------------------------------------


*** tstop() called on node36.bme.utexas.edu at Sat Apr 11 16:42:29 2020
Module time:
	user time   =      15.15 seconds =       0.25 minutes
	system time =       0.56 seconds =       0.01 minutes
	total time  =          3 seconds =       0.05 minutes
Total time:
	user time   =      71.96 seconds =       1.20 minutes
	system time =       3.27 seconds =       0.05 minutes
	total time  =         16 seconds =       0.27 minutes

  //>>>>>>>>>>>>>>>>>>>>>>>>>>>>>>>>>>>>//
  // CBS Computation: MP2 / AUG-CC-PVQZ //
  //<<<<<<<<<<<<<<<<<<<<<<<<<<<<<<<<<<<<//


Scratch directory: /scratch//

*** tstart() called on node36.bme.utexas.edu
*** at Sat Apr 11 16:42:29 2020

   => Loading Basis Set <=

    Name: AUG-CC-PVQZ
    Role: ORBITAL
    Keyword: BASIS
    atoms 1-2        entry C          line   303 file /home/liuchw/anaconda3/envs/psi4env/share/psi4/basis/aug-cc-pvqz.gbs 
    atoms 3          entry S          line  1126 file /home/liuchw/anaconda3/envs/psi4env/share/psi4/basis/aug-cc-pvqz.gbs 
    atoms 4-9, 11-12 entry H          line    40 file /home/liuchw/anaconda3/envs/psi4env/share/psi4/basis/aug-cc-pvqz.gbs 
    atoms 10         entry O          line   423 file /home/liuchw/anaconda3/envs/psi4env/share/psi4/basis/aug-cc-pvqz.gbs 


         ---------------------------------------------------------
                                   SCF
               by Justin Turney, Rob Parrish, Andy Simmonett
                          and Daniel G. A. Smith
                              RHF Reference
                        6 Threads,  38146 MiB Core
         ---------------------------------------------------------

  ==> Geometry <==

    Molecular point group: c1
    Full point group: C1

    Geometry (in Angstrom), charge = 0, multiplicity = 1:

       Center              X                  Y                   Z               Mass       
    ------------   -----------------  -----------------  -----------------  -----------------
      Gh(C)           1.593957963406    -0.019701855460     0.122864050989    12.000000000000
      Gh(C)          -0.737728036594     1.374924144540     0.349126050989    12.000000000000
      Gh(S)           0.123446963406     0.346141144540    -0.860565949011    31.972071174400
      Gh(H)           1.319913963406    -0.548610855460     1.032906050989     1.007825032230
      Gh(H)           2.239651963406    -0.654056855460    -0.478909949011     1.007825032230
      Gh(H)           2.125053963406     0.898062144540     0.365239050989     1.007825032230
      Gh(H)          -0.944374036594     0.805818144540     1.252696050989     1.007825032230
      Gh(H)          -0.146181036594     2.256559144540     0.585540050989     1.007825032230
      Gh(H)          -1.677133036594     1.688524144540    -0.098792949011     1.007825032230
         O           -0.934990036594    -1.746229855460     1.125178050989    15.994914619570
         H           -0.760484036594    -1.316725855460     0.277148050989     1.007825032230
         H           -1.428671036594    -2.532957855460     0.887325050989     1.007825032230

  Running in c1 symmetry.

  Rotational constants: A =      0.19121  B =      0.11199  C =      0.09021 [cm^-1]
  Rotational constants: A =   5732.45282  B =   3357.35863  C =   2704.40090 [MHz]
  Nuclear repulsion =    9.144806870192893

  Charge       = 0
  Multiplicity = 1
  Electrons    = 10
  Nalpha       = 5
  Nbeta        = 5

  ==> Algorithm <==

  SCF Algorithm Type is DF.
  DIIS enabled.
  MOM disabled.
  Fractional occupation disabled.
  Guess Type is SAD.
  Energy threshold   = 1.00e-07
  Density threshold  = 1.00e-08
  Integral threshold = 0.00e+00

  ==> Primary Basis <==

  Basis Set: AUG-CC-PVQZ
    Blend: AUG-CC-PVQZ
    Number of shells: 194
    Number of basis function: 692
    Number of Cartesian functions: 864
    Spherical Harmonics?: true
    Max angular momentum: 4

   => Loading Basis Set <=

    Name: (AUG-CC-PVQZ AUX)
    Role: JKFIT
    Keyword: DF_BASIS_SCF
    atoms 1-2        entry C          line   178 file /home/liuchw/anaconda3/envs/psi4env/share/psi4/basis/aug-cc-pvqz-jkfit.gbs 
    atoms 3          entry S          line   810 file /home/liuchw/anaconda3/envs/psi4env/share/psi4/basis/aug-cc-pvqz-jkfit.gbs 
    atoms 4-9, 11-12 entry H          line    70 file /home/liuchw/anaconda3/envs/psi4env/share/psi4/basis/aug-cc-pvqz-jkfit.gbs 
    atoms 10         entry O          line   318 file /home/liuchw/anaconda3/envs/psi4env/share/psi4/basis/aug-cc-pvqz-jkfit.gbs 

  ==> Pre-Iterations <==

   -------------------------------------------------------
    Irrep   Nso     Nmo     Nalpha   Nbeta   Ndocc  Nsocc
   -------------------------------------------------------
     A        692     692       0       0       0       0
   -------------------------------------------------------
    Total     692     692       5       5       5       0
   -------------------------------------------------------

  ==> Integral Setup <==

  DFHelper Memory: AOs need 4.304 GiB; user supplied 27.940 GiB. Using in-core AOs.

  ==> MemDFJK: Density-Fitted J/K Matrices <==

    J tasked:                   Yes
    K tasked:                   Yes
    wK tasked:                   No
    OpenMP threads:               6
    Memory [MiB]:             28610
    Algorithm:                 Core
    Schwarz Cutoff:           1E-12
    Mask sparsity (%):       4.4033
    Fitting Condition:        1E-10

   => Auxiliary Basis Set <=

  Basis Set: (AUG-CC-PVQZ AUX)
    Blend: AUG-CC-PVQZ-JKFIT
    Number of shells: 292
    Number of basis function: 1218
    Number of Cartesian functions: 1649
    Spherical Harmonics?: true
    Max angular momentum: 5

  Minimum eigenvalue in the overlap matrix is 5.1705618459E-06.
  Using Symmetric Orthogonalization.

  SCF Guess: Superposition of Atomic Densities via on-the-fly atomic UHF.

  ==> Iterations <==

                           Total Energy        Delta E     RMS |[F,P]|

   @DF-RHF iter SAD:   -75.47762005985567   -7.54776e+01   0.00000e+00 
   @DF-RHF iter   1:   -75.98069119613196   -5.03071e-01   6.78087e-04 DIIS
   @DF-RHF iter   2:   -76.03320102622507   -5.25098e-02   4.65108e-04 DIIS
   @DF-RHF iter   3:   -76.06511020647105   -3.19092e-02   3.17152e-05 DIIS
   @DF-RHF iter   4:   -76.06550529250045   -3.95086e-04   7.81491e-06 DIIS
   @DF-RHF iter   5:   -76.06553117319262   -2.58807e-05   1.77543e-06 DIIS
   @DF-RHF iter   6:   -76.06553331236968   -2.13918e-06   3.99475e-07 DIIS
   @DF-RHF iter   7:   -76.06553343234361   -1.19974e-07   7.41388e-08 DIIS
   @DF-RHF iter   8:   -76.06553343597074   -3.62712e-09   1.19898e-08 DIIS
   @DF-RHF iter   9:   -76.06553343604806   -7.73213e-11   2.88379e-09 DIIS
  Energy and wave function converged.


  ==> Post-Iterations <==

    Orbital Energies [Eh]
    ---------------------

    Doubly Occupied:                                                      

       1A    -20.565921     2A     -1.350529     3A     -0.713619  
       4A     -0.585154     5A     -0.510219  

    Virtual:                                                              

       6A      0.016674     7A      0.032177     8A      0.032184  
       9A      0.039089    10A      0.053755    11A      0.057956  
      12A      0.059129    13A      0.063867    14A      0.070851  
      15A      0.082096    16A      0.094641    17A      0.102641  
      18A      0.105956    19A      0.106503    20A      0.118025  
      21A      0.119789    22A      0.121461    23A      0.126078  
      24A      0.141667    25A      0.142892    26A      0.159471  
      27A      0.163682    28A      0.181184    29A      0.182788  
      30A      0.199675    31A      0.208861    32A      0.213424  
      33A      0.230672    34A      0.235004    35A      0.244513  
      36A      0.248886    37A      0.251043    38A      0.255481  
      39A      0.261696    40A      0.267493    41A      0.271623  
      42A      0.274182    43A      0.274508    44A      0.281307  
      45A      0.288251    46A      0.298115    47A      0.301506  
      48A      0.308841    49A      0.309731    50A      0.322766  
      51A      0.324758    52A      0.335222    53A      0.336714  
      54A      0.352541    55A      0.359620    56A      0.363807  
      57A      0.367142    58A      0.367891    59A      0.377031  
      60A      0.380581    61A      0.392832    62A      0.401534  
      63A      0.414774    64A      0.417721    65A      0.428507  
      66A      0.431209    67A      0.432751    68A      0.440016  
      69A      0.451768    70A      0.456325    71A      0.469988  
      72A      0.470593    73A      0.481219    74A      0.485174  
      75A      0.488606    76A      0.493504    77A      0.511531  
      78A      0.521445    79A      0.524245    80A      0.528976  
      81A      0.533279    82A      0.539000    83A      0.552613  
      84A      0.554817    85A      0.566573    86A      0.592687  
      87A      0.598387    88A      0.603079    89A      0.611525  
      90A      0.616314    91A      0.619619    92A      0.626462  
      93A      0.644791    94A      0.661050    95A      0.672707  
      96A      0.689881    97A      0.701555    98A      0.712336  
      99A      0.720762   100A      0.726872   101A      0.733752  
     102A      0.741539   103A      0.751780   104A      0.757423  
     105A      0.766927   106A      0.776603   107A      0.777061  
     108A      0.787340   109A      0.793685   110A      0.799199  
     111A      0.804887   112A      0.814820   113A      0.817225  
     114A      0.822456   115A      0.834691   116A      0.835606  
     117A      0.844958   118A      0.854990   119A      0.857470  
     120A      0.869066   121A      0.873644   122A      0.881663  
     123A      0.887878   124A      0.904282   125A      0.906573  
     126A      0.914864   127A      0.921521   128A      0.925216  
     129A      0.929838   130A      0.941056   131A      0.941759  
     132A      0.949561   133A      0.959156   134A      0.961165  
     135A      0.976675   136A      0.977471   137A      0.983173  
     138A      0.995143   139A      1.000679   140A      1.009976  
     141A      1.017490   142A      1.032748   143A      1.036031  
     144A      1.044326   145A      1.044800   146A      1.057600  
     147A      1.081633   148A      1.083244   149A      1.086688  
     150A      1.095331   151A      1.105196   152A      1.107835  
     153A      1.127294   154A      1.135028   155A      1.136571  
     156A      1.138818   157A      1.157363   158A      1.177852  
     159A      1.185576   160A      1.194622   161A      1.197183  
     162A      1.215921   163A      1.244299   164A      1.246771  
     165A      1.264867   166A      1.265610   167A      1.280621  
     168A      1.290593   169A      1.303977   170A      1.313837  
     171A      1.314925   172A      1.343214   173A      1.350373  
     174A      1.352115   175A      1.388095   176A      1.396865  
     177A      1.407699   178A      1.419492   179A      1.425529  
     180A      1.455114   181A      1.456530   182A      1.457970  
     183A      1.475777   184A      1.483064   185A      1.495155  
     186A      1.519619   187A      1.535295   188A      1.548019  
     189A      1.563047   190A      1.563062   191A      1.567821  
     192A      1.594031   193A      1.617719   194A      1.619460  
     195A      1.625712   196A      1.627983   197A      1.635301  
     198A      1.647470   199A      1.660601   200A      1.664923  
     201A      1.670352   202A      1.687693   203A      1.690680  
     204A      1.695012   205A      1.700260   206A      1.722546  
     207A      1.728042   208A      1.751616   209A      1.766986  
     210A      1.782805   211A      1.788820   212A      1.791111  
     213A      1.798180   214A      1.800480   215A      1.814270  
     216A      1.816596   217A      1.829163   218A      1.841883  
     219A      1.849579   220A      1.859979   221A      1.874563  
     222A      1.879454   223A      1.883603   224A      1.894588  
     225A      1.908279   226A      1.930437   227A      1.933381  
     228A      1.935053   229A      1.943125   230A      1.958071  
     231A      1.969052   232A      1.970999   233A      1.992342  
     234A      1.993977   235A      2.013300   236A      2.016321  
     237A      2.024576   238A      2.042336   239A      2.050932  
     240A      2.060313   241A      2.062716   242A      2.086998  
     243A      2.095982   244A      2.100064   245A      2.108794  
     246A      2.124219   247A      2.128758   248A      2.134971  
     249A      2.137744   250A      2.143883   251A      2.150162  
     252A      2.162001   253A      2.167730   254A      2.176323  
     255A      2.196957   256A      2.199967   257A      2.211517  
     258A      2.216746   259A      2.217692   260A      2.229282  
     261A      2.254503   262A      2.255564   263A      2.271449  
     264A      2.274235   265A      2.280310   266A      2.286547  
     267A      2.312368   268A      2.315149   269A      2.327795  
     270A      2.342472   271A      2.362297   272A      2.373530  
     273A      2.375297   274A      2.376677   275A      2.409043  
     276A      2.413849   277A      2.425275   278A      2.426303  
     279A      2.441201   280A      2.446944   281A      2.468367  
     282A      2.476940   283A      2.485423   284A      2.513966  
     285A      2.514503   286A      2.527765   287A      2.538479  
     288A      2.559036   289A      2.565314   290A      2.574129  
     291A      2.578014   292A      2.591653   293A      2.615486  
     294A      2.630624   295A      2.638303   296A      2.654466  
     297A      2.665596   298A      2.674577   299A      2.706574  
     300A      2.728838   301A      2.743649   302A      2.744952  
     303A      2.761634   304A      2.775819   305A      2.779073  
     306A      2.799051   307A      2.802572   308A      2.809830  
     309A      2.835639   310A      2.842396   311A      2.874347  
     312A      2.887565   313A      2.895270   314A      2.927286  
     315A      2.938047   316A      2.950882   317A      2.959027  
     318A      2.967087   319A      2.975477   320A      2.991359  
     321A      3.018284   322A      3.020466   323A      3.057793  
     324A      3.068106   325A      3.080897   326A      3.097006  
     327A      3.127506   328A      3.147997   329A      3.153035  
     330A      3.166009   331A      3.187498   332A      3.192357  
     333A      3.208837   334A      3.211489   335A      3.219815  
     336A      3.224611   337A      3.255765   338A      3.261498  
     339A      3.273369   340A      3.277991   341A      3.306892  
     342A      3.311796   343A      3.342030   344A      3.358297  
     345A      3.374266   346A      3.408749   347A      3.422216  
     348A      3.433681   349A      3.435757   350A      3.440463  
     351A      3.452982   352A      3.465437   353A      3.469730  
     354A      3.484425   355A      3.511874   356A      3.523805  
     357A      3.541965   358A      3.571813   359A      3.587627  
     360A      3.605435   361A      3.612692   362A      3.625595  
     363A      3.661710   364A      3.663350   365A      3.686149  
     366A      3.694626   367A      3.724370   368A      3.741756  
     369A      3.768932   370A      3.769682   371A      3.794811  
     372A      3.796918   373A      3.808646   374A      3.845149  
     375A      3.876541   376A      3.904076   377A      3.915465  
     378A      3.925319   379A      3.938352   380A      3.946753  
     381A      3.977415   382A      3.997969   383A      3.999878  
     384A      4.052679   385A      4.058972   386A      4.067380  
     387A      4.074951   388A      4.089601   389A      4.103276  
     390A      4.109704   391A      4.143809   392A      4.180712  
     393A      4.188811   394A      4.210009   395A      4.226462  
     396A      4.230849   397A      4.241322   398A      4.260779  
     399A      4.281441   400A      4.297862   401A      4.298037  
     402A      4.328212   403A      4.335328   404A      4.345704  
     405A      4.381087   406A      4.382141   407A      4.419152  
     408A      4.424648   409A      4.441384   410A      4.479470  
     411A      4.511359   412A      4.522292   413A      4.542198  
     414A      4.572809   415A      4.588069   416A      4.631470  
     417A      4.758484   418A      4.791599   419A      4.796140  
     420A      4.805674   421A      4.806206   422A      4.816226  
     423A      4.851469   424A      4.857309   425A      4.902266  
     426A      4.902354   427A      4.937872   428A      4.949892  
     429A      4.970456   430A      5.008464   431A      5.019234  
     432A      5.035080   433A      5.037098   434A      5.055835  
     435A      5.081735   436A      5.088628   437A      5.118666  
     438A      5.148016   439A      5.156035   440A      5.180701  
     441A      5.183243   442A      5.224519   443A      5.251669  
     444A      5.254315   445A      5.294112   446A      5.303364  
     447A      5.383581   448A      5.388263   449A      5.431417  
     450A      5.439178   451A      5.488992   452A      5.491512  
     453A      5.530685   454A      5.540953   455A      5.562699  
     456A      5.576466   457A      5.596436   458A      5.636560  
     459A      5.639781   460A      5.676920   461A      5.731449  
     462A      5.764733   463A      5.815782   464A      5.839733  
     465A      5.916748   466A      5.951644   467A      5.975333  
     468A      6.020432   469A      6.088193   470A      6.146008  
     471A      6.195079   472A      6.324953   473A      6.554329  
     474A      6.699617   475A      6.723462   476A      6.733286  
     477A      6.807145   478A      6.827178   479A      6.873425  
     480A      6.899865   481A      6.919605   482A      6.937996  
     483A      6.949811   484A      6.970278   485A      6.976652  
     486A      6.985464   487A      7.005983   488A      7.045526  
     489A      7.073834   490A      7.089364   491A      7.111917  
     492A      7.144109   493A      7.147137   494A      7.178631  
     495A      7.181922   496A      7.217225   497A      7.232246  
     498A      7.241158   499A      7.309024   500A      7.323034  
     501A      7.334966   502A      7.346345   503A      7.363628  
     504A      7.370472   505A      7.408033   506A      7.445571  
     507A      7.469882   508A      7.504479   509A      7.506506  
     510A      7.553550   511A      7.557917   512A      7.577160  
     513A      7.609669   514A      7.686498   515A      7.694324  
     516A      7.748943   517A      7.779141   518A      7.790717  
     519A      7.810546   520A      7.824901   521A      7.853412  
     522A      7.862685   523A      7.905611   524A      7.915448  
     525A      7.949327   526A      7.958655   527A      7.978459  
     528A      7.986814   529A      8.021699   530A      8.034448  
     531A      8.046179   532A      8.056872   533A      8.089518  
     534A      8.092290   535A      8.099438   536A      8.104268  
     537A      8.117350   538A      8.124158   539A      8.145855  
     540A      8.171333   541A      8.209194   542A      8.277790  
     543A      8.363079   544A      8.400992   545A      8.426820  
     546A      8.512957   547A      8.564539   548A      8.602828  
     549A      8.606550   550A      8.627187   551A      8.661316  
     552A      8.710226   553A      8.814656   554A      8.823256  
     555A      8.829694   556A      8.836748   557A      8.851963  
     558A      8.868931   559A      8.878396   560A      8.903006  
     561A      8.922874   562A      8.946253   563A      8.986849  
     564A      9.037326   565A      9.063471   566A      9.070920  
     567A      9.158637   568A      9.188471   569A      9.217394  
     570A      9.266159   571A      9.340319   572A      9.369118  
     573A      9.401222   574A      9.423269   575A      9.456731  
     576A      9.483150   577A      9.540596   578A      9.570306  
     579A      9.603141   580A      9.626558   581A      9.684987  
     582A      9.690182   583A      9.727083   584A      9.731954  
     585A      9.758859   586A      9.768664   587A      9.777992  
     588A      9.825373   589A      9.829128   590A      9.835163  
     591A      9.855152   592A      9.855562   593A      9.885975  
     594A      9.905058   595A      9.907924   596A      9.934939  
     597A      9.948412   598A      9.949116   599A     10.072781  
     600A     10.087938   601A     10.102994   602A     10.118498  
     603A     10.120019   604A     10.142722   605A     10.174710  
     606A     10.217194   607A     10.346443   608A     10.388602  
     609A     10.392925   610A     10.426937   611A     10.458023  
     612A     10.525385   613A     10.533209   614A     10.593932  
     615A     10.653755   616A     10.722913   617A     10.734705  
     618A     10.739555   619A     10.754097   620A     10.804480  
     621A     10.807735   622A     10.838144   623A     10.840080  
     624A     10.860442   625A     10.874618   626A     10.905968  
     627A     10.935645   628A     10.976893   629A     11.115596  
     630A     11.171692   631A     11.174180   632A     11.253216  
     633A     11.300993   634A     11.323231   635A     11.344969  
     636A     11.370427   637A     11.380215   638A     11.409986  
     639A     11.461604   640A     11.469001   641A     11.483119  
     642A     11.495937   643A     11.527473   644A     11.887064  
     645A     11.963819   646A     12.030074   647A     12.077653  
     648A     12.097469   649A     12.109336   650A     12.211900  
     651A     12.215028   652A     12.286100   653A     12.327737  
     654A     12.351268   655A     12.360848   656A     12.366232  
     657A     12.419208   658A     12.794643   659A     12.870686  
     660A     12.914014   661A     13.052444   662A     13.198046  
     663A     13.256796   664A     13.285724   665A     13.324492  
     666A     13.338825   667A     13.645944   668A     13.760841  
     669A     14.011699   670A     14.274197   671A     14.513743  
     672A     14.819326   673A     14.841021   674A     14.923556  
     675A     14.939161   676A     15.305210   677A     16.552271  
     678A     16.692067   679A     17.051641   680A     17.419077  
     681A     17.464830   682A     17.504038   683A     17.530570  
     684A     17.573269   685A     25.774932   686A     25.823629  
     687A     25.843884   688A     36.596612   689A     45.951211  
     690A     71.716997   691A     71.806229   692A    141.551585  

    Final Occupation by Irrep:
              A 
    DOCC [     5 ]

  @DF-RHF Final Energy:   -76.06553343604806

   => Energetics <=

    Nuclear Repulsion Energy =              9.1448068701928928
    One-Electron Energy =                -122.9697922575934967
    Two-Electron Energy =                  37.7594519513525455
    Total Energy =                        -76.0655334360480566

Computation Completed


Properties will be evaluated at   0.000000,   0.000000,   0.000000 [a0]

Properties computed using the SCF density matrix

  Nuclear Dipole Moment: [e a0]
     X:   -18.2719      Y:   -33.6740      Z:    19.2108

  Electronic Dipole Moment: [e a0]
     X:    18.0602      Y:    33.4367      Z:   -19.9283

  Dipole Moment: [e a0]
     X:    -0.2117      Y:    -0.2373      Z:    -0.7175     Total:     0.7848

  Dipole Moment: [D]
     X:    -0.5380      Y:    -0.6032      Z:    -1.8238     Total:     1.9949


*** tstop() called on node36.bme.utexas.edu at Sat Apr 11 16:42:56 2020
Module time:
	user time   =     140.82 seconds =       2.35 minutes
	system time =       3.83 seconds =       0.06 minutes
	total time  =         27 seconds =       0.45 minutes
Total time:
	user time   =     212.83 seconds =       3.55 minutes
	system time =       7.10 seconds =       0.12 minutes
	total time  =         43 seconds =       0.72 minutes

*** tstart() called on node36.bme.utexas.edu
*** at Sat Apr 11 16:42:56 2020


  //>>>>>>>>>>>>>>>>>>>>>>>>>>>>>>>>>>>//
  //               DFMP2               //
  //<<<<<<<<<<<<<<<<<<<<<<<<<<<<<<<<<<<//

   => Loading Basis Set <=

    Name: (AUG-CC-PVQZ AUX)
    Role: RIFIT
    Keyword: DF_BASIS_MP2
    atoms 1-2        entry C          line   184 file /home/liuchw/anaconda3/envs/psi4env/share/psi4/basis/aug-cc-pvqz-ri.gbs 
    atoms 3          entry S          line   824 file /home/liuchw/anaconda3/envs/psi4env/share/psi4/basis/aug-cc-pvqz-ri.gbs 
    atoms 4-9, 11-12 entry H          line    30 file /home/liuchw/anaconda3/envs/psi4env/share/psi4/basis/aug-cc-pvqz-ri.gbs 
    atoms 10         entry O          line   332 file /home/liuchw/anaconda3/envs/psi4env/share/psi4/basis/aug-cc-pvqz-ri.gbs 

	 --------------------------------------------------------
	                          DF-MP2                         
	      2nd-Order Density-Fitted Moller-Plesset Theory     
	              RMP2 Wavefunction,   6 Threads             
	                                                         
	        Rob Parrish, Justin Turney, Andy Simmonett,      
	           Ed Hohenstein, and C. David Sherrill          
	 --------------------------------------------------------

   => Auxiliary Basis Set <=

  Basis Set: (AUG-CC-PVQZ AUX)
    Blend: AUG-CC-PVQZ-RI
    Number of shells: 312
    Number of basis function: 1338
    Number of Cartesian functions: 1819
    Spherical Harmonics?: true
    Max angular momentum: 5

	 --------------------------------------------------------
	                 NBF =   692, NAUX =  1338
	 --------------------------------------------------------
	   CLASS    FOCC     OCC    AOCC    AVIR     VIR    FVIR
	   PAIRS       0       5       5     687     687       0
	 --------------------------------------------------------

	-----------------------------------------------------------
	 ==================> DF-MP2 Energies <==================== 
	-----------------------------------------------------------
	 Reference Energy          =     -76.0655334360480566 [Eh]
	 Singles Energy            =      -0.0000000000000000 [Eh]
	 Same-Spin Energy          =      -0.0727979523051051 [Eh]
	 Opposite-Spin Energy      =      -0.2447054059280410 [Eh]
	 Correlation Energy        =      -0.3175033582331461 [Eh]
	 Total Energy              =     -76.3830367942811961 [Eh]
	-----------------------------------------------------------
	 ================> DF-SCS-MP2 Energies <================== 
	-----------------------------------------------------------
	 SCS Same-Spin Scale       =       0.3333333333333333 [-]
[...]
     239A      1.852866   240A      1.858674   241A      1.861164  
     242A      1.874151   243A      1.876070   244A      1.888399  
     245A      1.893326   246A      1.899147   247A      1.928776  
     248A      1.930879   249A      1.947387   250A      1.954290  
     251A      1.954474   252A      1.973995   253A      1.978081  
     254A      1.984727   255A      1.995106   256A      1.997436  
     257A      2.013667   258A      2.016104   259A      2.020549  
     260A      2.037108   261A      2.049944   262A      2.054225  
     263A      2.068721   264A      2.075872   265A      2.084089  
     266A      2.084202   267A      2.104850   268A      2.121936  
     269A      2.122815   270A      2.135943   271A      2.138172  
     272A      2.146237   273A      2.152427   274A      2.164521  
     275A      2.171551   276A      2.189030   277A      2.191907  
     278A      2.194181   279A      2.205664   280A      2.210062  
     281A      2.216873   282A      2.238724   283A      2.243779  
     284A      2.245949   285A      2.247477   286A      2.262498  
     287A      2.264177   288A      2.264807   289A      2.290141  
     290A      2.291494   291A      2.300496   292A      2.312690  
     293A      2.318953   294A      2.335159   295A      2.336111  
     296A      2.354185   297A      2.361206   298A      2.366496  
     299A      2.373811   300A      2.381841   301A      2.390816  
     302A      2.407977   303A      2.423638   304A      2.432380  
     305A      2.455462   306A      2.465976   307A      2.470533  
     308A      2.482551   309A      2.498066   310A      2.515629  
     311A      2.543698   312A      2.545107   313A      2.557610  
     314A      2.569960   315A      2.592647   316A      2.596850  
     317A      2.614633   318A      2.617986   319A      2.636390  
     320A      2.641243   321A      2.676494   322A      2.689989  
     323A      2.690002   324A      2.713253   325A      2.753987  
     326A      2.768019   327A      2.777518   328A      2.788044  
     329A      2.792644   330A      2.805448   331A      2.834162  
     332A      2.835555   333A      2.844876   334A      2.845980  
     335A      2.863740   336A      2.883701   337A      2.897184  
     338A      2.915762   339A      2.931961   340A      2.936694  
     341A      2.940504   342A      2.977839   343A      2.984719  
     344A      3.001152   345A      3.004493   346A      3.011613  
     347A      3.020433   348A      3.025344   349A      3.055007  
     350A      3.074847   351A      3.106408   352A      3.129079  
     353A      3.137062   354A      3.153348   355A      3.153972  
     356A      3.156192   357A      3.183182   358A      3.185891  
     359A      3.190970   360A      3.209791   361A      3.225064  
     362A      3.236931   363A      3.241112   364A      3.248260  
     365A      3.260258   366A      3.284723   367A      3.292519  
     368A      3.310733   369A      3.339508   370A      3.354867  
     371A      3.369637   372A      3.401053   373A      3.412704  
     374A      3.433981   375A      3.451056   376A      3.461597  
     377A      3.482196   378A      3.492255   379A      3.502958  
     380A      3.563753   381A      3.580265   382A      3.603219  
     383A      3.609486   384A      3.622057   385A      3.677441  
     386A      3.678211   387A      3.707631   388A      3.717864  
     389A      3.742876   390A      3.767649   391A      3.771073  
     392A      3.796424   393A      3.815375   394A      3.835999  
     395A      3.841269   396A      3.856388   397A      3.865446  
     398A      3.910537   399A      3.925148   400A      3.943524  
     401A      3.945523   402A      3.949745   403A      3.990486  
     404A      3.998565   405A      3.999411   406A      4.024100  
     407A      4.052983   408A      4.073171   409A      4.093285  
     410A      4.095691   411A      4.121407   412A      4.132995  
     413A      4.146930   414A      4.146976   415A      4.180893  
     416A      4.192374   417A      4.213783   418A      4.236969  
     419A      4.241636   420A      4.242288   421A      4.248634  
     422A      4.256931   423A      4.264417   424A      4.282518  
     425A      4.301496   426A      4.320877   427A      4.321199  
     428A      4.339347   429A      4.347521   430A      4.364344  
     431A      4.404049   432A      4.418322   433A      4.444971  
     434A      4.446489   435A      4.458799   436A      4.486647  
     437A      4.504345   438A      4.511621   439A      4.533281  
     440A      4.537884   441A      4.552843   442A      4.580108  
     443A      4.603860   444A      4.605108   445A      4.643426  
     446A      4.659052   447A      4.687489   448A      4.697829  
     449A      4.704016   450A      4.704126   451A      4.735045  
     452A      4.739013   453A      4.761184   454A      4.770970  
     455A      4.821938   456A      4.828090   457A      4.843327  
     458A      4.884477   459A      4.904109   460A      4.949621  
     461A      4.959191   462A      4.998606   463A      5.036867  
     464A      5.062836   465A      5.093120   466A      5.097140  
     467A      5.120699   468A      5.144515   469A      5.184716  
     470A      5.198559   471A      5.224666   472A      5.256319  
     473A      5.288038   474A      5.320714   475A      5.338417  
     476A      5.345730   477A      5.388751   478A      5.577403  
     479A      5.606602   480A      5.737198   481A      5.805188  
     482A      6.070300   483A      6.134859   484A      6.198951  
     485A      6.214564   486A      6.221405   487A      6.262457  
     488A      6.288689   489A      6.290070   490A      6.335489  
     491A      6.370529   492A      6.423609   493A      6.426759  
     494A      6.442162   495A      6.518834   496A      6.583630  
     497A      6.602964   498A      6.603744   499A      6.649181  
     500A      6.658266   501A      6.687822   502A      6.726601  
     503A      6.783828   504A      6.796800   505A      6.817074  
     506A      6.842164   507A      6.852520   508A      6.864573  
     509A      6.872602   510A      6.883879   511A      6.924548  
     512A      6.953213   513A      6.975712   514A      6.980947  
     515A      6.988906   516A      7.015607   517A      7.015637  
     518A      7.043111   519A      7.056321   520A      7.076920  
     521A      7.100996   522A      7.105929   523A      7.134944  
     524A      7.150132   525A      7.160948   526A      7.170781  
     527A      7.205588   528A      7.225742   529A      7.228231  
     530A      7.240501   531A      7.249332   532A      7.300913  
     533A      7.330312   534A      7.342872   535A      7.372901  
     536A      7.378492   537A      7.412647   538A      7.446606  
     539A      7.563021   540A      7.661253   541A      7.671918  
     542A      7.681391   543A      7.722447   544A      7.763776  
     545A      7.772829   546A      7.786162   547A      7.795917  
     548A      7.809084   549A      7.833399   550A      7.836333  
     551A      7.868884   552A      7.893960   553A      7.911714  
     554A      7.914158   555A      7.953702   556A      7.957820  
     557A      7.979025   558A      8.024045   559A      8.032713  
     560A      8.034314   561A      8.059377   562A      8.081277  
     563A      8.090331   564A      8.120184   565A      8.153393  
     566A      8.174989   567A      8.337623   568A      8.346507  
     569A      8.360400   570A      8.364571   571A      8.399043  
     572A      8.423890   573A      8.452005   574A      8.527903  
     575A      8.539836   576A      8.565374   577A      8.604968  
     578A      8.616145   579A      8.647493   580A      8.658204  
     581A      8.694642   582A      8.723162   583A      8.750030  
     584A      8.799442   585A      8.812214   586A      8.884427  
     587A      8.887928   588A      8.936796   589A      8.940798  
     590A      8.954114   591A      8.993030   592A      9.023966  
     593A      9.043488   594A      9.077552   595A      9.092479  
     596A      9.122571   597A      9.176282   598A      9.217218  
     599A      9.228407   600A      9.232751   601A      9.253503  
     602A      9.275382   603A      9.280598   604A      9.310507  
     605A      9.328322   606A      9.361531   607A      9.368718  
     608A      9.410814   609A      9.414673   610A      9.496152  
     611A      9.518539   612A      9.550278   613A      9.564454  
     614A      9.614819   615A      9.658268   616A      9.664731  
     617A      9.691923   618A      9.705948   619A      9.740550  
     620A      9.842732   621A      9.863894   622A      9.899456  
     623A      9.904456   624A      9.925868   625A     10.057094  
     626A     10.061540   627A     10.076574   628A     10.110008  
     629A     10.127881   630A     10.148324   631A     10.182493  
     632A     10.220751   633A     10.230308   634A     10.250358  
     635A     10.263452   636A     10.268063   637A     10.402563  
     638A     10.446103   639A     10.453970   640A     10.459544  
     641A     10.473046   642A     10.502041   643A     10.505116  
     644A     10.604112   645A     10.864721   646A     10.911090  
     647A     10.913620   648A     10.952066   649A     10.956372  
     650A     10.982385   651A     11.082302   652A     11.086071  
     653A     11.125622   654A     11.145925   655A     11.147028  
     656A     11.186441   657A     11.211035   658A     11.394849  
     659A     11.452052   660A     11.490974   661A     11.497790  
     662A     11.541086   663A     11.541558   664A     11.901138  
     665A     11.982290   666A     12.040531   667A     12.115092  
     668A     12.370577   669A     12.392683   670A     12.811376  
     671A     12.881118   672A     12.933212   673A     13.061630  
     674A     13.291125   675A     13.305567   676A     13.308840  
     677A     13.319573   678A     13.327190   679A     13.455985  
     680A     13.587243   681A     14.027520   682A     14.292332  
     683A     14.531338   684A     14.837629   685A     14.955926  
     686A     15.324571   687A     17.070001   688A     17.537800  
     689A     22.913844   690A     28.724365   691A     28.773154  
     692A     45.972084  

    Final Occupation by Irrep:
              A 
    DOCC [    22 ]

  @DF-RHF Final Energy:  -552.87782396315060

   => Energetics <=

    Nuclear Repulsion Energy =            177.7275681044303894
    One-Electron Energy =               -1114.3397250989619351
    Two-Electron Energy =                 383.7343330313809702
    Total Energy =                       -552.8778239631506040

Computation Completed


Properties will be evaluated at   0.000000,   0.000000,   0.000000 [a0]

Properties computed using the SCF density matrix

  Nuclear Dipole Moment: [e a0]
     X:     0.6810      Y:     0.5600      Z:     3.5668

  Electronic Dipole Moment: [e a0]
     X:    -0.6226      Y:    -0.4520      Z:    -3.6287

  Dipole Moment: [e a0]
     X:     0.0585      Y:     0.1080      Z:    -0.0619     Total:     0.1375

  Dipole Moment: [D]
     X:     0.1487      Y:     0.2745      Z:    -0.1573     Total:     0.3496


*** tstop() called on node36.bme.utexas.edu at Sat Apr 11 16:45:26 2020
Module time:
	user time   =     170.02 seconds =       2.83 minutes
	system time =       4.38 seconds =       0.07 minutes
	total time  =         31 seconds =       0.52 minutes
Total time:
	user time   =     946.58 seconds =      15.78 minutes
	system time =      28.99 seconds =       0.48 minutes
	total time  =        193 seconds =       3.22 minutes

*** tstart() called on node36.bme.utexas.edu
*** at Sat Apr 11 16:45:26 2020


  //>>>>>>>>>>>>>>>>>>>>>>>>>>>>>>>>>>>//
  //               DFMP2               //
  //<<<<<<<<<<<<<<<<<<<<<<<<<<<<<<<<<<<//

   => Loading Basis Set <=

    Name: (AUG-CC-PVQZ AUX)
    Role: RIFIT
    Keyword: DF_BASIS_MP2
    atoms 1-2        entry C          line   184 file /home/liuchw/anaconda3/envs/psi4env/share/psi4/basis/aug-cc-pvqz-ri.gbs 
    atoms 3          entry S          line   824 file /home/liuchw/anaconda3/envs/psi4env/share/psi4/basis/aug-cc-pvqz-ri.gbs 
    atoms 4-9, 11-12 entry H          line    30 file /home/liuchw/anaconda3/envs/psi4env/share/psi4/basis/aug-cc-pvqz-ri.gbs 
    atoms 10         entry O          line   332 file /home/liuchw/anaconda3/envs/psi4env/share/psi4/basis/aug-cc-pvqz-ri.gbs 

	 --------------------------------------------------------
	                          DF-MP2                         
	      2nd-Order Density-Fitted Moller-Plesset Theory     
	              RMP2 Wavefunction,   6 Threads             
	                                                         
	        Rob Parrish, Justin Turney, Andy Simmonett,      
	           Ed Hohenstein, and C. David Sherrill          
	 --------------------------------------------------------

   => Auxiliary Basis Set <=

  Basis Set: (AUG-CC-PVQZ AUX)
    Blend: AUG-CC-PVQZ-RI
    Number of shells: 312
    Number of basis function: 1338
    Number of Cartesian functions: 1819
    Spherical Harmonics?: true
    Max angular momentum: 5

	 --------------------------------------------------------
	                 NBF =   692, NAUX =  1338
	 --------------------------------------------------------
	   CLASS    FOCC     OCC    AOCC    AVIR     VIR    FVIR
	   PAIRS       0      22      22     670     670       0
	 --------------------------------------------------------

	-----------------------------------------------------------
	 ==================> DF-MP2 Energies <==================== 
	-----------------------------------------------------------
	 Reference Energy          =    -552.8778239631506040 [Eh]
	 Singles Energy            =      -0.0000000000000000 [Eh]
	 Same-Spin Energy          =      -0.2261221482129601 [Eh]
	 Opposite-Spin Energy      =      -0.7999178146875798 [Eh]
	 Correlation Energy        =      -1.0260399629005399 [Eh]
	 Total Energy              =    -553.9038639260511445 [Eh]
	-----------------------------------------------------------
	 ================> DF-SCS-MP2 Energies <================== 
	-----------------------------------------------------------
	 SCS Same-Spin Scale       =       0.3333333333333333 [-]
	 SCS Opposite-Spin Scale   =       1.2000000000000000 [-]
	 SCS Same-Spin Energy      =      -0.0753740494043200 [Eh]
	 SCS Opposite-Spin Energy  =      -0.9599013776250958 [Eh]
	 SCS Correlation Energy    =      -1.0352754270294158 [Eh]
	 SCS Total Energy          =    -553.9130993901800366 [Eh]
	-----------------------------------------------------------


*** tstop() called on node36.bme.utexas.edu at Sat Apr 11 16:45:45 2020
Module time:
	user time   =      85.46 seconds =       1.42 minutes
	system time =       2.32 seconds =       0.04 minutes
	total time  =         19 seconds =       0.32 minutes
Total time:
	user time   =    1032.05 seconds =      17.20 minutes
	system time =      31.31 seconds =       0.52 minutes
	total time  =        212 seconds =       3.53 minutes

  //>>>>>>>>>>>>>>>>>>>>>>>>>>>>>>>>>>>//
  //  CBS Results: mp2/aug-cc-pv[tq]z  //
  //<<<<<<<<<<<<<<<<<<<<<<<<<<<<<<<<<<<//


   ==> HF <==

   HI-zeta (4) Energy:               -552.877823963151


   ==> Helgaker 2-point correlated extrapolation for method: MP2 <==

   LO-zeta (3) Energy:               -553.784080326236
   HI-zeta (4) Energy:               -553.903863926051
   Alpha (exponent) Value:             3.000000000000
   Extrapolated Energy:              -553.991273579970

   @Extrapolated MP2/(T,Q):          -553.991273579970



   ==> Helgaker 2-point correlated extrapolation for method: HF <==

   LO-zeta (3) Energy:               -552.863536366790
   HI-zeta (4) Energy:               -552.877823963151
   Alpha (exponent) Value:             3.000000000000
   Extrapolated Energy:              -552.888250046981

   @Extrapolated HF/(T,Q):           -552.888250046981


   ==> Components <==

  ---------------------------------------------------------------------------------------------------------
                          Method / Basis                      Rqd      Energy [Eh]   Variable
  ---------------------------------------------------------------------------------------------------------
                              hf / aug-cc-pvtz                  *    -552.86353637   HF TOTAL ENERGY
                             mp2 / aug-cc-pvtz                  *    -553.78408033   MP2 TOTAL ENERGY
                              hf / aug-cc-pvqz                  *    -552.87782396   HF TOTAL ENERGY
                             mp2 / aug-cc-pvqz                  *    -553.90386393   MP2 TOTAL ENERGY
  ---------------------------------------------------------------------------------------------------------

   ==> Stages <==

  ---------------------------------------------------------------------------------------------------------
      Stage               Method / Basis                       Wt      Energy [Eh]   Scheme
  ---------------------------------------------------------------------------------------------------------
        scf                   hf / aug-cc-pvqz                  1    -552.87782396   xtpl_highest_1
       corl                  mp2 / aug-cc-pv[tq]z               1    -553.99127358   corl_xtpl_helgaker_2
       corl                   hf / aug-cc-pv[tq]z              -1    -552.88825005   corl_xtpl_helgaker_2
  ---------------------------------------------------------------------------------------------------------

   ==> CBS <==

  ---------------------------------------------------------------------------------------------------------
      Stage               Method / Basis                               Energy [Eh]   Scheme
  ---------------------------------------------------------------------------------------------------------
        scf                   hf / aug-cc-pvqz                       -552.87782396   xtpl_highest_1
       corl                  mp2 / aug-cc-pv[tq]z                      -1.10302353   corl_xtpl_helgaker_2
      total                  CBS                                     -553.98084750   
  ---------------------------------------------------------------------------------------------------------
   => Loading Basis Set <=

    Name: DEF2-SVP
    Role: ORBITAL
    Keyword: BASIS
    atoms 1-2        entry C          line    90 file /home/liuchw/anaconda3/envs/psi4env/share/psi4/basis/def2-svp.gbs 
    atoms 3          entry S          line   328 file /home/liuchw/anaconda3/envs/psi4env/share/psi4/basis/def2-svp.gbs 
    atoms 4-9, 11-12 entry H          line    15 file /home/liuchw/anaconda3/envs/psi4env/share/psi4/basis/def2-svp.gbs 
    atoms 10         entry O          line   130 file /home/liuchw/anaconda3/envs/psi4env/share/psi4/basis/def2-svp.gbs 


       N-Body: Complex Energy (fragments = (1, 2), basis = (1, 2):  -553.98084749613963)

   ==> N-Body: Counterpoise Corrected (CP) energies <==

   n-Body     Total Energy [Eh]       I.E. [kcal/mol]      Delta [kcal/mol]
        1     -553.972882154722        0.000000000000        0.000000000000
        2     -553.981050729409       -5.125858003302       -5.125858003302

   => Loading Basis Set <=

    Name: DEF2-SVP
    Role: ORBITAL
    Keyword: BASIS
    atoms 1-2        entry C          line    90 file /home/liuchw/anaconda3/envs/psi4env/share/psi4/basis/def2-svp.gbs 
    atoms 3          entry S          line   328 file /home/liuchw/anaconda3/envs/psi4env/share/psi4/basis/def2-svp.gbs 
    atoms 4-9, 11-12 entry H          line    15 file /home/liuchw/anaconda3/envs/psi4env/share/psi4/basis/def2-svp.gbs 
    atoms 10         entry O          line   130 file /home/liuchw/anaconda3/envs/psi4env/share/psi4/basis/def2-svp.gbs 


    Psi4 stopped on: Saturday, 11 April 2020 04:45PM
    Psi4 wall time for execution: 0:03:32.37

*** Psi4 exiting successfully. Buy a developer a beer!
