
    -----------------------------------------------------------------------
          Psi4: An Open-Source Ab Initio Electronic Structure Package
                               Psi4 1.4a2.dev224 

                         Git: Rev {master} e453b16 


    R. M. Parrish, L. A. Burns, D. G. A. Smith, A. C. Simmonett,
    A. E. DePrince III, E. G. Hohenstein, U. Bozkaya, A. Yu. Sokolov,
    R. Di Remigio, R. M. Richard, J. F. Gonthier, A. M. James,
    H. R. McAlexander, A. Kumar, M. Saitow, X. Wang, B. P. Pritchard,
    P. Verma, H. F. Schaefer III, K. Patkowski, R. A. King, E. F. Valeev,
    F. A. Evangelista, J. M. Turney, T. D. Crawford, and C. D. Sherrill,
    J. Chem. Theory Comput. 13(7) pp 3185--3197 (2017).
    (doi: 10.1021/acs.jctc.7b00174)


                         Additional Contributions by
    P. Kraus, H. Kruse, M. H. Lechner, M. C. Schieber, R. A. Shaw,
    A. Alenaizan, R. Galvelis, Z. L. Glick, S. Lehtola, and J. P. Misiewicz

    -----------------------------------------------------------------------


    Psi4 started on: Saturday, 11 April 2020 05:30PM

    Process ID: 85221
    Host:       node52.bme.utexas.edu
    PSIDATADIR: /home/liuchw/anaconda3/envs/psi4env/share/psi4
    Memory:     500.0 MiB
    Threads:    6
    
  ==> Input File <==

--------------------------------------------------------------------------
#Generated by lconvert.py for cbs job

memory 40 GB

molecule  {
0 1
  N       -2.2665280     1.7551600     0.3523560
  C       -3.2562880     0.7247330     0.0142390
  C       -2.4225700    -0.2894620    -0.7756490
  C       -0.9872470    -0.1186910    -0.2215320
  C       -1.1192600     0.9789940     0.8392520
  H       -4.0737160     1.1488270    -0.5652640
  H       -3.6729280     0.2529640     0.9128420
  H       -2.8027860    -1.3003390    -0.6499560
  H       -2.4447730    -0.0452880    -1.8342580
  H       -0.5903580    -1.0371090     0.2041700
  H       -0.3185330     0.2076840    -1.0134090
  H       -1.3194960     0.5329730     1.8213990
  H       -0.2332930     1.6057540     0.9173520
  H       -2.6177160     2.3795850     1.0695950
--
0 1
  O       -1.2817710     2.6069790    -2.4608720
  H       -1.6218400     2.5150510    -1.5517140
  H       -1.3270750     3.5484310    -2.6338420
units angstrom
no_reorient
symmetry c1
}

set {
scf_type DF
mp2_type DF
e_convergence 7
reference rhf
}

energy('mp2/aug-cc-pv[tq]z', bsse_type='cp')
--------------------------------------------------------------------------

  Memory set to  37.253 GiB by Python driver.

Scratch directory: /scratch//


   ===> N-Body Interaction Abacus <===
        BSSE Treatment:                     cp
        Number of 1-body computations:     4
        Number of 2-body computations:     1

   ==> N-Body: Now computing 1-body complexes <==


       N-Body: Computing complex (1/4) with fragments (2,) in the basis of fragments (2,).


Scratch directory: /scratch//

  //>>>>>>>>>>>>>>>>>>>>>>>>>>>>>>>>>>>//
  //   CBS Setup: mp2/aug-cc-pv[tq]z   //
  //<<<<<<<<<<<<<<<<<<<<<<<<<<<<<<<<<<<//

    Naive listing of computations required.
             hf / aug-cc-pvqz              for  HF TOTAL ENERGY
            mp2 / aug-cc-pvtz              for  MP2 TOTAL ENERGY
            mp2 / aug-cc-pvqz              for  MP2 TOTAL ENERGY
             hf / aug-cc-pvtz              for  HF TOTAL ENERGY
             hf / aug-cc-pvqz              for  HF TOTAL ENERGY

    Enlightened listing of computations required.
            mp2 / aug-cc-pvtz              for  MP2 TOTAL ENERGY
            mp2 / aug-cc-pvqz              for  MP2 TOTAL ENERGY

    Full listing of computations to be obtained (required and bonus).
             hf / aug-cc-pvtz              for  HF TOTAL ENERGY
            mp2 / aug-cc-pvtz              for  MP2 TOTAL ENERGY
             hf / aug-cc-pvqz              for  HF TOTAL ENERGY
            mp2 / aug-cc-pvqz              for  MP2 TOTAL ENERGY

  //>>>>>>>>>>>>>>>>>>>>>>>>>>>>>>>>>>>>//
  // CBS Computation: MP2 / AUG-CC-PVTZ //
  //<<<<<<<<<<<<<<<<<<<<<<<<<<<<<<<<<<<<//


Scratch directory: /scratch//

*** tstart() called on node52.bme.utexas.edu
*** at Sat Apr 11 17:30:09 2020

   => Loading Basis Set <=

    Name: AUG-CC-PVTZ
    Role: ORBITAL
    Keyword: BASIS
    atoms 1   entry O          line   331 file /home/liuchw/anaconda3/envs/psi4env/share/psi4/basis/aug-cc-pvtz.gbs 
    atoms 2-3 entry H          line    40 file /home/liuchw/anaconda3/envs/psi4env/share/psi4/basis/aug-cc-pvtz.gbs 


         ---------------------------------------------------------
                                   SCF
               by Justin Turney, Rob Parrish, Andy Simmonett
                          and Daniel G. A. Smith
                              RHF Reference
                        6 Threads,  38146 MiB Core
         ---------------------------------------------------------

  ==> Geometry <==

    Molecular point group: c1
    Full point group: C1

    Geometry (in Angstrom), charge = 0, multiplicity = 1:

       Center              X                  Y                   Z               Mass       
    ------------   -----------------  -----------------  -----------------  -----------------
         O            0.591196682680     1.577521980632    -2.017462293832    15.994914619570
         H            0.251127682680     1.485593980632    -1.108304293832     1.007825032230
         H            0.545892682680     2.518973980632    -2.190432293832     1.007825032230

  Running in c1 symmetry.

  Rotational constants: A =     26.62253  B =      0.13495  C =      0.13427 [cm^-1]
  Rotational constants: A = 798123.46093  B =   4045.61901  C =   4025.21554 [MHz]
  Nuclear repulsion =    9.106584042100859

  Charge       = 0
  Multiplicity = 1
  Electrons    = 10
  Nalpha       = 5
  Nbeta        = 5

  ==> Algorithm <==

  SCF Algorithm Type is DF.
  DIIS enabled.
  MOM disabled.
  Fractional occupation disabled.
  Guess Type is SAD.
  Energy threshold   = 1.00e-07
  Density threshold  = 1.00e-08
  Integral threshold = 0.00e+00

  ==> Primary Basis <==

  Basis Set: AUG-CC-PVTZ
    Blend: AUG-CC-PVTZ
    Number of shells: 32
    Number of basis function: 92
    Number of Cartesian functions: 105
    Spherical Harmonics?: true
    Max angular momentum: 3

   => Loading Basis Set <=

    Name: (AUG-CC-PVTZ AUX)
    Role: JKFIT
    Keyword: DF_BASIS_SCF
    atoms 1   entry O          line   286 file /home/liuchw/anaconda3/envs/psi4env/share/psi4/basis/aug-cc-pvtz-jkfit.gbs 
    atoms 2-3 entry H          line    70 file /home/liuchw/anaconda3/envs/psi4env/share/psi4/basis/aug-cc-pvtz-jkfit.gbs 

  ==> Pre-Iterations <==

   -------------------------------------------------------
    Irrep   Nso     Nmo     Nalpha   Nbeta   Ndocc  Nsocc
   -------------------------------------------------------
     A         92      92       0       0       0       0
   -------------------------------------------------------
    Total      92      92       5       5       5       0
   -------------------------------------------------------

  ==> Integral Setup <==

  DFHelper Memory: AOs need 0.015 GiB; user supplied 27.940 GiB. Using in-core AOs.

  ==> MemDFJK: Density-Fitted J/K Matrices <==

    J tasked:                   Yes
    K tasked:                   Yes
    wK tasked:                   No
    OpenMP threads:               6
    Memory [MiB]:             28610
    Algorithm:                 Core
    Schwarz Cutoff:           1E-12
    Mask sparsity (%):       0.0000
    Fitting Condition:        1E-10

   => Auxiliary Basis Set <=

  Basis Set: (AUG-CC-PVTZ AUX)
    Blend: AUG-CC-PVTZ-JKFIT
    Number of shells: 58
    Number of basis function: 196
    Number of Cartesian functions: 241
    Spherical Harmonics?: true
    Max angular momentum: 4

  Minimum eigenvalue in the overlap matrix is 3.9091643262E-04.
  Using Symmetric Orthogonalization.

  SCF Guess: Superposition of Atomic Densities via on-the-fly atomic UHF.

  ==> Iterations <==

                           Total Energy        Delta E     RMS |[F,P]|

   @DF-RHF iter SAD:   -75.46747855006957   -7.54675e+01   0.00000e+00 
   @DF-RHF iter   1:   -75.97495689158353   -5.07478e-01   5.08589e-03 DIIS
   @DF-RHF iter   2:   -76.02723122186985   -5.22743e-02   3.49587e-03 DIIS
   @DF-RHF iter   3:   -76.05924145137487   -3.20102e-02   2.37844e-04 DIIS
   @DF-RHF iter   4:   -76.05964077358834   -3.99322e-04   5.78687e-05 DIIS
   @DF-RHF iter   5:   -76.05966668715226   -2.59136e-05   1.32439e-05 DIIS
   @DF-RHF iter   6:   -76.05966883568519   -2.14853e-06   2.90576e-06 DIIS
   @DF-RHF iter   7:   -76.05966894891030   -1.13225e-07   5.19534e-07 DIIS
   @DF-RHF iter   8:   -76.05966895207558   -3.16528e-09   8.79070e-08 DIIS
   @DF-RHF iter   9:   -76.05966895214713   -7.15517e-11   2.19325e-08 DIIS
   @DF-RHF iter  10:   -76.05966895215153   -4.39115e-12   3.25563e-09 DIIS
  Energy and wave function converged.


  ==> Post-Iterations <==

    Orbital Energies [Eh]
    ---------------------

    Doubly Occupied:                                                      

       1A    -20.569003     2A     -1.349114     3A     -0.712037  
       4A     -0.583828     5A     -0.509703  

    Virtual:                                                              

       6A      0.029291     7A      0.047670     8A      0.135854  
       9A      0.159035    10A      0.174935    11A      0.183089  
      12A      0.226619    13A      0.244677    14A      0.265355  
      15A      0.299804    16A      0.309967    17A      0.365584  
      18A      0.436072    19A      0.465160    20A      0.598902  
      21A      0.657936    22A      0.707813    23A      0.722781  
      24A      0.731943    25A      0.828742    26A      0.845788  
      27A      0.893162    28A      0.911338    29A      0.919009  
      30A      0.921791    31A      0.930250    32A      0.961075  
      33A      1.018252    34A      1.041937    35A      1.081810  
      36A      1.107305    37A      1.174920    38A      1.179879  
      39A      1.263192    40A      1.508143    41A      1.536372  
      42A      1.579864    43A      1.807388    44A      1.815867  
      45A      1.976074    46A      2.113093    47A      2.262157  
      48A      2.314704    49A      2.327704    50A      2.417173  
      51A      2.419673    52A      2.442047    53A      2.481902  
      54A      2.681863    55A      2.699613    56A      2.764987  
      57A      2.815139    58A      2.880951    59A      3.641933  
      60A      3.734876    61A      4.013445    62A      4.077172  
      63A      4.160816    64A      4.239804    65A      4.285423  
      66A      4.374739    67A      4.375013    68A      4.399964  
      69A      4.512476    70A      4.716681    71A      4.826169  
      72A      5.133301    73A      5.134456    74A      5.240535  
      75A      5.305094    76A      5.506245    77A      5.654909  
      78A      6.169980    79A      6.518391    80A      6.712735  
      81A      6.890776    82A      7.128479    83A      7.250465  
      84A      7.289732    85A      7.307686    86A      7.334456  
      87A      7.360045    88A      7.519804    89A      7.886616  
      90A      7.914533    91A      8.775384    92A     15.548486  

    Final Occupation by Irrep:
              A 
    DOCC [     5 ]

  @DF-RHF Final Energy:   -76.05966895215153

   => Energetics <=

    Nuclear Repulsion Energy =              9.1065840421008595
    One-Electron Energy =                -122.8851367903124014
    Two-Electron Energy =                  37.7188837960600054
    Total Energy =                        -76.0596689521515259

Computation Completed


Properties will be evaluated at   0.000000,   0.000000,   0.000000 [a0]

Properties computed using the SCF density matrix

  Nuclear Dipole Moment: [e a0]
     X:    10.4437      Y:    31.4162      Z:   -36.7333

  Electronic Dipole Moment: [e a0]
     X:   -10.6979      Y:   -30.8527      Z:    37.2179

  Dipole Moment: [e a0]
     X:    -0.2542      Y:     0.5635      Z:     0.4845     Total:     0.7855

  Dipole Moment: [D]
     X:    -0.6460      Y:     1.4323      Z:     1.2316     Total:     1.9964


*** tstop() called on node52.bme.utexas.edu at Sat Apr 11 17:30:10 2020
Module time:
	user time   =       5.09 seconds =       0.08 minutes
	system time =       0.19 seconds =       0.00 minutes
	total time  =          1 seconds =       0.02 minutes
Total time:
	user time   =       5.09 seconds =       0.08 minutes
	system time =       0.19 seconds =       0.00 minutes
	total time  =          1 seconds =       0.02 minutes

*** tstart() called on node52.bme.utexas.edu
*** at Sat Apr 11 17:30:10 2020


  //>>>>>>>>>>>>>>>>>>>>>>>>>>>>>>>>>>>//
  //               DFMP2               //
  //<<<<<<<<<<<<<<<<<<<<<<<<<<<<<<<<<<<//

   => Loading Basis Set <=

    Name: (AUG-CC-PVTZ AUX)
    Role: RIFIT
    Keyword: DF_BASIS_MP2
    atoms 1   entry O          line   264 file /home/liuchw/anaconda3/envs/psi4env/share/psi4/basis/aug-cc-pvtz-ri.gbs 
    atoms 2-3 entry H          line    30 file /home/liuchw/anaconda3/envs/psi4env/share/psi4/basis/aug-cc-pvtz-ri.gbs 

	 --------------------------------------------------------
	                          DF-MP2                         
	      2nd-Order Density-Fitted Moller-Plesset Theory     
	              RMP2 Wavefunction,   6 Threads             
	                                                         
	        Rob Parrish, Justin Turney, Andy Simmonett,      
	           Ed Hohenstein, and C. David Sherrill          
	 --------------------------------------------------------

   => Auxiliary Basis Set <=

  Basis Set: (AUG-CC-PVTZ AUX)
    Blend: AUG-CC-PVTZ-RI
    Number of shells: 56
    Number of basis function: 198
    Number of Cartesian functions: 246
    Spherical Harmonics?: true
    Max angular momentum: 4

	 --------------------------------------------------------
	                 NBF =    92, NAUX =   198
	 --------------------------------------------------------
	   CLASS    FOCC     OCC    AOCC    AVIR     VIR    FVIR
	   PAIRS       0       5       5      87      87       0
	 --------------------------------------------------------

	-----------------------------------------------------------
	 ==================> DF-MP2 Energies <==================== 
	-----------------------------------------------------------
	 Reference Energy          =     -76.0596689521515259 [Eh]
	 Singles Energy            =      -0.0000000000000000 [Eh]
	 Same-Spin Energy          =      -0.0685048846401435 [Eh]
	 Opposite-Spin Energy      =      -0.2156705647794517 [Eh]
	 Correlation Energy        =      -0.2841754494195952 [Eh]
	 Total Energy              =     -76.3438444015711184 [Eh]
	-----------------------------------------------------------
	 ================> DF-SCS-MP2 Energies <================== 
	-----------------------------------------------------------
	 SCS Same-Spin Scale       =       0.3333333333333333 [-]
	 SCS Opposite-Spin Scale   =       1.2000000000000000 [-]
	 SCS Same-Spin Energy      =      -0.0228349615467145 [Eh]
	 SCS Opposite-Spin Energy  =      -0.2588046777353420 [Eh]
	 SCS Correlation Energy    =      -0.2816396392820565 [Eh]
	 SCS Total Energy          =     -76.3413085914335880 [Eh]
	-----------------------------------------------------------


*** tstop() called on node52.bme.utexas.edu at Sat Apr 11 17:30:11 2020
Module time:
	user time   =       2.31 seconds =       0.04 minutes
	system time =       0.10 seconds =       0.00 minutes
	total time  =          1 seconds =       0.02 minutes
Total time:
	user time   =       7.41 seconds =       0.12 minutes
	system time =       0.29 seconds =       0.00 minutes
	total time  =          2 seconds =       0.03 minutes

  //>>>>>>>>>>>>>>>>>>>>>>>>>>>>>>>>>>>>//
  // CBS Computation: MP2 / AUG-CC-PVQZ //
  //<<<<<<<<<<<<<<<<<<<<<<<<<<<<<<<<<<<<//


Scratch directory: /scratch//

*** tstart() called on node52.bme.utexas.edu
*** at Sat Apr 11 17:30:11 2020

   => Loading Basis Set <=

    Name: AUG-CC-PVQZ
    Role: ORBITAL
    Keyword: BASIS
    atoms 1   entry O          line   423 file /home/liuchw/anaconda3/envs/psi4env/share/psi4/basis/aug-cc-pvqz.gbs 
    atoms 2-3 entry H          line    40 file /home/liuchw/anaconda3/envs/psi4env/share/psi4/basis/aug-cc-pvqz.gbs 


         ---------------------------------------------------------
                                   SCF
               by Justin Turney, Rob Parrish, Andy Simmonett
                          and Daniel G. A. Smith
                              RHF Reference
                        6 Threads,  38146 MiB Core
         ---------------------------------------------------------

  ==> Geometry <==

    Molecular point group: c1
    Full point group: C1

    Geometry (in Angstrom), charge = 0, multiplicity = 1:

       Center              X                  Y                   Z               Mass       
    ------------   -----------------  -----------------  -----------------  -----------------
         O            0.591196682680     1.577521980632    -2.017462293832    15.994914619570
         H            0.251127682680     1.485593980632    -1.108304293832     1.007825032230
         H            0.545892682680     2.518973980632    -2.190432293832     1.007825032230

  Running in c1 symmetry.

  Rotational constants: A =     26.62253  B =      0.13495  C =      0.13427 [cm^-1]
  Rotational constants: A = 798123.46093  B =   4045.61901  C =   4025.21554 [MHz]
  Nuclear repulsion =    9.106584042100859

  Charge       = 0
  Multiplicity = 1
  Electrons    = 10
  Nalpha       = 5
  Nbeta        = 5

  ==> Algorithm <==

  SCF Algorithm Type is DF.
  DIIS enabled.
  MOM disabled.
  Fractional occupation disabled.
  Guess Type is SAD.
  Energy threshold   = 1.00e-07
  Density threshold  = 1.00e-08
  Integral threshold = 0.00e+00

  ==> Primary Basis <==

  Basis Set: AUG-CC-PVQZ
    Blend: AUG-CC-PVQZ
    Number of shells: 48
    Number of basis function: 172
    Number of Cartesian functions: 215
    Spherical Harmonics?: true
    Max angular momentum: 4

   => Loading Basis Set <=

    Name: (AUG-CC-PVQZ AUX)
    Role: JKFIT
    Keyword: DF_BASIS_SCF
    atoms 1   entry O          line   318 file /home/liuchw/anaconda3/envs/psi4env/share/psi4/basis/aug-cc-pvqz-jkfit.gbs 
    atoms 2-3 entry H          line    70 file /home/liuchw/anaconda3/envs/psi4env/share/psi4/basis/aug-cc-pvqz-jkfit.gbs 

  ==> Pre-Iterations <==

   -------------------------------------------------------
    Irrep   Nso     Nmo     Nalpha   Nbeta   Ndocc  Nsocc
   -------------------------------------------------------
     A        172     172       0       0       0       0
   -------------------------------------------------------
    Total     172     172       5       5       5       0
   -------------------------------------------------------

  ==> Integral Setup <==

  DFHelper Memory: AOs need 0.074 GiB; user supplied 27.940 GiB. Using in-core AOs.

  ==> MemDFJK: Density-Fitted J/K Matrices <==

    J tasked:                   Yes
    K tasked:                   Yes
    wK tasked:                   No
    OpenMP threads:               6
    Memory [MiB]:             28610
    Algorithm:                 Core
    Schwarz Cutoff:           1E-12
    Mask sparsity (%):       0.0000
    Fitting Condition:        1E-10

   => Auxiliary Basis Set <=

  Basis Set: (AUG-CC-PVQZ AUX)
    Blend: AUG-CC-PVQZ-JKFIT
    Number of shells: 70
    Number of basis function: 294
    Number of Cartesian functions: 400
    Spherical Harmonics?: true
    Max angular momentum: 5

  Minimum eigenvalue in the overlap matrix is 8.9003848426E-05.
  Using Symmetric Orthogonalization.

  SCF Guess: Superposition of Atomic Densities via on-the-fly atomic UHF.

  ==> Iterations <==

                           Total Energy        Delta E     RMS |[F,P]|

   @DF-RHF iter SAD:   -75.47260902103181   -7.54726e+01   0.00000e+00 
   @DF-RHF iter   1:   -75.98000469642395   -5.07396e-01   2.72629e-03 DIIS
   @DF-RHF iter   2:   -76.03237602103574   -5.23713e-02   1.87804e-03 DIIS
   @DF-RHF iter   3:   -76.06458520443147   -3.22092e-02   1.28193e-04 DIIS
   @DF-RHF iter   4:   -76.06498668158515   -4.01477e-04   3.18864e-05 DIIS
   @DF-RHF iter   5:   -76.06501354683930   -2.68653e-05   7.27115e-06 DIIS
   @DF-RHF iter   6:   -76.06501578288051   -2.23604e-06   1.63975e-06 DIIS
   @DF-RHF iter   7:   -76.06501590851214   -1.25632e-07   3.03072e-07 DIIS
   @DF-RHF iter   8:   -76.06501591226481   -3.75267e-09   4.92727e-08 DIIS
   @DF-RHF iter   9:   -76.06501591234579   -8.09735e-11   1.20049e-08 DIIS
   @DF-RHF iter  10:   -76.06501591234984   -4.05009e-12   1.82041e-09 DIIS
  Energy and wave function converged.


  ==> Post-Iterations <==

    Orbital Energies [Eh]
    ---------------------

    Doubly Occupied:                                                      

       1A    -20.566539     2A     -1.348381     3A     -0.712002  
       4A     -0.583874     5A     -0.509837  

    Virtual:                                                              

       6A      0.026823     7A      0.043067     8A      0.114094  
       9A      0.133735    10A      0.150912    11A      0.158638  
      12A      0.184709    13A      0.196892    14A      0.209235  
      15A      0.237249    16A      0.257106    17A      0.291319  
      18A      0.356262    19A      0.388833    20A      0.469637  
      21A      0.508412    22A      0.542009    23A      0.547174  
      24A      0.556349    25A      0.613962    26A      0.633024  
      27A      0.647230    28A      0.663522    29A      0.666508  
      30A      0.684942    31A      0.706645    32A      0.717929  
      33A      0.769034    34A      0.785219    35A      0.801242  
      36A      0.802895    37A      0.843642    38A      0.854680  
      39A      0.969150    40A      1.124967    41A      1.135330  
      42A      1.206577    43A      1.331001    44A      1.435704  
      45A      1.479344    46A      1.508968    47A      1.510584  
      48A      1.527561    49A      1.553832    50A      1.592691  
      51A      1.619323    52A      1.635032    53A      1.662801  
      54A      1.664624    55A      1.690252    56A      1.702868  
      57A      1.735115    58A      1.753294    59A      1.767538  
      60A      1.775688    61A      1.839916    62A      1.865802  
      63A      1.892052    64A      1.913467    65A      1.977299  
      66A      2.010345    67A      2.034777    68A      2.038637  
      69A      2.103015    70A      2.205941    71A      2.217724  
      72A      2.309980    73A      2.437081    74A      2.619540  
      75A      2.625166    76A      2.878956    77A      2.948970  
      78A      2.991586    79A      3.037558    80A      3.051406  
      81A      3.080462    82A      3.264693    83A      3.288681  
      84A      3.303852    85A      3.489489    86A      3.588345  
      87A      3.640117    88A      3.686437    89A      3.712101  
      90A      3.765543    91A      3.924539    92A      4.077908  
      93A      4.166064    94A      4.170578    95A      4.177703  
      96A      4.180502    97A      4.238433    98A      4.326284  
      99A      4.433394   100A      4.570900   101A      4.708469  
     102A      4.740808   103A      4.778218   104A      4.779995  
     105A      4.806605   106A      4.871495   107A      4.992971  
     108A      5.236755   109A      5.312695   110A      5.505658  
     111A      5.513894   112A      5.842824   113A      5.873177  
     114A      6.063417   115A      6.215055   116A      6.820331  
     117A      6.871187   118A      6.871772   119A      6.908731  
     120A      7.705875   121A      7.756701   122A      7.784086  
     123A      7.806658   124A      7.822487   125A      7.894174  
     126A      7.923345   127A      8.014809   128A      8.185466  
     129A      8.187527   130A      8.516642   131A      8.626802  
     132A      8.640712   133A      8.704549   134A      8.760573  
     135A      8.835690   136A      8.990458   137A      9.032239  
     138A      9.195454   139A      9.645897   140A      9.865057  
     141A      9.885048   142A      9.893634   143A      9.982118  
     144A     10.307651   145A     10.434233   146A     10.709653  
     147A     11.010676   148A     11.071427   149A     11.108298  
     150A     11.269963   151A     11.305386   152A     11.405205  
     153A     11.699830   154A     11.783160   155A     11.835428  
     156A     11.978966   157A     12.178189   158A     12.198207  
     159A     12.586979   160A     12.706320   161A     12.789265  
     162A     12.892236   163A     13.181929   164A     13.921952  
     165A     13.988092   166A     14.436597   167A     14.766065  
     168A     14.846651   169A     15.186340   170A     16.783250  
     171A     17.238088   172A     45.424628  

    Final Occupation by Irrep:
              A 
    DOCC [     5 ]

  @DF-RHF Final Energy:   -76.06501591234984

   => Energetics <=

    Nuclear Repulsion Energy =              9.1065840421008595
    One-Electron Energy =                -122.9019348996568368
    Two-Electron Energy =                  37.7303349452061383
    Total Energy =                        -76.0650159123498355

Computation Completed


Properties will be evaluated at   0.000000,   0.000000,   0.000000 [a0]

Properties computed using the SCF density matrix

  Nuclear Dipole Moment: [e a0]
     X:    10.4437      Y:    31.4162      Z:   -36.7333

  Electronic Dipole Moment: [e a0]
     X:   -10.6976      Y:   -30.8533      Z:    37.2173

  Dipole Moment: [e a0]
     X:    -0.2539      Y:     0.5629      Z:     0.4840     Total:     0.7846

  Dipole Moment: [D]
     X:    -0.6453      Y:     1.4308      Z:     1.2303     Total:     1.9943


*** tstop() called on node52.bme.utexas.edu at Sat Apr 11 17:30:12 2020
Module time:
	user time   =       8.29 seconds =       0.14 minutes
	system time =       0.29 seconds =       0.00 minutes
	total time  =          1 seconds =       0.02 minutes
Total time:
	user time   =      15.74 seconds =       0.26 minutes
	system time =       0.58 seconds =       0.01 minutes
	total time  =          3 seconds =       0.05 minutes

*** tstart() called on node52.bme.utexas.edu
*** at Sat Apr 11 17:30:12 2020


  //>>>>>>>>>>>>>>>>>>>>>>>>>>>>>>>>>>>//
  //               DFMP2               //
  //<<<<<<<<<<<<<<<<<<<<<<<<<<<<<<<<<<<//

   => Loading Basis Set <=

    Name: (AUG-CC-PVQZ AUX)
    Role: RIFIT
    Keyword: DF_BASIS_MP2
    atoms 1   entry O          line   332 file /home/liuchw/anaconda3/envs/psi4env/share/psi4/basis/aug-cc-pvqz-ri.gbs 
    atoms 2-3 entry H          line    30 file /home/liuchw/anaconda3/envs/psi4env/share/psi4/basis/aug-cc-pvqz-ri.gbs 

	 --------------------------------------------------------
	                          DF-MP2                         
	      2nd-Order Density-Fitted Moller-Plesset Theory     
	              RMP2 Wavefunction,   6 Threads             
	                                                         
	        Rob Parrish, Justin Turney, Andy Simmonett,      
	           Ed Hohenstein, and C. David Sherrill          
	 --------------------------------------------------------

   => Auxiliary Basis Set <=

  Basis Set: (AUG-CC-PVQZ AUX)
    Blend: AUG-CC-PVQZ-RI
    Number of shells: 76
    Number of basis function: 328
    Number of Cartesian functions: 447
    Spherical Harmonics?: true
    Max angular momentum: 5

	 --------------------------------------------------------
	                 NBF =   172, NAUX =   328
	 --------------------------------------------------------
	   CLASS    FOCC     OCC    AOCC    AVIR     VIR    FVIR
	   PAIRS       0       5       5     167     167       0
	 --------------------------------------------------------

	-----------------------------------------------------------
	 ==================> DF-MP2 Energies <==================== 
	-----------------------------------------------------------
	 Reference Energy          =     -76.0650159123498355 [Eh]
	 Singles Energy            =      -0.0000000000000000 [Eh]
	 Same-Spin Energy          =      -0.0728222491443025 [Eh]
	 Opposite-Spin Energy      =      -0.2446221124308578 [Eh]
	 Correlation Energy        =      -0.3174443615751603 [Eh]
	 Total Energy              =     -76.3824602739249912 [Eh]
	-----------------------------------------------------------
	 ================> DF-SCS-MP2 Energies <================== 
	-----------------------------------------------------------
	 SCS Same-Spin Scale       =       0.3333333333333333 [-]
	 SCS Opposite-Spin Scale   =       1.2000000000000000 [-]
	 SCS Same-Spin Energy      =      -0.0242740830481008 [Eh]
	 SCS Opposite-Spin Energy  =      -0.2935465349170294 [Eh]
	 SCS Correlation Energy    =      -0.3178206179651302 [Eh]
	 SCS Total Energy          =     -76.3828365303149610 [Eh]
	-----------------------------------------------------------


*** tstop() called on node52.bme.utexas.edu at Sat Apr 11 17:30:14 2020
Module time:
	user time   =       4.48 seconds =       0.07 minutes
	system time =       0.15 seconds =       0.00 minutes
	total time  =          2 seconds =       0.03 minutes
Total time:
	user time   =      20.22 seconds =       0.34 minutes
	system time =       0.73 seconds =       0.01 minutes
	total time  =          5 seconds =       0.08 minutes

  //>>>>>>>>>>>>>>>>>>>>>>>>>>>>>>>>>>>//
  //  CBS Results: mp2/aug-cc-pv[tq]z  //
  //<<<<<<<<<<<<<<<<<<<<<<<<<<<<<<<<<<<//


   ==> HF <==

   HI-zeta (4) Energy:               -76.065015912350


   ==> Helgaker 2-point correlated extrapolation for method: MP2 <==

   LO-zeta (3) Energy:               -76.343844401571
   HI-zeta (4) Energy:               -76.382460273925
   Alpha (exponent) Value:             3.000000000000
   Extrapolated Energy:              -76.410639424021

   @Extrapolated MP2/(T,Q):          -76.410639424021



   ==> Helgaker 2-point correlated extrapolation for method: HF <==

   LO-zeta (3) Energy:               -76.059668952152
   HI-zeta (4) Energy:               -76.065015912350
   Alpha (exponent) Value:             3.000000000000
   Extrapolated Energy:              -76.068917748170

   @Extrapolated HF/(T,Q):           -76.068917748170


   ==> Components <==

  ---------------------------------------------------------------------------------------------------------
                          Method / Basis                      Rqd      Energy [Eh]   Variable
  ---------------------------------------------------------------------------------------------------------
                              hf / aug-cc-pvtz                  *     -76.05966895   HF TOTAL ENERGY
                             mp2 / aug-cc-pvtz                  *     -76.34384440   MP2 TOTAL ENERGY
                              hf / aug-cc-pvqz                  *     -76.06501591   HF TOTAL ENERGY
                             mp2 / aug-cc-pvqz                  *     -76.38246027   MP2 TOTAL ENERGY
  ---------------------------------------------------------------------------------------------------------

   ==> Stages <==

  ---------------------------------------------------------------------------------------------------------
      Stage               Method / Basis                       Wt      Energy [Eh]   Scheme
  ---------------------------------------------------------------------------------------------------------
        scf                   hf / aug-cc-pvqz                  1     -76.06501591   xtpl_highest_1
       corl                  mp2 / aug-cc-pv[tq]z               1     -76.41063942   corl_xtpl_helgaker_2
       corl                   hf / aug-cc-pv[tq]z              -1     -76.06891775   corl_xtpl_helgaker_2
  ---------------------------------------------------------------------------------------------------------

   ==> CBS <==

  ---------------------------------------------------------------------------------------------------------
      Stage               Method / Basis                               Energy [Eh]   Scheme
  ---------------------------------------------------------------------------------------------------------
        scf                   hf / aug-cc-pvqz                        -76.06501591   xtpl_highest_1
       corl                  mp2 / aug-cc-pv[tq]z                      -0.34172168   corl_xtpl_helgaker_2
      total                  CBS                                      -76.40673759   
  ---------------------------------------------------------------------------------------------------------
   => Loading Basis Set <=

    Name: DEF2-SVP
    Role: ORBITAL
    Keyword: BASIS
    atoms 1   entry O          line   130 file /home/liuchw/anaconda3/envs/psi4env/share/psi4/basis/def2-svp.gbs 
    atoms 2-3 entry H          line    15 file /home/liuchw/anaconda3/envs/psi4env/share/psi4/basis/def2-svp.gbs 


       N-Body: Complex Energy (fragments = (2,), basis = (2,):   -76.40673758820067)

       N-Body: Computing complex (2/4) with fragments (2,) in the basis of fragments (1, 2).


Scratch directory: /scratch//

  //>>>>>>>>>>>>>>>>>>>>>>>>>>>>>>>>>>>//
  //   CBS Setup: mp2/aug-cc-pv[tq]z   //
  //<<<<<<<<<<<<<<<<<<<<<<<<<<<<<<<<<<<//

    Naive listing of computations required.
             hf / aug-cc-pvqz              for  HF TOTAL ENERGY
            mp2 / aug-cc-pvtz              for  MP2 TOTAL ENERGY
            mp2 / aug-cc-pvqz              for  MP2 TOTAL ENERGY
             hf / aug-cc-pvtz              for  HF TOTAL ENERGY
             hf / aug-cc-pvqz              for  HF TOTAL ENERGY

    Enlightened listing of computations required.
            mp2 / aug-cc-pvtz              for  MP2 TOTAL ENERGY
            mp2 / aug-cc-pvqz              for  MP2 TOTAL ENERGY

    Full listing of computations to be obtained (required and bonus).
             hf / aug-cc-pvtz              for  HF TOTAL ENERGY
            mp2 / aug-cc-pvtz              for  MP2 TOTAL ENERGY
             hf / aug-cc-pvqz              for  HF TOTAL ENERGY
            mp2 / aug-cc-pvqz              for  MP2 TOTAL ENERGY

  //>>>>>>>>>>>>>>>>>>>>>>>>>>>>>>>>>>>>//
  // CBS Computation: MP2 / AUG-CC-PVTZ //
  //<<<<<<<<<<<<<<<<<<<<<<<<<<<<<<<<<<<<//


Scratch directory: /scratch//

*** tstart() called on node52.bme.utexas.edu
*** at Sat Apr 11 17:30:16 2020

   => Loading Basis Set <=

    Name: AUG-CC-PVTZ
    Role: ORBITAL
    Keyword: BASIS
    atoms 1           entry N          line   285 file /home/liuchw/anaconda3/envs/psi4env/share/psi4/basis/aug-cc-pvtz.gbs 
    atoms 2-5         entry C          line   239 file /home/liuchw/anaconda3/envs/psi4env/share/psi4/basis/aug-cc-pvtz.gbs 
    atoms 6-14, 16-17 entry H          line    40 file /home/liuchw/anaconda3/envs/psi4env/share/psi4/basis/aug-cc-pvtz.gbs 
    atoms 15          entry O          line   331 file /home/liuchw/anaconda3/envs/psi4env/share/psi4/basis/aug-cc-pvtz.gbs 


         ---------------------------------------------------------
                                   SCF
               by Justin Turney, Rob Parrish, Andy Simmonett
                          and Daniel G. A. Smith
                              RHF Reference
                        6 Threads,  38146 MiB Core
         ---------------------------------------------------------

  ==> Geometry <==

    Molecular point group: c1
    Full point group: C1

    Geometry (in Angstrom), charge = 0, multiplicity = 1:

       Center              X                  Y                   Z               Mass       
    ------------   -----------------  -----------------  -----------------  -----------------
      Gh(N)          -0.393560317320     0.725702980632     0.795765706168    14.003074004430
      Gh(C)          -1.383320317320    -0.304724019368     0.457648706168    12.000000000000
      Gh(C)          -0.549602317320    -1.318919019368    -0.332239293832    12.000000000000
      Gh(C)           0.885720682680    -1.148148019368     0.221877706168    12.000000000000
      Gh(C)           0.753707682680    -0.050463019368     1.282661706168    12.000000000000
      Gh(H)          -2.200748317320     0.119369980632    -0.121854293832     1.007825032230
      Gh(H)          -1.799960317320    -0.776493019368     1.356251706168     1.007825032230
      Gh(H)          -0.929818317320    -2.329796019368    -0.206546293832     1.007825032230
      Gh(H)          -0.571805317320    -1.074745019368    -1.390848293832     1.007825032230
      Gh(H)           1.282609682680    -2.066566019368     0.647579706168     1.007825032230
      Gh(H)           1.554434682680    -0.821773019368    -0.569999293832     1.007825032230
      Gh(H)           0.553471682680    -0.496484019368     2.264808706168     1.007825032230
      Gh(H)           1.639674682680     0.576296980632     1.360761706168     1.007825032230
      Gh(H)          -0.744748317320     1.350127980632     1.513004706168     1.007825032230
         O            0.591196682680     1.577521980632    -2.017462293832    15.994914619570
         H            0.251127682680     1.485593980632    -1.108304293832     1.007825032230
         H            0.545892682680     2.518973980632    -2.190432293832     1.007825032230

  Running in c1 symmetry.

  Rotational constants: A =      0.13149  B =      0.07333  C =      0.07305 [cm^-1]
  Rotational constants: A =   3942.02978  B =   2198.40065  C =   2190.02486 [MHz]
  Nuclear repulsion =    9.106584042100859

  Charge       = 0
  Multiplicity = 1
  Electrons    = 10
  Nalpha       = 5
  Nbeta        = 5

  ==> Algorithm <==

  SCF Algorithm Type is DF.
  DIIS enabled.
  MOM disabled.
  Fractional occupation disabled.
  Guess Type is SAD.
  Energy threshold   = 1.00e-07
  Density threshold  = 1.00e-08
  Integral threshold = 0.00e+00

  ==> Primary Basis <==

  Basis Set: AUG-CC-PVTZ
    Blend: AUG-CC-PVTZ
    Number of shells: 183
    Number of basis function: 529
    Number of Cartesian functions: 605
    Spherical Harmonics?: true
    Max angular momentum: 3

   => Loading Basis Set <=

    Name: (AUG-CC-PVTZ AUX)
    Role: JKFIT
    Keyword: DF_BASIS_SCF
    atoms 1           entry N          line   224 file /home/liuchw/anaconda3/envs/psi4env/share/psi4/basis/aug-cc-pvtz-jkfit.gbs 
    atoms 2-5         entry C          line   162 file /home/liuchw/anaconda3/envs/psi4env/share/psi4/basis/aug-cc-pvtz-jkfit.gbs 
    atoms 6-14, 16-17 entry H          line    70 file /home/liuchw/anaconda3/envs/psi4env/share/psi4/basis/aug-cc-pvtz-jkfit.gbs 
    atoms 15          entry O          line   286 file /home/liuchw/anaconda3/envs/psi4env/share/psi4/basis/aug-cc-pvtz-jkfit.gbs 

  ==> Pre-Iterations <==

   -------------------------------------------------------
    Irrep   Nso     Nmo     Nalpha   Nbeta   Ndocc  Nsocc
   -------------------------------------------------------
     A        529     529       0       0       0       0
   -------------------------------------------------------
    Total     529     529       5       5       5       0
   -------------------------------------------------------

  ==> Integral Setup <==

  DFHelper Memory: AOs need 2.379 GiB; user supplied 27.940 GiB. Using in-core AOs.

  ==> MemDFJK: Density-Fitted J/K Matrices <==

    J tasked:                   Yes
    K tasked:                   Yes
    wK tasked:                   No
    OpenMP threads:               6
    Memory [MiB]:             28610
    Algorithm:                 Core
    Schwarz Cutoff:           1E-12
    Mask sparsity (%):       2.3292
    Fitting Condition:        1E-10

   => Auxiliary Basis Set <=

  Basis Set: (AUG-CC-PVTZ AUX)
    Blend: AUG-CC-PVTZ-JKFIT
    Number of shells: 334
    Number of basis function: 1130
    Number of Cartesian functions: 1391
    Spherical Harmonics?: true
    Max angular momentum: 4

  Minimum eigenvalue in the overlap matrix is 1.7333748701E-06.
  Using Symmetric Orthogonalization.

  SCF Guess: Superposition of Atomic Densities via on-the-fly atomic UHF.

  ==> Iterations <==

                           Total Energy        Delta E     RMS |[F,P]|

   @DF-RHF iter SAD:   -75.46747849391954   -7.54675e+01   0.00000e+00 
   @DF-RHF iter   1:   -75.97504111068298   -5.07563e-01   8.84622e-04 DIIS
   @DF-RHF iter   2:   -76.02733001155426   -5.22889e-02   6.08111e-04 DIIS
   @DF-RHF iter   3:   -76.05934341374433   -3.20134e-02   4.13773e-05 DIIS
   @DF-RHF iter   4:   -76.05974291616799   -3.99502e-04   1.00725e-05 DIIS
   @DF-RHF iter   5:   -76.05976888601336   -2.59698e-05   2.30656e-06 DIIS
   @DF-RHF iter   6:   -76.05977104197194   -2.15596e-06   5.06709e-07 DIIS
   @DF-RHF iter   7:   -76.05977115607209   -1.14100e-07   9.09602e-08 DIIS
   @DF-RHF iter   8:   -76.05977115928775   -3.21566e-09   1.53579e-08 DIIS
   @DF-RHF iter   9:   -76.05977115936012   -7.23759e-11   3.83334e-09 DIIS
  Energy and wave function converged.


  ==> Post-Iterations <==

    Orbital Energies [Eh]
    ---------------------

    Doubly Occupied:                                                      

       1A    -20.568912     2A     -1.349032     3A     -0.711967  
       4A     -0.583750     5A     -0.509670  

    Virtual:                                                              

       6A      0.016028     7A      0.031531     8A      0.034732  
       9A      0.037207    10A      0.052573    11A      0.054887  
      12A      0.058997    13A      0.060017    14A      0.062095  
      15A      0.070522    16A      0.081274    17A      0.098151  
      18A      0.103157    19A      0.104171    20A      0.113987  
      21A      0.120193    22A      0.124481    23A      0.132572  
      24A      0.132702    25A      0.135852    26A      0.136648  
      27A      0.148170    28A      0.157528    29A      0.158070  
      30A      0.166988    31A      0.170583    32A      0.176693  
      33A      0.188171    34A      0.189987    35A      0.195800  
      36A      0.201920    37A      0.208330    38A      0.216342  
      39A      0.222682    40A      0.236425    41A      0.276735  
      42A      0.279991    43A      0.280139    44A      0.293704  
      45A      0.300624    46A      0.301605    47A      0.303730  
      48A      0.312899    49A      0.314709    50A      0.325459  
      51A      0.327686    52A      0.330894    53A      0.335400  
      54A      0.343718    55A      0.351158    56A      0.359500  
      57A      0.360608    58A      0.364912    59A      0.367995  
      60A      0.375405    61A      0.379237    62A      0.379912  
      63A      0.391218    64A      0.394798    65A      0.402357  
      66A      0.404569    67A      0.420189    68A      0.423590  
      69A      0.425322    70A      0.433674    71A      0.440072  
      72A      0.446624    73A      0.464061    74A      0.467074  
      75A      0.467811    76A      0.473983    77A      0.476349  
      78A      0.496129    79A      0.500237    80A      0.512588  
      81A      0.519093    82A      0.521426    83A      0.538009  
      84A      0.541763    85A      0.552025    86A      0.554635  
      87A      0.569941    88A      0.570152    89A      0.577898  
      90A      0.590236    91A      0.590736    92A      0.602074  
      93A      0.609757    94A      0.610752    95A      0.616549  
      96A      0.619317    97A      0.633519    98A      0.642297  
      99A      0.650736   100A      0.651759   101A      0.671602  
     102A      0.673429   103A      0.675069   104A      0.684319  
     105A      0.691127   106A      0.695579   107A      0.702200  
     108A      0.713731   109A      0.720388   110A      0.728020  
     111A      0.739432   112A      0.743269   113A      0.767162  
     114A      0.770851   115A      0.777023   116A      0.790437  
     117A      0.796597   118A      0.800802   119A      0.805630  
     120A      0.823058   121A      0.823367   122A      0.843732  
     123A      0.853467   124A      0.864529   125A      0.876078  
     126A      0.878607   127A      0.893900   128A      0.899338  
     129A      0.914343   130A      0.929144   131A      0.964158  
     132A      0.975170   133A      0.976160   134A      0.988433  
     135A      0.994610   136A      1.003738   137A      1.013898  
     138A      1.027601   139A      1.028892   140A      1.039115  
     141A      1.053415   142A      1.058942   143A      1.068065  
     144A      1.081673   145A      1.089165   146A      1.090676  
     147A      1.094907   148A      1.100631   149A      1.116716  
     150A      1.120390   151A      1.122788   152A      1.125698  
     153A      1.128362   154A      1.137860   155A      1.139413  
     156A      1.141492   157A      1.146377   158A      1.163950  
     159A      1.171941   160A      1.173323   161A      1.187117  
     162A      1.192036   163A      1.202085   164A      1.219717  
     165A      1.220340   166A      1.226903   167A      1.230999  
     168A      1.234990   169A      1.255248   170A      1.257825  
     171A      1.281415   172A      1.285661   173A      1.291702  
     174A      1.309141   175A      1.315800   176A      1.327231  
     177A      1.331379   178A      1.337649   179A      1.346725  
     180A      1.363100   181A      1.366385   182A      1.378901  
     183A      1.386005   184A      1.390222   185A      1.397293  
     186A      1.404489   187A      1.417629   188A      1.427637  
     189A      1.438278   190A      1.442791   191A      1.445951  
     192A      1.460190   193A      1.468031   194A      1.479013  
     195A      1.490568   196A      1.492104   197A      1.500480  
     198A      1.509126   199A      1.519208   200A      1.523527  
     201A      1.545341   202A      1.550535   203A      1.568964  
     204A      1.573083   205A      1.574167   206A      1.577980  
     207A      1.591005   208A      1.617432   209A      1.632595  
     210A      1.635678   211A      1.640228   212A      1.661370  
     213A      1.664592   214A      1.679943   215A      1.683305  
     216A      1.699023   217A      1.702059   218A      1.707643  
     219A      1.720048   220A      1.728127   221A      1.752762  
     222A      1.774032   223A      1.777805   224A      1.780368  
     225A      1.799346   226A      1.810711   227A      1.813929  
     228A      1.827212   229A      1.832780   230A      1.869170  
     231A      1.875828   232A      1.884122   233A      1.891004  
     234A      1.909359   235A      1.919921   236A      1.954965  
     237A      1.964143   238A      1.983904   239A      2.001284  
     240A      2.021706   241A      2.032395   242A      2.038458  
     243A      2.044783   244A      2.069732   245A      2.077663  
     246A      2.078112   247A      2.106180   248A      2.121592  
     249A      2.121607   250A      2.129967   251A      2.163194  
     252A      2.182479   253A      2.188129   254A      2.196774  
     255A      2.204645   256A      2.217303   257A      2.220019  
     258A      2.234130   259A      2.255092   260A      2.264784  
     261A      2.275492   262A      2.292217   263A      2.317036  
     264A      2.330125   265A      2.345639   266A      2.359036  
     267A      2.359288   268A      2.377610   269A      2.383378  
     270A      2.393256   271A      2.428302   272A      2.440388  
     273A      2.441574   274A      2.463058   275A      2.469322  
     276A      2.481610   277A      2.515414   278A      2.529755  
     279A      2.533711   280A      2.538539   281A      2.539402  
     282A      2.553910   283A      2.582841   284A      2.598822  
     285A      2.609240   286A      2.643210   287A      2.652241  
     288A      2.658672   289A      2.667568   290A      2.688697  
     291A      2.694752   292A      2.708854   293A      2.723462  
     294A      2.741309   295A      2.745799   296A      2.766357  
     297A      2.784176   298A      2.799586   299A      2.806091  
     300A      2.852240   301A      2.861431   302A      2.861666  
     303A      2.874629   304A      2.881230   305A      2.920891  
     306A      2.929514   307A      2.930246   308A      2.968158  
     309A      2.990140   310A      2.991946   311A      3.022895  
     312A      3.044733   313A      3.053358   314A      3.100255  
     315A      3.109522   316A      3.162477   317A      3.162827  
     318A      3.181382   319A      3.222193   320A      3.243766  
     321A      3.249058   322A      3.287435   323A      3.374883  
     324A      3.421690   325A      3.469358   326A      3.536641  
     327A      3.551400   328A      3.688292   329A      3.794764  
     330A      3.832992   331A      4.054949   332A      4.071231  
     333A      4.092621   334A      4.102849   335A      4.125297  
     336A      4.133332   337A      4.149386   338A      4.173172  
     339A      4.192846   340A      4.221061   341A      4.228974  
     342A      4.267027   343A      4.289192   344A      4.297452  
     345A      4.311295   346A      4.312700   347A      4.329928  
     348A      4.340624   349A      4.360716   350A      4.380690  
     351A      4.390367   352A      4.404246   353A      4.427392  
     354A      4.443462   355A      4.445810   356A      4.463905  
     357A      4.495697   358A      4.502050   359A      4.529087  
     360A      4.533423   361A      4.538817   362A      4.571596  
     363A      4.579908   364A      4.607846   365A      4.611665  
     366A      4.625181   367A      4.655732   368A      4.700153  
     369A      4.707584   370A      4.714333   371A      4.731999  
     372A      4.738272   373A      4.748784   374A      4.776467  
     375A      4.781191   376A      4.806115   377A      4.817853  
     378A      4.825126   379A      4.837927   380A      4.858258  
     381A      4.859603   382A      4.872738   383A      4.874216  
     384A      4.909072   385A      4.912936   386A      4.922731  
     387A      4.956510   388A      4.957508   389A      4.980353  
     390A      5.002044   391A      5.026427   392A      5.044353  
     393A      5.044551   394A      5.073873   395A      5.103941  
     396A      5.108967   397A      5.152135   398A      5.155437  
     399A      5.169297   400A      5.175715   401A      5.182564  
     402A      5.202110   403A      5.216637   404A      5.263674  
     405A      5.280537   406A      5.299959   407A      5.308414  
     408A      5.351146   409A      5.367098   410A      5.407408  
     411A      5.424138   412A      5.437966   413A      5.447953  
     414A      5.453977   415A      5.468782   416A      5.486715  
     417A      5.499139   418A      5.521818   419A      5.525410  
     420A      5.527122   421A      5.540812   422A      5.557635  
     423A      5.573572   424A      5.582306   425A      5.606005  
     426A      5.608306   427A      5.628044   428A      5.632188  
     429A      5.652644   430A      5.674536   431A      5.710752  
     432A      5.720516   433A      5.730150   434A      5.761234  
     435A      5.785405   436A      5.808983   437A      5.843156  
     438A      5.892594   439A      5.894163   440A      5.912411  
     441A      5.938709   442A      5.967289   443A      6.004725  
     444A      6.012663   445A      6.023632   446A      6.033848  
     447A      6.068493   448A      6.102799   449A      6.112711  
     450A      6.145550   451A      6.182706   452A      6.232424  
     453A      6.247983   454A      6.270414   455A      6.293618  
     456A      6.301230   457A      6.322559   458A      6.354061  
     459A      6.419331   460A      6.469159   461A      6.469928  
     462A      6.561316   463A      6.570058   464A      6.593915  
     465A      6.641267   466A      6.768057   467A      6.796429  
     468A      6.807121   469A      6.846282   470A      6.891409  
     471A      6.947472   472A      7.020923   473A      7.025913  
     474A      7.064626   475A      7.076743   476A      7.169047  
     477A      7.188412   478A      7.324884   479A      7.353893  
     480A      7.365850   481A      7.378172   482A      7.390673  
     483A      7.403154   484A      7.442468   485A      7.473830  
     486A      7.503916   487A      7.540886   488A      7.545305  
     489A      7.612453   490A      7.618595   491A      7.702952  
     492A      7.809452   493A      7.841876   494A      7.868117  
     495A      7.870604   496A      7.918734   497A      7.952261  
     498A      7.985150   499A      8.002242   500A      8.023557  
     501A      8.070630   502A      8.082422   503A      8.142071  
     504A      8.180058   505A      8.317271   506A      8.395188  
     507A      8.470796   508A      8.548258   509A      8.601209  
     510A      8.673169   511A      8.867881   512A      8.925545  
     513A      9.103971   514A      9.166170   515A      9.320231  
     516A     10.389756   517A     10.536827   518A     10.804777  
     519A     10.856048   520A     11.126288   521A     11.434906  
     522A     11.716105   523A     12.013949   524A     16.627152  
     525A     53.980295   526A     54.951414   527A     54.967497  
     528A     57.610554   529A     61.308287  

    Final Occupation by Irrep:
              A 
    DOCC [     5 ]

  @DF-RHF Final Energy:   -76.05977115936012

   => Energetics <=

    Nuclear Repulsion Energy =              9.1065840421008595
    One-Electron Energy =                -122.8860475636410143
    Two-Electron Energy =                  37.7196923621800337
    Total Energy =                        -76.0597711593601105

Computation Completed


Properties will be evaluated at   0.000000,   0.000000,   0.000000 [a0]

Properties computed using the SCF density matrix

  Nuclear Dipole Moment: [e a0]
     X:    10.4437      Y:    31.4162      Z:   -36.7333

  Electronic Dipole Moment: [e a0]
     X:   -10.6979      Y:   -30.8529      Z:    37.2180

  Dipole Moment: [e a0]
     X:    -0.2542      Y:     0.5633      Z:     0.4847     Total:     0.7854

  Dipole Moment: [D]
     X:    -0.6461      Y:     1.4318      Z:     1.2320     Total:     1.9963


*** tstop() called on node52.bme.utexas.edu at Sat Apr 11 17:30:27 2020
Module time:
	user time   =      58.75 seconds =       0.98 minutes
	system time =       1.21 seconds =       0.02 minutes
	total time  =         11 seconds =       0.18 minutes
Total time:
	user time   =      80.95 seconds =       1.35 minutes
	system time =       1.98 seconds =       0.03 minutes
	total time  =         18 seconds =       0.30 minutes

*** tstart() called on node52.bme.utexas.edu
*** at Sat Apr 11 17:30:27 2020


  //>>>>>>>>>>>>>>>>>>>>>>>>>>>>>>>>>>>//
  //               DFMP2               //
  //<<<<<<<<<<<<<<<<<<<<<<<<<<<<<<<<<<<//

   => Loading Basis Set <=

    Name: (AUG-CC-PVTZ AUX)
    Role: RIFIT
    Keyword: DF_BASIS_MP2
    atoms 1           entry N          line   206 file /home/liuchw/anaconda3/envs/psi4env/share/psi4/basis/aug-cc-pvtz-ri.gbs 
    atoms 2-5         entry C          line   148 file /home/liuchw/anaconda3/envs/psi4env/share/psi4/basis/aug-cc-pvtz-ri.gbs 
    atoms 6-14, 16-17 entry H          line    30 file /home/liuchw/anaconda3/envs/psi4env/share/psi4/basis/aug-cc-pvtz-ri.gbs 
    atoms 15          entry O          line   264 file /home/liuchw/anaconda3/envs/psi4env/share/psi4/basis/aug-cc-pvtz-ri.gbs 

	 --------------------------------------------------------
	                          DF-MP2                         
	      2nd-Order Density-Fitted Moller-Plesset Theory     
	              RMP2 Wavefunction,   6 Threads             
	                                                         
	        Rob Parrish, Justin Turney, Andy Simmonett,      
	           Ed Hohenstein, and C. David Sherrill          
	 --------------------------------------------------------

   => Auxiliary Basis Set <=

  Basis Set: (AUG-CC-PVTZ AUX)
    Blend: AUG-CC-PVTZ-RI
    Number of shells: 322
    Number of basis function: 1142
    Number of Cartesian functions: 1421
    Spherical Harmonics?: true
    Max angular momentum: 4

	 --------------------------------------------------------
	                 NBF =   529, NAUX =  1142
	 --------------------------------------------------------
	   CLASS    FOCC     OCC    AOCC    AVIR     VIR    FVIR
	   PAIRS       0       5       5     524     524       0
	 --------------------------------------------------------

	-----------------------------------------------------------
	 ==================> DF-MP2 Energies <==================== 
	-----------------------------------------------------------
	 Reference Energy          =     -76.0597711593601247 [Eh]
	 Singles Energy            =      -0.0000000000000000 [Eh]
	 Same-Spin Energy          =      -0.0685912450997204 [Eh]
	 Opposite-Spin Energy      =      -0.2166291297790653 [Eh]
	 Correlation Energy        =      -0.2852203748787857 [Eh]
	 Total Energy              =     -76.3449915342389147 [Eh]
	-----------------------------------------------------------
	 ================> DF-SCS-MP2 Energies <================== 
	-----------------------------------------------------------
	 SCS Same-Spin Scale       =       0.3333333333333333 [-]
	 SCS Opposite-Spin Scale   =       1.2000000000000000 [-]
	 SCS Same-Spin Energy      =      -0.0228637483665735 [Eh]
	 SCS Opposite-Spin Energy  =      -0.2599549557348784 [Eh]
	 SCS Correlation Energy    =      -0.2828187041014518 [Eh]
	 SCS Total Energy          =     -76.3425898634615834 [Eh]
	-----------------------------------------------------------


*** tstop() called on node52.bme.utexas.edu at Sat Apr 11 17:30:33 2020
Module time:
	user time   =      25.89 seconds =       0.43 minutes
	system time =       0.62 seconds =       0.01 minutes
	total time  =          6 seconds =       0.10 minutes
Total time:
	user time   =     106.84 seconds =       1.78 minutes
	system time =       2.60 seconds =       0.04 minutes
	total time  =         24 seconds =       0.40 minutes

  //>>>>>>>>>>>>>>>>>>>>>>>>>>>>>>>>>>>>//
  // CBS Computation: MP2 / AUG-CC-PVQZ //
  //<<<<<<<<<<<<<<<<<<<<<<<<<<<<<<<<<<<<//


Scratch directory: /scratch//

*** tstart() called on node52.bme.utexas.edu
*** at Sat Apr 11 17:30:33 2020

   => Loading Basis Set <=

    Name: AUG-CC-PVQZ
    Role: ORBITAL
    Keyword: BASIS
    atoms 1           entry N          line   363 file /home/liuchw/anaconda3/envs/psi4env/share/psi4/basis/aug-cc-pvqz.gbs 
    atoms 2-5         entry C          line   303 file /home/liuchw/anaconda3/envs/psi4env/share/psi4/basis/aug-cc-pvqz.gbs 
    atoms 6-14, 16-17 entry H          line    40 file /home/liuchw/anaconda3/envs/psi4env/share/psi4/basis/aug-cc-pvqz.gbs 
    atoms 15          entry O          line   423 file /home/liuchw/anaconda3/envs/psi4env/share/psi4/basis/aug-cc-pvqz.gbs 


         ---------------------------------------------------------
                                   SCF
               by Justin Turney, Rob Parrish, Andy Simmonett
                          and Daniel G. A. Smith
                              RHF Reference
                        6 Threads,  38146 MiB Core
         ---------------------------------------------------------

  ==> Geometry <==

    Molecular point group: c1
    Full point group: C1

    Geometry (in Angstrom), charge = 0, multiplicity = 1:

       Center              X                  Y                   Z               Mass       
    ------------   -----------------  -----------------  -----------------  -----------------
      Gh(N)          -0.393560317320     0.725702980632     0.795765706168    14.003074004430
      Gh(C)          -1.383320317320    -0.304724019368     0.457648706168    12.000000000000
      Gh(C)          -0.549602317320    -1.318919019368    -0.332239293832    12.000000000000
      Gh(C)           0.885720682680    -1.148148019368     0.221877706168    12.000000000000
      Gh(C)           0.753707682680    -0.050463019368     1.282661706168    12.000000000000
      Gh(H)          -2.200748317320     0.119369980632    -0.121854293832     1.007825032230
      Gh(H)          -1.799960317320    -0.776493019368     1.356251706168     1.007825032230
      Gh(H)          -0.929818317320    -2.329796019368    -0.206546293832     1.007825032230
      Gh(H)          -0.571805317320    -1.074745019368    -1.390848293832     1.007825032230
      Gh(H)           1.282609682680    -2.066566019368     0.647579706168     1.007825032230
      Gh(H)           1.554434682680    -0.821773019368    -0.569999293832     1.007825032230
      Gh(H)           0.553471682680    -0.496484019368     2.264808706168     1.007825032230
      Gh(H)           1.639674682680     0.576296980632     1.360761706168     1.007825032230
      Gh(H)          -0.744748317320     1.350127980632     1.513004706168     1.007825032230
         O            0.591196682680     1.577521980632    -2.017462293832    15.994914619570
         H            0.251127682680     1.485593980632    -1.108304293832     1.007825032230
         H            0.545892682680     2.518973980632    -2.190432293832     1.007825032230

  Running in c1 symmetry.

  Rotational constants: A =      0.13149  B =      0.07333  C =      0.07305 [cm^-1]
  Rotational constants: A =   3942.02978  B =   2198.40065  C =   2190.02486 [MHz]
  Nuclear repulsion =    9.106584042100859

  Charge       = 0
  Multiplicity = 1
  Electrons    = 10
  Nalpha       = 5
  Nbeta        = 5

  ==> Algorithm <==

  SCF Algorithm Type is DF.
  DIIS enabled.
  MOM disabled.
  Fractional occupation disabled.
  Guess Type is SAD.
  Energy threshold   = 1.00e-07
  Density threshold  = 1.00e-08
  Integral threshold = 0.00e+00

  ==> Primary Basis <==

  Basis Set: AUG-CC-PVQZ
    Blend: AUG-CC-PVQZ
    Number of shells: 274
    Number of basis function: 986
    Number of Cartesian functions: 1235
    Spherical Harmonics?: true
    Max angular momentum: 4

   => Loading Basis Set <=

    Name: (AUG-CC-PVQZ AUX)
    Role: JKFIT
    Keyword: DF_BASIS_SCF
    atoms 1           entry N          line   248 file /home/liuchw/anaconda3/envs/psi4env/share/psi4/basis/aug-cc-pvqz-jkfit.gbs 
    atoms 2-5         entry C          line   178 file /home/liuchw/anaconda3/envs/psi4env/share/psi4/basis/aug-cc-pvqz-jkfit.gbs 
    atoms 6-14, 16-17 entry H          line    70 file /home/liuchw/anaconda3/envs/psi4env/share/psi4/basis/aug-cc-pvqz-jkfit.gbs 
    atoms 15          entry O          line   318 file /home/liuchw/anaconda3/envs/psi4env/share/psi4/basis/aug-cc-pvqz-jkfit.gbs 

  ==> Pre-Iterations <==

   -------------------------------------------------------
    Irrep   Nso     Nmo     Nalpha   Nbeta   Ndocc  Nsocc
   -------------------------------------------------------
     A        986     986       0       0       0       0
   -------------------------------------------------------
    Total     986     986       5       5       5       0
   -------------------------------------------------------

  ==> Integral Setup <==

  DFHelper Memory: AOs need 11.887 GiB; user supplied 27.940 GiB. Using in-core AOs.

  ==> MemDFJK: Density-Fitted J/K Matrices <==

    J tasked:                   Yes
    K tasked:                   Yes
    wK tasked:                   No
    OpenMP threads:               6
    Memory [MiB]:             28610
    Algorithm:                 Core
    Schwarz Cutoff:           1E-12
    Mask sparsity (%):       5.2662
    Fitting Condition:        1E-10

   => Auxiliary Basis Set <=

  Basis Set: (AUG-CC-PVQZ AUX)
    Blend: AUG-CC-PVQZ-JKFIT
    Number of shells: 402
    Number of basis function: 1688
    Number of Cartesian functions: 2299
    Spherical Harmonics?: true
    Max angular momentum: 5

  Minimum eigenvalue in the overlap matrix is 4.4491947778E-07.
  Using Symmetric Orthogonalization.

  SCF Guess: Superposition of Atomic Densities via on-the-fly atomic UHF.

  ==> Iterations <==

                           Total Energy        Delta E     RMS |[F,P]|

   @DF-RHF iter SAD:   -75.47260900059229   -7.54726e+01   0.00000e+00 
   @DF-RHF iter   1:   -75.98004037242504   -5.07431e-01   4.75601e-04 DIIS
   @DF-RHF iter   2:   -76.03241749775641   -5.23771e-02   3.27631e-04 DIIS
   @DF-RHF iter   3:   -76.06462608551803   -3.22086e-02   2.23660e-05 DIIS
   @DF-RHF iter   4:   -76.06502762667519   -4.01541e-04   5.56252e-06 DIIS
   @DF-RHF iter   5:   -76.06505449117471   -2.68645e-05   1.26915e-06 DIIS
   @DF-RHF iter   6:   -76.06505672965244   -2.23848e-06   2.86209e-07 DIIS
   @DF-RHF iter   7:   -76.06505685549921   -1.25847e-07   5.30102e-08 DIIS
   @DF-RHF iter   8:   -76.06505685927965   -3.78044e-09   8.62364e-09 DIIS
  Energy and wave function converged.


  ==> Post-Iterations <==

    Orbital Energies [Eh]
    ---------------------

    Doubly Occupied:                                                      

       1A    -20.566499     2A     -1.348342     3A     -0.711971  
       4A     -0.583845     5A     -0.509817  

    Virtual:                                                              

       6A      0.014389     7A      0.028485     8A      0.030672  
       9A      0.033384    10A      0.047500    11A      0.049200  
      12A      0.053198    13A      0.053584    14A      0.055237  
      15A      0.063404    16A      0.072559    17A      0.088393  
      18A      0.091869    19A      0.092507    20A      0.099111  
      21A      0.105564    22A      0.109699    23A      0.116873  
      24A      0.118247    25A      0.119204    26A      0.120257  
      27A      0.128770    28A      0.137628    29A      0.138009  
      30A      0.145638    31A      0.148737    32A      0.154638  
      33A      0.164025    34A      0.165808    35A      0.171224  
      36A      0.175680    37A      0.182564    38A      0.183183  
      39A      0.189498    40A      0.208499    41A      0.235931  
      42A      0.237488    43A      0.239076    44A      0.245735  
      45A      0.249704    46A      0.250745    47A      0.259417  
      48A      0.266967    49A      0.267493    50A      0.272700  
      51A      0.278578    52A      0.284638    53A      0.284856  
      54A      0.291601    55A      0.300540    56A      0.301795  
      57A      0.305567    58A      0.306010    59A      0.313894  
      60A      0.314543    61A      0.322302    62A      0.322334  
      63A      0.330249    64A      0.341910    65A      0.345671  
      66A      0.347483    67A      0.348271    68A      0.355026  
      69A      0.359964    70A      0.363489    71A      0.363599  
      72A      0.371752    73A      0.379620    74A      0.386225  
      75A      0.387672    76A      0.389516    77A      0.395910  
      78A      0.407468    79A      0.412543    80A      0.427356  
      81A      0.427692    82A      0.431239    83A      0.441631  
      84A      0.446032    85A      0.453217    86A      0.460036  
      87A      0.463567    88A      0.469230    89A      0.470419  
      90A      0.474545    91A      0.475536    92A      0.476132  
      93A      0.488057    94A      0.498189    95A      0.498517  
      96A      0.503370    97A      0.504551    98A      0.511578  
      99A      0.511822   100A      0.521797   101A      0.530845  
     102A      0.535629   103A      0.543108   104A      0.545502  
     105A      0.553579   106A      0.555439   107A      0.560884  
     108A      0.564483   109A      0.579939   110A      0.584299  
     111A      0.588813   112A      0.600632   113A      0.601313  
     114A      0.605678   115A      0.617046   116A      0.617977  
     117A      0.635231   118A      0.637431   119A      0.648051  
     120A      0.651700   121A      0.652371   122A      0.664711  
     123A      0.670096   124A      0.672807   125A      0.674688  
     126A      0.691822   127A      0.695675   128A      0.695829  
     129A      0.699525   130A      0.725726   131A      0.734247  
     132A      0.747361   133A      0.749726   134A      0.752004  
     135A      0.759441   136A      0.763822   137A      0.767716  
     138A      0.778176   139A      0.785636   140A      0.787385  
     141A      0.788601   142A      0.794091   143A      0.808391  
     144A      0.810793   145A      0.815949   146A      0.827178  
     147A      0.838382   148A      0.844139   149A      0.847958  
     150A      0.850451   151A      0.853009   152A      0.873853  
     153A      0.874760   154A      0.877040   155A      0.885397  
     156A      0.889550   157A      0.900452   158A      0.905455  
     159A      0.912139   160A      0.915306   161A      0.917660  
     162A      0.920683   163A      0.921257   164A      0.925031  
     165A      0.931473   166A      0.937082   167A      0.941628  
     168A      0.949880   169A      0.950614   170A      0.965184  
     171A      0.973287   172A      0.975754   173A      0.976759  
     174A      0.984014   175A      1.001917   176A      1.008467  
     177A      1.019931   178A      1.022820   179A      1.030161  
     180A      1.030827   181A      1.042778   182A      1.044252  
     183A      1.051343   184A      1.057166   185A      1.065840  
     186A      1.071907   187A      1.084729   188A      1.084816  
     189A      1.089430   190A      1.094564   191A      1.095137  
     192A      1.107613   193A      1.117433   194A      1.122518  
     195A      1.124943   196A      1.132122   197A      1.133078  
     198A      1.143014   199A      1.151901   200A      1.154796  
     201A      1.157611   202A      1.165389   203A      1.179396  
     204A      1.184149   205A      1.185432   206A      1.197814  
     207A      1.198338   208A      1.205039   209A      1.215977  
     210A      1.220552   211A      1.228879   212A      1.246967  
     213A      1.247228   214A      1.255031   215A      1.255151  
     216A      1.276423   217A      1.287190   218A      1.293984  
     219A      1.311689   220A      1.318746   221A      1.324477  
     222A      1.326450   223A      1.336188   224A      1.338016  
     225A      1.355017   226A      1.359196   227A      1.363056  
     228A      1.366266   229A      1.368574   230A      1.391709  
     231A      1.404830   232A      1.405836   233A      1.416294  
     234A      1.432762   235A      1.437965   236A      1.450053  
     237A      1.466325   238A      1.471169   239A      1.487721  
     240A      1.490128   241A      1.501699   242A      1.512532  
     243A      1.516697   244A      1.531867   245A      1.540872  
     246A      1.551918   247A      1.557021   248A      1.561671  
     249A      1.570169   250A      1.577209   251A      1.582446  
     252A      1.591522   253A      1.601605   254A      1.608928  
     255A      1.621664   256A      1.623238   257A      1.632539  
     258A      1.649728   259A      1.657235   260A      1.666566  
     261A      1.675446   262A      1.679445   263A      1.688007  
     264A      1.688025   265A      1.693938   266A      1.700973  
     267A      1.701772   268A      1.705715   269A      1.706777  
     270A      1.727745   271A      1.733171   272A      1.740882  
     273A      1.756286   274A      1.761775   275A      1.773103  
     276A      1.779288   277A      1.785119   278A      1.790527  
     279A      1.809739   280A      1.810816   281A      1.815009  
     282A      1.818293   283A      1.831889   284A      1.833789  
     285A      1.843644   286A      1.845976   287A      1.858302  
     288A      1.869706   289A      1.871043   290A      1.883129  
     291A      1.887667   292A      1.890874   293A      1.898101  
     294A      1.898255   295A      1.922918   296A      1.929627  
     297A      1.945723   298A      1.947043   299A      1.957914  
     300A      1.962364   301A      1.973677   302A      1.981580  
     303A      1.991632   304A      1.992936   305A      2.000867  
     306A      2.010453   307A      2.012242   308A      2.019971  
     309A      2.026493   310A      2.036782   311A      2.039124  
     312A      2.046402   313A      2.050384   314A      2.067620  
     315A      2.074308   316A      2.077856   317A      2.086633  
     318A      2.087016   319A      2.104134   320A      2.108877  
     321A      2.125756   322A      2.136996   323A      2.140017  
     324A      2.145622   325A      2.147746   326A      2.162439  
     327A      2.164983   328A      2.169239   329A      2.183058  
     330A      2.187267   331A      2.190789   332A      2.199115  
     333A      2.207695   334A      2.211536   335A      2.221877  
     336A      2.225569   337A      2.237972   338A      2.242199  
     339A      2.249767   340A      2.258264   341A      2.261621  
     342A      2.270149   343A      2.276582   344A      2.289027  
     345A      2.301137   346A      2.308731   347A      2.314802  
     348A      2.329754   349A      2.330062   350A      2.344457  
     351A      2.352579   352A      2.361735   353A      2.365930  
     354A      2.372146   355A      2.380536   356A      2.386156  
     357A      2.398193   358A      2.404848   359A      2.406279  
     360A      2.411507   361A      2.413714   362A      2.452087  
     363A      2.453933   364A      2.463789   365A      2.470052  
     366A      2.483441   367A      2.486184   368A      2.488125  
     369A      2.489386   370A      2.500636   371A      2.502232  
     372A      2.530155   373A      2.536743   374A      2.546286  
     375A      2.558269   376A      2.559283   377A      2.568514  
     378A      2.574746   379A      2.583511   380A      2.586232  
     381A      2.608084   382A      2.630906   383A      2.632350  
     384A      2.646991   385A      2.649707   386A      2.655840  
     387A      2.675648   388A      2.684156   389A      2.690573  
     390A      2.690967   391A      2.708974   392A      2.710890  
     393A      2.725527   394A      2.735320   395A      2.741156  
     396A      2.769196   397A      2.769431   398A      2.781912  
     399A      2.799491   400A      2.806404   401A      2.821301  
     402A      2.834348   403A      2.838902   404A      2.847456  
     405A      2.860454   406A      2.862340   407A      2.864129  
     408A      2.895474   409A      2.898893   410A      2.919961  
     411A      2.921330   412A      2.933741   413A      2.941136  
     414A      2.960289   415A      2.969116   416A      2.975913  
     417A      3.008064   418A      3.014431   419A      3.023608  
     420A      3.027640   421A      3.032723   422A      3.055601  
     423A      3.063803   424A      3.070147   425A      3.077897  
     426A      3.088903   427A      3.111892   428A      3.112247  
     429A      3.130859   430A      3.136211   431A      3.145743  
     432A      3.151491   433A      3.160553   434A      3.171738  
     435A      3.172093   436A      3.199482   437A      3.206976  
     438A      3.217783   439A      3.232834   440A      3.243581  
     441A      3.253181   442A      3.258505   443A      3.270713  
     444A      3.285814   445A      3.299834   446A      3.304731  
     447A      3.322014   448A      3.324681   449A      3.330688  
     450A      3.348499   451A      3.364144   452A      3.366571  
     453A      3.374893   454A      3.375008   455A      3.392852  
     456A      3.399686   457A      3.421148   458A      3.422550  
     459A      3.426086   460A      3.454066   461A      3.458989  
     462A      3.466347   463A      3.475008   464A      3.475992  
     465A      3.476952   466A      3.488226   467A      3.512218  
     468A      3.522758   469A      3.533274   470A      3.547562  
     471A      3.564646   472A      3.569736   473A      3.572884  
     474A      3.582651   475A      3.610648   476A      3.633778  
     477A      3.641715   478A      3.658456   479A      3.659342  
     480A      3.674757   481A      3.675848   482A      3.698500  
     483A      3.714289   484A      3.723539   485A      3.734743  
     486A      3.740151   487A      3.747872   488A      3.753011  
     489A      3.756490   490A      3.757862   491A      3.792089  
     492A      3.813030   493A      3.813333   494A      3.828529  
     495A      3.846095   496A      3.846698   497A      3.853833  
     498A      3.872042   499A      3.881174   500A      3.899688  
     501A      3.903739   502A      3.911570   503A      3.921930  
     504A      3.928076   505A      3.932394   506A      3.950744  
     507A      3.962733   508A      3.967039   509A      3.972896  
     510A      3.974999   511A      4.002643   512A      4.015224  
     513A      4.025175   514A      4.049825   515A      4.053880  
     516A      4.059082   517A      4.069050   518A      4.081793  
     519A      4.084647   520A      4.112280   521A      4.127938  
     522A      4.135973   523A      4.148628   524A      4.161192  
     525A      4.161757   526A      4.181130   527A      4.189919  
     528A      4.191452   529A      4.216690   530A      4.221908  
     531A      4.234804   532A      4.252959   533A      4.259994  
     534A      4.261740   535A      4.269654   536A      4.303036  
     537A      4.312944   538A      4.314865   539A      4.330194  
     540A      4.334586   541A      4.366914   542A      4.376488  
     543A      4.390132   544A      4.407398   545A      4.419372  
     546A      4.436497   547A      4.437233   548A      4.449897  
     549A      4.463065   550A      4.502195   551A      4.512553  
     552A      4.519501   553A      4.547444   554A      4.549121  
     555A      4.561895   556A      4.587091   557A      4.599247  
     558A      4.614855   559A      4.619889   560A      4.645457  
     561A      4.648059   562A      4.670545   563A      4.690743  
     564A      4.695907   565A      4.703424   566A      4.730163  
     567A      4.750673   568A      4.750791   569A      4.806602  
     570A      4.810796   571A      4.845697   572A      4.852722  
     573A      4.859475   574A      4.886950   575A      4.891127  
     576A      4.899500   577A      4.904096   578A      4.915084  
     579A      4.937042   580A      4.952490   581A      4.959093  
     582A      4.965161   583A      4.989802   584A      5.003338  
     585A      5.014176   586A      5.041289   587A      5.044933  
     588A      5.064268   589A      5.070581   590A      5.087054  
     591A      5.094141   592A      5.130713   593A      5.135810  
     594A      5.156715   595A      5.163132   596A      5.178813  
     597A      5.195804   598A      5.223542   599A      5.272323  
     600A      5.287704   601A      5.288620   602A      5.294031  
     603A      5.324027   604A      5.343779   605A      5.379598  
     606A      5.392814   607A      5.401423   608A      5.414808  
     609A      5.432584   610A      5.452795   611A      5.470878  
     612A      5.471593   613A      5.505694   614A      5.518345  
     615A      5.556307   616A      5.564496   617A      5.576656  
     618A      5.609703   619A      5.611259   620A      5.634140  
     621A      5.646911   622A      5.661267   623A      5.693518  
     624A      5.697900   625A      5.728362   626A      5.734755  
     627A      5.764740   628A      5.767987   629A      5.781426  
     630A      5.782714   631A      5.834662   632A      5.837357  
     633A      5.886239   634A      5.901605   635A      5.921827  
     636A      5.926737   637A      5.950492   638A      5.970122  
     639A      5.986091   640A      5.997822   641A      6.019804  
     642A      6.074423   643A      6.095674   644A      6.106293  
     645A      6.128123   646A      6.207171   647A      6.317965  
     648A      6.329885   649A      6.347971   650A      6.408053  
     651A      6.467277   652A      6.510494   653A      6.581118  
     654A      6.616568   655A      6.713136   656A      6.764408  
     657A      6.880801   658A      6.940449   659A      6.946553  
     660A      6.951775   661A      6.996819   662A      7.030445  
[...]
     533A      3.957808   534A      3.963152   535A      3.984055  
     536A      3.989788   537A      3.989963   538A      4.006378  
     539A      4.031778   540A      4.043587   541A      4.045139  
     542A      4.052617   543A      4.071436   544A      4.081368  
     545A      4.081583   546A      4.089411   547A      4.122518  
     548A      4.129459   549A      4.137968   550A      4.151660  
     551A      4.158864   552A      4.174630   553A      4.180067  
     554A      4.193257   555A      4.216932   556A      4.219483  
     557A      4.237122   558A      4.250686   559A      4.267664  
     560A      4.269001   561A      4.276093   562A      4.289166  
     563A      4.312155   564A      4.318348   565A      4.327143  
     566A      4.331987   567A      4.351941   568A      4.358614  
     569A      4.364748   570A      4.375392   571A      4.385364  
     572A      4.392063   573A      4.407247   574A      4.424371  
     575A      4.433948   576A      4.451177   577A      4.463296  
     578A      4.473833   579A      4.481996   580A      4.506300  
     581A      4.519914   582A      4.527968   583A      4.547923  
     584A      4.558152   585A      4.575952   586A      4.591972  
     587A      4.602676   588A      4.606309   589A      4.610094  
     590A      4.630453   591A      4.649022   592A      4.667341  
     593A      4.681499   594A      4.696716   595A      4.711947  
     596A      4.724032   597A      4.733606   598A      4.734478  
     599A      4.760775   600A      4.786037   601A      4.792270  
     602A      4.809459   603A      4.815729   604A      4.836504  
     605A      4.843505   606A      4.849686   607A      4.867437  
     608A      4.870479   609A      4.878325   610A      4.913229  
     611A      4.938440   612A      4.945618   613A      4.951247  
     614A      4.982495   615A      4.989733   616A      4.994500  
     617A      5.011506   618A      5.015768   619A      5.016607  
     620A      5.023693   621A      5.045824   622A      5.077899  
     623A      5.084204   624A      5.121534   625A      5.127711  
     626A      5.154268   627A      5.158255   628A      5.194357  
     629A      5.200352   630A      5.223336   631A      5.237640  
     632A      5.253044   633A      5.280779   634A      5.298016  
     635A      5.340979   636A      5.357500   637A      5.358103  
     638A      5.373554   639A      5.397816   640A      5.407042  
     641A      5.434949   642A      5.478674   643A      5.484774  
     644A      5.497312   645A      5.534293   646A      5.579513  
     647A      5.583289   648A      5.607699   649A      5.640298  
     650A      5.701864   651A      5.734185   652A      5.737173  
     653A      5.813924   654A      5.817148   655A      5.861549  
     656A      5.867945   657A      6.079185   658A      6.173622  
     659A      6.225562   660A      6.271915   661A      6.311331  
     662A      6.347014   663A      6.400790   664A      6.421626  
     665A      6.447978   666A      6.459075   667A      6.502640  
     668A      6.554791   669A      6.560159   670A      6.615592  
     671A      6.630296   672A      6.656204   673A      6.666404  
     674A      6.667268   675A      6.686582   676A      6.728900  
     677A      6.741491   678A      6.783918   679A      6.789753  
     680A      6.845548   681A      6.848405   682A      6.860440  
     683A      6.892838   684A      6.896330   685A      6.915145  
     686A      6.918112   687A      6.936417   688A      6.944359  
     689A      6.947298   690A      6.959876   691A      6.969222  
     692A      6.988217   693A      7.003444   694A      7.004925  
     695A      7.013538   696A      7.018357   697A      7.038392  
     698A      7.039896   699A      7.057458   700A      7.082745  
     701A      7.091971   702A      7.092390   703A      7.104391  
     704A      7.108294   705A      7.140997   706A      7.150507  
     707A      7.167224   708A      7.170051   709A      7.183802  
     710A      7.187971   711A      7.209988   712A      7.216748  
     713A      7.241102   714A      7.276923   715A      7.284975  
     716A      7.307357   717A      7.315873   718A      7.324717  
     719A      7.344044   720A      7.350235   721A      7.380326  
     722A      7.389039   723A      7.433595   724A      7.436237  
     725A      7.446504   726A      7.460882   727A      7.489812  
     728A      7.490642   729A      7.504867   730A      7.538268  
     731A      7.551381   732A      7.557227   733A      7.569364  
     734A      7.573791   735A      7.598941   736A      7.606690  
     737A      7.634770   738A      7.652318   739A      7.654328  
     740A      7.695683   741A      7.699291   742A      7.712673  
     743A      7.752284   744A      7.753132   745A      7.782558  
     746A      7.796502   747A      7.813947   748A      7.839840  
     749A      7.850887   750A      7.864838   751A      7.867211  
     752A      7.875748   753A      7.893112   754A      7.918341  
     755A      7.920288   756A      7.949976   757A      7.959843  
     758A      7.977675   759A      7.996857   760A      8.004734  
     761A      8.013613   762A      8.029439   763A      8.049703  
     764A      8.068516   765A      8.072672   766A      8.085565  
     767A      8.093255   768A      8.108535   769A      8.142757  
     770A      8.155044   771A      8.159055   772A      8.179291  
     773A      8.181876   774A      8.216744   775A      8.244806  
     776A      8.256293   777A      8.285558   778A      8.296034  
     779A      8.296223   780A      8.306545   781A      8.325292  
     782A      8.340302   783A      8.343796   784A      8.368022  
     785A      8.403770   786A      8.436232   787A      8.491257  
     788A      8.506553   789A      8.516851   790A      8.523616  
     791A      8.566001   792A      8.577422   793A      8.616677  
     794A      8.628457   795A      8.643397   796A      8.657536  
     797A      8.672251   798A      8.696193   799A      8.714206  
     800A      8.747299   801A      8.752438   802A      8.759074  
     803A      8.794207   804A      8.808725   805A      8.826239  
     806A      8.858190   807A      8.861621   808A      8.867989  
     809A      8.879949   810A      8.888275   811A      8.911456  
     812A      8.947938   813A      8.961979   814A      8.985460  
     815A      8.989100   816A      8.996108   817A      9.011518  
     818A      9.013608   819A      9.035389   820A      9.097166  
     821A      9.106285   822A      9.111039   823A      9.138445  
     824A      9.148370   825A      9.148886   826A      9.175199  
     827A      9.208743   828A      9.212152   829A      9.234880  
     830A      9.238252   831A      9.265523   832A      9.270060  
     833A      9.307377   834A      9.313930   835A      9.350293  
     836A      9.360102   837A      9.370107   838A      9.373996  
     839A      9.401758   840A      9.407701   841A      9.411861  
     842A      9.419427   843A      9.438519   844A      9.467033  
     845A      9.496387   846A      9.527471   847A      9.543993  
     848A      9.557791   849A      9.567268   850A      9.584318  
     851A      9.594415   852A      9.619235   853A      9.651191  
     854A      9.680791   855A      9.709535   856A      9.731349  
     857A      9.739445   858A      9.742436   859A      9.774354  
     860A      9.813378   861A      9.814547   862A      9.839882  
     863A      9.845107   864A      9.862949   865A      9.877100  
     866A      9.884176   867A      9.903910   868A      9.920162  
     869A      9.946994   870A      9.964784   871A      9.977459  
     872A      9.982818   873A      9.998056   874A     10.007610  
     875A     10.025352   876A     10.040980   877A     10.042570  
     878A     10.056055   879A     10.110944   880A     10.112609  
     881A     10.128985   882A     10.149017   883A     10.155057  
     884A     10.171942   885A     10.172407   886A     10.210128  
     887A     10.228967   888A     10.245043   889A     10.258449  
     890A     10.275307   891A     10.296451   892A     10.311416  
     893A     10.345661   894A     10.366925   895A     10.373830  
     896A     10.385738   897A     10.430172   898A     10.443403  
     899A     10.469477   900A     10.512035   901A     10.528008  
     902A     10.537878   903A     10.571267   904A     10.587751  
     905A     10.595785   906A     10.608788   907A     10.643148  
     908A     10.675482   909A     10.677273   910A     10.699780  
     911A     10.710215   912A     10.724471   913A     10.768849  
     914A     10.845783   915A     10.879865   916A     10.888106  
     917A     10.938054   918A     10.941173   919A     11.009971  
     920A     11.082380   921A     11.109303   922A     11.143764  
     923A     11.148304   924A     11.158746   925A     11.162966  
     926A     11.183310   927A     11.215064   928A     11.236215  
     929A     11.239746   930A     11.248504   931A     11.288165  
     932A     11.350939   933A     11.373996   934A     11.392336  
     935A     11.423603   936A     11.437926   937A     11.473594  
     938A     11.492540   939A     11.542625   940A     11.544124  
     941A     11.578833   942A     11.631324   943A     11.644336  
     944A     11.671426   945A     11.735065   946A     11.820979  
     947A     11.889146   948A     11.920319   949A     11.951023  
     950A     12.066466   951A     12.077766   952A     12.148461  
     953A     12.297209   954A     12.416044   955A     12.448390  
     956A     12.458702   957A     12.649273   958A     12.861816  
     959A     12.939528   960A     12.969550   961A     13.051405  
     962A     13.185652   963A     13.352822   964A     13.431700  
     965A     13.566286   966A     13.634653   967A     13.681905  
     968A     13.694626   969A     13.706676   970A     13.841968  
     971A     14.010459   972A     14.097919   973A     14.330329  
     974A     14.529136   975A     14.832988   976A     14.963464  
     977A     15.295047   978A     15.424282   979A     17.063309  
     980A     17.525054   981A     28.461017   982A     28.658767  
     983A     28.684057   984A     29.136826   985A     36.359786  
     986A     45.909826  

    Final Occupation by Irrep:
              A 
    DOCC [    25 ]

  @DF-RHF Final Energy:  -287.30808330935770

   => Energetics <=

    Nuclear Repulsion Energy =            260.0351885073408766
    One-Electron Energy =                -906.2136692648527969
    Two-Electron Energy =                 358.8703974481542218
    Total Energy =                       -287.3080833093576985

Computation Completed


Properties will be evaluated at   0.000000,   0.000000,   0.000000 [a0]

Properties computed using the SCF density matrix

  Nuclear Dipole Moment: [e a0]
     X:    -0.3896      Y:    -1.4153      Z:     1.4452

  Electronic Dipole Moment: [e a0]
     X:    -0.0032      Y:     1.5677      Z:    -0.4749

  Dipole Moment: [e a0]
     X:    -0.3928      Y:     0.1525      Z:     0.9703     Total:     1.0578

  Dipole Moment: [D]
     X:    -0.9984      Y:     0.3875      Z:     2.4662     Total:     2.6887


*** tstop() called on node52.bme.utexas.edu at Sat Apr 11 17:36:27 2020
Module time:
	user time   =     352.66 seconds =       5.88 minutes
	system time =       5.44 seconds =       0.09 minutes
	total time  =         65 seconds =       1.08 minutes
Total time:
	user time   =    1925.69 seconds =      32.09 minutes
	system time =      36.05 seconds =       0.60 minutes
	total time  =        378 seconds =       6.30 minutes

*** tstart() called on node52.bme.utexas.edu
*** at Sat Apr 11 17:36:27 2020


  //>>>>>>>>>>>>>>>>>>>>>>>>>>>>>>>>>>>//
  //               DFMP2               //
  //<<<<<<<<<<<<<<<<<<<<<<<<<<<<<<<<<<<//

   => Loading Basis Set <=

    Name: (AUG-CC-PVQZ AUX)
    Role: RIFIT
    Keyword: DF_BASIS_MP2
    atoms 1           entry N          line   258 file /home/liuchw/anaconda3/envs/psi4env/share/psi4/basis/aug-cc-pvqz-ri.gbs 
    atoms 2-5         entry C          line   184 file /home/liuchw/anaconda3/envs/psi4env/share/psi4/basis/aug-cc-pvqz-ri.gbs 
    atoms 6-14, 16-17 entry H          line    30 file /home/liuchw/anaconda3/envs/psi4env/share/psi4/basis/aug-cc-pvqz-ri.gbs 
    atoms 15          entry O          line   332 file /home/liuchw/anaconda3/envs/psi4env/share/psi4/basis/aug-cc-pvqz-ri.gbs 

	 --------------------------------------------------------
	                          DF-MP2                         
	      2nd-Order Density-Fitted Moller-Plesset Theory     
	              RMP2 Wavefunction,   6 Threads             
	                                                         
	        Rob Parrish, Justin Turney, Andy Simmonett,      
	           Ed Hohenstein, and C. David Sherrill          
	 --------------------------------------------------------

   => Auxiliary Basis Set <=

  Basis Set: (AUG-CC-PVQZ AUX)
    Blend: AUG-CC-PVQZ-RI
    Number of shells: 436
    Number of basis function: 1888
    Number of Cartesian functions: 2577
    Spherical Harmonics?: true
    Max angular momentum: 5

	 --------------------------------------------------------
	                 NBF =   986, NAUX =  1888
	 --------------------------------------------------------
	   CLASS    FOCC     OCC    AOCC    AVIR     VIR    FVIR
	   PAIRS       0      25      25     961     961       0
	 --------------------------------------------------------

	-----------------------------------------------------------
	 ==================> DF-MP2 Energies <==================== 
	-----------------------------------------------------------
	 Reference Energy          =    -287.3080833093576985 [Eh]
	 Singles Energy            =      -0.0000000000000000 [Eh]
	 Same-Spin Energy          =      -0.3126792748473898 [Eh]
	 Opposite-Spin Energy      =      -1.1209981135842595 [Eh]
	 Correlation Energy        =      -1.4336773884316494 [Eh]
	 Total Energy              =    -288.7417606977893456 [Eh]
	-----------------------------------------------------------
	 ================> DF-SCS-MP2 Energies <================== 
	-----------------------------------------------------------
	 SCS Same-Spin Scale       =       0.3333333333333333 [-]
	 SCS Opposite-Spin Scale   =       1.2000000000000000 [-]
	 SCS Same-Spin Energy      =      -0.1042264249491299 [Eh]
	 SCS Opposite-Spin Energy  =      -1.3451977363011114 [Eh]
	 SCS Correlation Energy    =      -1.4494241612502414 [Eh]
	 SCS Total Energy          =    -288.7575074706079477 [Eh]
	-----------------------------------------------------------


*** tstop() called on node52.bme.utexas.edu at Sat Apr 11 17:37:04 2020
Module time:
	user time   =     181.61 seconds =       3.03 minutes
	system time =       3.56 seconds =       0.06 minutes
	total time  =         37 seconds =       0.62 minutes
Total time:
	user time   =    2107.30 seconds =      35.12 minutes
	system time =      39.61 seconds =       0.66 minutes
	total time  =        415 seconds =       6.92 minutes

  //>>>>>>>>>>>>>>>>>>>>>>>>>>>>>>>>>>>//
  //  CBS Results: mp2/aug-cc-pv[tq]z  //
  //<<<<<<<<<<<<<<<<<<<<<<<<<<<<<<<<<<<//


   ==> HF <==

   HI-zeta (4) Energy:               -287.308083309358


   ==> Helgaker 2-point correlated extrapolation for method: MP2 <==

   LO-zeta (3) Energy:               -288.590785539738
   HI-zeta (4) Energy:               -288.741760697789
   Alpha (exponent) Value:             3.000000000000
   Extrapolated Energy:              -288.851931759070

   @Extrapolated MP2/(T,Q):          -288.851931759070



   ==> Helgaker 2-point correlated extrapolation for method: HF <==

   LO-zeta (3) Energy:               -287.290268775476
   HI-zeta (4) Energy:               -287.308083309358
   Alpha (exponent) Value:             3.000000000000
   Extrapolated Energy:              -287.321083104353

   @Extrapolated HF/(T,Q):           -287.321083104353


   ==> Components <==

  ---------------------------------------------------------------------------------------------------------
                          Method / Basis                      Rqd      Energy [Eh]   Variable
  ---------------------------------------------------------------------------------------------------------
                              hf / aug-cc-pvtz                  *    -287.29026878   HF TOTAL ENERGY
                             mp2 / aug-cc-pvtz                  *    -288.59078554   MP2 TOTAL ENERGY
                              hf / aug-cc-pvqz                  *    -287.30808331   HF TOTAL ENERGY
                             mp2 / aug-cc-pvqz                  *    -288.74176070   MP2 TOTAL ENERGY
  ---------------------------------------------------------------------------------------------------------

   ==> Stages <==

  ---------------------------------------------------------------------------------------------------------
      Stage               Method / Basis                       Wt      Energy [Eh]   Scheme
  ---------------------------------------------------------------------------------------------------------
        scf                   hf / aug-cc-pvqz                  1    -287.30808331   xtpl_highest_1
       corl                  mp2 / aug-cc-pv[tq]z               1    -288.85193176   corl_xtpl_helgaker_2
       corl                   hf / aug-cc-pv[tq]z              -1    -287.32108310   corl_xtpl_helgaker_2
  ---------------------------------------------------------------------------------------------------------

   ==> CBS <==

  ---------------------------------------------------------------------------------------------------------
      Stage               Method / Basis                               Energy [Eh]   Scheme
  ---------------------------------------------------------------------------------------------------------
        scf                   hf / aug-cc-pvqz                       -287.30808331   xtpl_highest_1
       corl                  mp2 / aug-cc-pv[tq]z                      -1.53084865   corl_xtpl_helgaker_2
      total                  CBS                                     -288.83893196   
  ---------------------------------------------------------------------------------------------------------
   => Loading Basis Set <=

    Name: DEF2-SVP
    Role: ORBITAL
    Keyword: BASIS
    atoms 1           entry N          line   110 file /home/liuchw/anaconda3/envs/psi4env/share/psi4/basis/def2-svp.gbs 
    atoms 2-5         entry C          line    90 file /home/liuchw/anaconda3/envs/psi4env/share/psi4/basis/def2-svp.gbs 
    atoms 6-14, 16-17 entry H          line    15 file /home/liuchw/anaconda3/envs/psi4env/share/psi4/basis/def2-svp.gbs 
    atoms 15          entry O          line   130 file /home/liuchw/anaconda3/envs/psi4env/share/psi4/basis/def2-svp.gbs 


       N-Body: Complex Energy (fragments = (1, 2), basis = (1, 2):  -288.83893196407479)

   ==> N-Body: Counterpoise Corrected (CP) energies <==

   n-Body     Total Energy [Eh]       I.E. [kcal/mol]      Delta [kcal/mol]
        1     -288.826203912102        0.000000000000        0.000000000000
        2     -288.839011674644       -8.036992333192       -8.036992333192

   => Loading Basis Set <=

    Name: DEF2-SVP
    Role: ORBITAL
    Keyword: BASIS
    atoms 1           entry N          line   110 file /home/liuchw/anaconda3/envs/psi4env/share/psi4/basis/def2-svp.gbs 
    atoms 2-5         entry C          line    90 file /home/liuchw/anaconda3/envs/psi4env/share/psi4/basis/def2-svp.gbs 
    atoms 6-14, 16-17 entry H          line    15 file /home/liuchw/anaconda3/envs/psi4env/share/psi4/basis/def2-svp.gbs 
    atoms 15          entry O          line   130 file /home/liuchw/anaconda3/envs/psi4env/share/psi4/basis/def2-svp.gbs 


    Psi4 stopped on: Saturday, 11 April 2020 05:37PM
    Psi4 wall time for execution: 0:06:56.07

*** Psi4 exiting successfully. Buy a developer a beer!
