
    -----------------------------------------------------------------------
          Psi4: An Open-Source Ab Initio Electronic Structure Package
                               Psi4 1.4a2.dev224 

                         Git: Rev {master} e453b16 


    R. M. Parrish, L. A. Burns, D. G. A. Smith, A. C. Simmonett,
    A. E. DePrince III, E. G. Hohenstein, U. Bozkaya, A. Yu. Sokolov,
    R. Di Remigio, R. M. Richard, J. F. Gonthier, A. M. James,
    H. R. McAlexander, A. Kumar, M. Saitow, X. Wang, B. P. Pritchard,
    P. Verma, H. F. Schaefer III, K. Patkowski, R. A. King, E. F. Valeev,
    F. A. Evangelista, J. M. Turney, T. D. Crawford, and C. D. Sherrill,
    J. Chem. Theory Comput. 13(7) pp 3185--3197 (2017).
    (doi: 10.1021/acs.jctc.7b00174)


                         Additional Contributions by
    P. Kraus, H. Kruse, M. H. Lechner, M. C. Schieber, R. A. Shaw,
    A. Alenaizan, R. Galvelis, Z. L. Glick, S. Lehtola, and J. P. Misiewicz

    -----------------------------------------------------------------------


    Psi4 started on: Saturday, 11 April 2020 05:21PM

    Process ID: 3709
    Host:       node37.bme.utexas.edu
    PSIDATADIR: /home/liuchw/anaconda3/envs/psi4env/share/psi4
    Memory:     500.0 MiB
    Threads:    6
    
  ==> Input File <==

--------------------------------------------------------------------------
#Generated by lconvert.py for cbs job

memory 40 GB

molecule  {
0 1
  N       -2.2665280     1.7551600     0.3523560
  C       -3.2562880     0.7247330     0.0142390
  C       -2.4225700    -0.2894620    -0.7756490
  C       -0.9872470    -0.1186910    -0.2215320
  C       -1.1192600     0.9789940     0.8392520
  H       -4.0737160     1.1488270    -0.5652640
  H       -3.6729280     0.2529640     0.9128420
  H       -2.8027860    -1.3003390    -0.6499560
  H       -2.4447730    -0.0452880    -1.8342580
  H       -0.5903580    -1.0371090     0.2041700
  H       -0.3185330     0.2076840    -1.0134090
  H       -1.3194960     0.5329730     1.8213990
  H       -0.2332930     1.6057540     0.9173520
  H       -2.6177160     2.3795850     1.0695950
--
0 1
  O       -1.3403790     2.5378980    -2.2877750
  H       -1.6804480     2.4459700    -1.3786170
  H       -1.3856830     3.4793500    -2.4607450
units angstrom
no_reorient
symmetry c1
}

set {
scf_type DF
mp2_type DF
e_convergence 7
reference rhf
}

energy('mp2/aug-cc-pv[tq]z', bsse_type='cp')
--------------------------------------------------------------------------

  Memory set to  37.253 GiB by Python driver.

Scratch directory: /scratch//


   ===> N-Body Interaction Abacus <===
        BSSE Treatment:                     cp
        Number of 1-body computations:     4
        Number of 2-body computations:     1

   ==> N-Body: Now computing 1-body complexes <==


       N-Body: Computing complex (1/4) with fragments (2,) in the basis of fragments (2,).


Scratch directory: /scratch//

  //>>>>>>>>>>>>>>>>>>>>>>>>>>>>>>>>>>>//
  //   CBS Setup: mp2/aug-cc-pv[tq]z   //
  //<<<<<<<<<<<<<<<<<<<<<<<<<<<<<<<<<<<//

    Naive listing of computations required.
             hf / aug-cc-pvqz              for  HF TOTAL ENERGY
            mp2 / aug-cc-pvtz              for  MP2 TOTAL ENERGY
            mp2 / aug-cc-pvqz              for  MP2 TOTAL ENERGY
             hf / aug-cc-pvtz              for  HF TOTAL ENERGY
             hf / aug-cc-pvqz              for  HF TOTAL ENERGY

    Enlightened listing of computations required.
            mp2 / aug-cc-pvtz              for  MP2 TOTAL ENERGY
            mp2 / aug-cc-pvqz              for  MP2 TOTAL ENERGY

    Full listing of computations to be obtained (required and bonus).
             hf / aug-cc-pvtz              for  HF TOTAL ENERGY
            mp2 / aug-cc-pvtz              for  MP2 TOTAL ENERGY
             hf / aug-cc-pvqz              for  HF TOTAL ENERGY
            mp2 / aug-cc-pvqz              for  MP2 TOTAL ENERGY

  //>>>>>>>>>>>>>>>>>>>>>>>>>>>>>>>>>>>>//
  // CBS Computation: MP2 / AUG-CC-PVTZ //
  //<<<<<<<<<<<<<<<<<<<<<<<<<<<<<<<<<<<<//


Scratch directory: /scratch//

*** tstart() called on node37.bme.utexas.edu
*** at Sat Apr 11 17:21:50 2020

   => Loading Basis Set <=

    Name: AUG-CC-PVTZ
    Role: ORBITAL
    Keyword: BASIS
    atoms 1   entry O          line   331 file /home/liuchw/anaconda3/envs/psi4env/share/psi4/basis/aug-cc-pvtz.gbs 
    atoms 2-3 entry H          line    40 file /home/liuchw/anaconda3/envs/psi4env/share/psi4/basis/aug-cc-pvtz.gbs 


         ---------------------------------------------------------
                                   SCF
               by Justin Turney, Rob Parrish, Andy Simmonett
                          and Daniel G. A. Smith
                              RHF Reference
                        6 Threads,  38146 MiB Core
         ---------------------------------------------------------

  ==> Geometry <==

    Molecular point group: c1
    Full point group: C1

    Geometry (in Angstrom), charge = 0, multiplicity = 1:

       Center              X                  Y                   Z               Mass       
    ------------   -----------------  -----------------  -----------------  -----------------
         O            0.544437751165     1.522407427193    -1.879361168244    15.994914619570
         H            0.204368751165     1.430479427193    -0.970203168244     1.007825032230
         H            0.499133751165     2.463859427193    -2.052331168244     1.007825032230

  Running in c1 symmetry.

  Rotational constants: A =     26.66272  B =      0.15140  C =      0.15055 [cm^-1]
  Rotational constants: A = 799328.10107  B =   4538.98303  C =   4513.35396 [MHz]
  Nuclear repulsion =    9.106584042100856

  Charge       = 0
  Multiplicity = 1
  Electrons    = 10
  Nalpha       = 5
  Nbeta        = 5

  ==> Algorithm <==

  SCF Algorithm Type is DF.
  DIIS enabled.
  MOM disabled.
  Fractional occupation disabled.
  Guess Type is SAD.
  Energy threshold   = 1.00e-07
  Density threshold  = 1.00e-08
  Integral threshold = 0.00e+00

  ==> Primary Basis <==

  Basis Set: AUG-CC-PVTZ
    Blend: AUG-CC-PVTZ
    Number of shells: 32
    Number of basis function: 92
    Number of Cartesian functions: 105
    Spherical Harmonics?: true
    Max angular momentum: 3

   => Loading Basis Set <=

    Name: (AUG-CC-PVTZ AUX)
    Role: JKFIT
    Keyword: DF_BASIS_SCF
    atoms 1   entry O          line   286 file /home/liuchw/anaconda3/envs/psi4env/share/psi4/basis/aug-cc-pvtz-jkfit.gbs 
    atoms 2-3 entry H          line    70 file /home/liuchw/anaconda3/envs/psi4env/share/psi4/basis/aug-cc-pvtz-jkfit.gbs 

  ==> Pre-Iterations <==

   -------------------------------------------------------
    Irrep   Nso     Nmo     Nalpha   Nbeta   Ndocc  Nsocc
   -------------------------------------------------------
     A         92      92       0       0       0       0
   -------------------------------------------------------
    Total      92      92       5       5       5       0
   -------------------------------------------------------

  ==> Integral Setup <==

  DFHelper Memory: AOs need 0.015 GiB; user supplied 27.940 GiB. Using in-core AOs.

  ==> MemDFJK: Density-Fitted J/K Matrices <==

    J tasked:                   Yes
    K tasked:                   Yes
    wK tasked:                   No
    OpenMP threads:               6
    Memory [MiB]:             28610
    Algorithm:                 Core
    Schwarz Cutoff:           1E-12
    Mask sparsity (%):       0.0000
    Fitting Condition:        1E-10

   => Auxiliary Basis Set <=

  Basis Set: (AUG-CC-PVTZ AUX)
    Blend: AUG-CC-PVTZ-JKFIT
    Number of shells: 58
    Number of basis function: 196
    Number of Cartesian functions: 241
    Spherical Harmonics?: true
    Max angular momentum: 4

  Minimum eigenvalue in the overlap matrix is 3.9091643261E-04.
  Using Symmetric Orthogonalization.

  SCF Guess: Superposition of Atomic Densities via on-the-fly atomic UHF.

  ==> Iterations <==

                           Total Energy        Delta E     RMS |[F,P]|

   @DF-RHF iter SAD:   -75.46747855007609   -7.54675e+01   0.00000e+00 
   @DF-RHF iter   1:   -75.97495689158971   -5.07478e-01   5.08589e-03 DIIS
   @DF-RHF iter   2:   -76.02723122187588   -5.22743e-02   3.49587e-03 DIIS
   @DF-RHF iter   3:   -76.05924145138073   -3.20102e-02   2.37844e-04 DIIS
   @DF-RHF iter   4:   -76.05964077359410   -3.99322e-04   5.78687e-05 DIIS
   @DF-RHF iter   5:   -76.05966668715830   -2.59136e-05   1.32439e-05 DIIS
   @DF-RHF iter   6:   -76.05966883569101   -2.14853e-06   2.90576e-06 DIIS
   @DF-RHF iter   7:   -76.05966894891627   -1.13225e-07   5.19534e-07 DIIS
   @DF-RHF iter   8:   -76.05966895208155   -3.16528e-09   8.79070e-08 DIIS
   @DF-RHF iter   9:   -76.05966895215315   -7.15943e-11   2.19325e-08 DIIS
   @DF-RHF iter  10:   -76.05966895215737   -4.22062e-12   3.25563e-09 DIIS
  Energy and wave function converged.


  ==> Post-Iterations <==

    Orbital Energies [Eh]
    ---------------------

    Doubly Occupied:                                                      

       1A    -20.569003     2A     -1.349114     3A     -0.712037  
       4A     -0.583828     5A     -0.509703  

    Virtual:                                                              

       6A      0.029291     7A      0.047670     8A      0.135854  
       9A      0.159035    10A      0.174935    11A      0.183089  
      12A      0.226619    13A      0.244677    14A      0.265355  
      15A      0.299804    16A      0.309967    17A      0.365584  
      18A      0.436072    19A      0.465160    20A      0.598902  
      21A      0.657936    22A      0.707813    23A      0.722781  
      24A      0.731943    25A      0.828742    26A      0.845788  
      27A      0.893162    28A      0.911338    29A      0.919009  
      30A      0.921791    31A      0.930250    32A      0.961075  
      33A      1.018252    34A      1.041937    35A      1.081810  
      36A      1.107305    37A      1.174920    38A      1.179879  
      39A      1.263192    40A      1.508143    41A      1.536372  
      42A      1.579864    43A      1.807388    44A      1.815867  
      45A      1.976074    46A      2.113093    47A      2.262157  
      48A      2.314704    49A      2.327704    50A      2.417173  
      51A      2.419673    52A      2.442047    53A      2.481902  
      54A      2.681863    55A      2.699613    56A      2.764987  
      57A      2.815139    58A      2.880951    59A      3.641933  
      60A      3.734876    61A      4.013445    62A      4.077172  
      63A      4.160816    64A      4.239804    65A      4.285423  
      66A      4.374739    67A      4.375013    68A      4.399964  
      69A      4.512476    70A      4.716681    71A      4.826169  
      72A      5.133301    73A      5.134456    74A      5.240535  
      75A      5.305094    76A      5.506245    77A      5.654909  
      78A      6.169980    79A      6.518391    80A      6.712735  
      81A      6.890776    82A      7.128479    83A      7.250465  
      84A      7.289732    85A      7.307686    86A      7.334456  
      87A      7.360045    88A      7.519804    89A      7.886616  
      90A      7.914533    91A      8.775384    92A     15.548486  

    Final Occupation by Irrep:
              A 
    DOCC [     5 ]

  @DF-RHF Final Energy:   -76.05966895215737

   => Energetics <=

    Nuclear Repulsion Energy =              9.1065840421008559
    One-Electron Energy =                -122.8851367903099145
    Two-Electron Energy =                  37.7188837960516850
    Total Energy =                        -76.0596689521573666

Computation Completed


Properties will be evaluated at   0.000000,   0.000000,   0.000000 [a0]

Properties computed using the SCF density matrix

  Nuclear Dipole Moment: [e a0]
     X:     9.5601      Y:    30.3747      Z:   -34.1236

  Electronic Dipole Moment: [e a0]
     X:    -9.8143      Y:   -29.8112      Z:    34.6081

  Dipole Moment: [e a0]
     X:    -0.2542      Y:     0.5635      Z:     0.4845     Total:     0.7855

  Dipole Moment: [D]
     X:    -0.6460      Y:     1.4323      Z:     1.2316     Total:     1.9964


*** tstop() called on node37.bme.utexas.edu at Sat Apr 11 17:21:51 2020
Module time:
	user time   =       4.55 seconds =       0.08 minutes
	system time =       0.30 seconds =       0.01 minutes
	total time  =          1 seconds =       0.02 minutes
Total time:
	user time   =       4.55 seconds =       0.08 minutes
	system time =       0.30 seconds =       0.01 minutes
	total time  =          1 seconds =       0.02 minutes

*** tstart() called on node37.bme.utexas.edu
*** at Sat Apr 11 17:21:51 2020


  //>>>>>>>>>>>>>>>>>>>>>>>>>>>>>>>>>>>//
  //               DFMP2               //
  //<<<<<<<<<<<<<<<<<<<<<<<<<<<<<<<<<<<//

   => Loading Basis Set <=

    Name: (AUG-CC-PVTZ AUX)
    Role: RIFIT
    Keyword: DF_BASIS_MP2
    atoms 1   entry O          line   264 file /home/liuchw/anaconda3/envs/psi4env/share/psi4/basis/aug-cc-pvtz-ri.gbs 
    atoms 2-3 entry H          line    30 file /home/liuchw/anaconda3/envs/psi4env/share/psi4/basis/aug-cc-pvtz-ri.gbs 

	 --------------------------------------------------------
	                          DF-MP2                         
	      2nd-Order Density-Fitted Moller-Plesset Theory     
	              RMP2 Wavefunction,   6 Threads             
	                                                         
	        Rob Parrish, Justin Turney, Andy Simmonett,      
	           Ed Hohenstein, and C. David Sherrill          
	 --------------------------------------------------------

   => Auxiliary Basis Set <=

  Basis Set: (AUG-CC-PVTZ AUX)
    Blend: AUG-CC-PVTZ-RI
    Number of shells: 56
    Number of basis function: 198
    Number of Cartesian functions: 246
    Spherical Harmonics?: true
    Max angular momentum: 4

	 --------------------------------------------------------
	                 NBF =    92, NAUX =   198
	 --------------------------------------------------------
	   CLASS    FOCC     OCC    AOCC    AVIR     VIR    FVIR
	   PAIRS       0       5       5      87      87       0
	 --------------------------------------------------------

	-----------------------------------------------------------
	 ==================> DF-MP2 Energies <==================== 
	-----------------------------------------------------------
	 Reference Energy          =     -76.0596689521573666 [Eh]
	 Singles Energy            =      -0.0000000000000000 [Eh]
	 Same-Spin Energy          =      -0.0685048846401419 [Eh]
	 Opposite-Spin Energy      =      -0.2156705647794821 [Eh]
	 Correlation Energy        =      -0.2841754494196240 [Eh]
	 Total Energy              =     -76.3438444015769875 [Eh]
	-----------------------------------------------------------
	 ================> DF-SCS-MP2 Energies <================== 
	-----------------------------------------------------------
	 SCS Same-Spin Scale       =       0.3333333333333333 [-]
	 SCS Opposite-Spin Scale   =       1.2000000000000000 [-]
	 SCS Same-Spin Energy      =      -0.0228349615467140 [Eh]
	 SCS Opposite-Spin Energy  =      -0.2588046777353785 [Eh]
	 SCS Correlation Energy    =      -0.2816396392820925 [Eh]
	 SCS Total Energy          =     -76.3413085914394571 [Eh]
	-----------------------------------------------------------


*** tstop() called on node37.bme.utexas.edu at Sat Apr 11 17:21:51 2020
Module time:
	user time   =       1.96 seconds =       0.03 minutes
	system time =       0.16 seconds =       0.00 minutes
	total time  =          0 seconds =       0.00 minutes
Total time:
	user time   =       6.52 seconds =       0.11 minutes
	system time =       0.46 seconds =       0.01 minutes
	total time  =          1 seconds =       0.02 minutes

  //>>>>>>>>>>>>>>>>>>>>>>>>>>>>>>>>>>>>//
  // CBS Computation: MP2 / AUG-CC-PVQZ //
  //<<<<<<<<<<<<<<<<<<<<<<<<<<<<<<<<<<<<//


Scratch directory: /scratch//

*** tstart() called on node37.bme.utexas.edu
*** at Sat Apr 11 17:21:51 2020

   => Loading Basis Set <=

    Name: AUG-CC-PVQZ
    Role: ORBITAL
    Keyword: BASIS
    atoms 1   entry O          line   423 file /home/liuchw/anaconda3/envs/psi4env/share/psi4/basis/aug-cc-pvqz.gbs 
    atoms 2-3 entry H          line    40 file /home/liuchw/anaconda3/envs/psi4env/share/psi4/basis/aug-cc-pvqz.gbs 


         ---------------------------------------------------------
                                   SCF
               by Justin Turney, Rob Parrish, Andy Simmonett
                          and Daniel G. A. Smith
                              RHF Reference
                        6 Threads,  38146 MiB Core
         ---------------------------------------------------------

  ==> Geometry <==

    Molecular point group: c1
    Full point group: C1

    Geometry (in Angstrom), charge = 0, multiplicity = 1:

       Center              X                  Y                   Z               Mass       
    ------------   -----------------  -----------------  -----------------  -----------------
         O            0.544437751165     1.522407427193    -1.879361168244    15.994914619570
         H            0.204368751165     1.430479427193    -0.970203168244     1.007825032230
         H            0.499133751165     2.463859427193    -2.052331168244     1.007825032230

  Running in c1 symmetry.

  Rotational constants: A =     26.66272  B =      0.15140  C =      0.15055 [cm^-1]
  Rotational constants: A = 799328.10107  B =   4538.98303  C =   4513.35396 [MHz]
  Nuclear repulsion =    9.106584042100856

  Charge       = 0
  Multiplicity = 1
  Electrons    = 10
  Nalpha       = 5
  Nbeta        = 5

  ==> Algorithm <==

  SCF Algorithm Type is DF.
  DIIS enabled.
  MOM disabled.
  Fractional occupation disabled.
  Guess Type is SAD.
  Energy threshold   = 1.00e-07
  Density threshold  = 1.00e-08
  Integral threshold = 0.00e+00

  ==> Primary Basis <==

  Basis Set: AUG-CC-PVQZ
    Blend: AUG-CC-PVQZ
    Number of shells: 48
    Number of basis function: 172
    Number of Cartesian functions: 215
    Spherical Harmonics?: true
    Max angular momentum: 4

   => Loading Basis Set <=

    Name: (AUG-CC-PVQZ AUX)
    Role: JKFIT
    Keyword: DF_BASIS_SCF
    atoms 1   entry O          line   318 file /home/liuchw/anaconda3/envs/psi4env/share/psi4/basis/aug-cc-pvqz-jkfit.gbs 
    atoms 2-3 entry H          line    70 file /home/liuchw/anaconda3/envs/psi4env/share/psi4/basis/aug-cc-pvqz-jkfit.gbs 

  ==> Pre-Iterations <==

   -------------------------------------------------------
    Irrep   Nso     Nmo     Nalpha   Nbeta   Ndocc  Nsocc
   -------------------------------------------------------
     A        172     172       0       0       0       0
   -------------------------------------------------------
    Total     172     172       5       5       5       0
   -------------------------------------------------------

  ==> Integral Setup <==

  DFHelper Memory: AOs need 0.074 GiB; user supplied 27.940 GiB. Using in-core AOs.

  ==> MemDFJK: Density-Fitted J/K Matrices <==

    J tasked:                   Yes
    K tasked:                   Yes
    wK tasked:                   No
    OpenMP threads:               6
    Memory [MiB]:             28610
    Algorithm:                 Core
    Schwarz Cutoff:           1E-12
    Mask sparsity (%):       0.0000
    Fitting Condition:        1E-10

   => Auxiliary Basis Set <=

  Basis Set: (AUG-CC-PVQZ AUX)
    Blend: AUG-CC-PVQZ-JKFIT
    Number of shells: 70
    Number of basis function: 294
    Number of Cartesian functions: 400
    Spherical Harmonics?: true
    Max angular momentum: 5

  Minimum eigenvalue in the overlap matrix is 8.9003848426E-05.
  Using Symmetric Orthogonalization.

  SCF Guess: Superposition of Atomic Densities via on-the-fly atomic UHF.

  ==> Iterations <==

                           Total Energy        Delta E     RMS |[F,P]|

   @DF-RHF iter SAD:   -75.47260902102224   -7.54726e+01   0.00000e+00 
   @DF-RHF iter   1:   -75.98000469641251   -5.07396e-01   2.72629e-03 DIIS
   @DF-RHF iter   2:   -76.03237602102425   -5.23713e-02   1.87804e-03 DIIS
   @DF-RHF iter   3:   -76.06458520441987   -3.22092e-02   1.28193e-04 DIIS
   @DF-RHF iter   4:   -76.06498668157406   -4.01477e-04   3.18864e-05 DIIS
   @DF-RHF iter   5:   -76.06501354682803   -2.68653e-05   7.27115e-06 DIIS
   @DF-RHF iter   6:   -76.06501578286884   -2.23604e-06   1.63975e-06 DIIS
   @DF-RHF iter   7:   -76.06501590850058   -1.25632e-07   3.03072e-07 DIIS
   @DF-RHF iter   8:   -76.06501591225323   -3.75265e-09   4.92727e-08 DIIS
   @DF-RHF iter   9:   -76.06501591233408   -8.08456e-11   1.20049e-08 DIIS
   @DF-RHF iter  10:   -76.06501591233861   -4.53326e-12   1.82041e-09 DIIS
  Energy and wave function converged.


  ==> Post-Iterations <==

    Orbital Energies [Eh]
    ---------------------

    Doubly Occupied:                                                      

       1A    -20.566539     2A     -1.348381     3A     -0.712002  
       4A     -0.583874     5A     -0.509837  

    Virtual:                                                              

       6A      0.026823     7A      0.043067     8A      0.114094  
       9A      0.133735    10A      0.150912    11A      0.158638  
      12A      0.184709    13A      0.196892    14A      0.209235  
      15A      0.237249    16A      0.257106    17A      0.291319  
      18A      0.356262    19A      0.388833    20A      0.469637  
      21A      0.508412    22A      0.542009    23A      0.547174  
      24A      0.556349    25A      0.613962    26A      0.633024  
      27A      0.647230    28A      0.663522    29A      0.666508  
      30A      0.684942    31A      0.706645    32A      0.717929  
      33A      0.769034    34A      0.785219    35A      0.801242  
      36A      0.802895    37A      0.843642    38A      0.854680  
      39A      0.969150    40A      1.124967    41A      1.135330  
      42A      1.206577    43A      1.331001    44A      1.435704  
      45A      1.479344    46A      1.508968    47A      1.510584  
      48A      1.527561    49A      1.553832    50A      1.592691  
      51A      1.619323    52A      1.635032    53A      1.662801  
      54A      1.664624    55A      1.690252    56A      1.702868  
      57A      1.735115    58A      1.753294    59A      1.767538  
      60A      1.775688    61A      1.839916    62A      1.865802  
      63A      1.892052    64A      1.913467    65A      1.977299  
      66A      2.010345    67A      2.034777    68A      2.038637  
      69A      2.103015    70A      2.205941    71A      2.217724  
      72A      2.309980    73A      2.437081    74A      2.619540  
      75A      2.625166    76A      2.878956    77A      2.948970  
      78A      2.991586    79A      3.037558    80A      3.051406  
      81A      3.080462    82A      3.264693    83A      3.288681  
      84A      3.303852    85A      3.489489    86A      3.588345  
      87A      3.640117    88A      3.686437    89A      3.712101  
      90A      3.765543    91A      3.924539    92A      4.077908  
      93A      4.166064    94A      4.170578    95A      4.177703  
      96A      4.180502    97A      4.238433    98A      4.326284  
      99A      4.433394   100A      4.570900   101A      4.708469  
     102A      4.740808   103A      4.778218   104A      4.779995  
     105A      4.806605   106A      4.871495   107A      4.992971  
     108A      5.236755   109A      5.312695   110A      5.505658  
     111A      5.513894   112A      5.842824   113A      5.873177  
     114A      6.063417   115A      6.215055   116A      6.820331  
     117A      6.871187   118A      6.871772   119A      6.908731  
     120A      7.705875   121A      7.756701   122A      7.784086  
     123A      7.806658   124A      7.822487   125A      7.894174  
     126A      7.923345   127A      8.014809   128A      8.185466  
     129A      8.187527   130A      8.516642   131A      8.626802  
     132A      8.640712   133A      8.704549   134A      8.760573  
     135A      8.835690   136A      8.990458   137A      9.032239  
     138A      9.195454   139A      9.645897   140A      9.865057  
     141A      9.885048   142A      9.893634   143A      9.982118  
     144A     10.307651   145A     10.434233   146A     10.709653  
     147A     11.010676   148A     11.071427   149A     11.108298  
     150A     11.269963   151A     11.305386   152A     11.405205  
     153A     11.699830   154A     11.783160   155A     11.835428  
     156A     11.978966   157A     12.178189   158A     12.198207  
     159A     12.586979   160A     12.706320   161A     12.789265  
     162A     12.892236   163A     13.181929   164A     13.921952  
     165A     13.988092   166A     14.436597   167A     14.766065  
     168A     14.846651   169A     15.186340   170A     16.783250  
     171A     17.238088   172A     45.424628  

    Final Occupation by Irrep:
              A 
    DOCC [     5 ]

  @DF-RHF Final Energy:   -76.06501591233861

   => Energetics <=

    Nuclear Repulsion Energy =              9.1065840421008559
    One-Electron Energy =                -122.9019348996543783
    Two-Electron Energy =                  37.7303349452149277
    Total Energy =                        -76.0650159123385947

Computation Completed


Properties will be evaluated at   0.000000,   0.000000,   0.000000 [a0]

Properties computed using the SCF density matrix

  Nuclear Dipole Moment: [e a0]
     X:     9.5601      Y:    30.3747      Z:   -34.1236

  Electronic Dipole Moment: [e a0]
     X:    -9.8140      Y:   -29.8118      Z:    34.6076

  Dipole Moment: [e a0]
     X:    -0.2539      Y:     0.5629      Z:     0.4840     Total:     0.7846

  Dipole Moment: [D]
     X:    -0.6453      Y:     1.4308      Z:     1.2303     Total:     1.9943


*** tstop() called on node37.bme.utexas.edu at Sat Apr 11 17:21:53 2020
Module time:
	user time   =       8.01 seconds =       0.13 minutes
	system time =       0.54 seconds =       0.01 minutes
	total time  =          2 seconds =       0.03 minutes
Total time:
	user time   =      14.56 seconds =       0.24 minutes
	system time =       1.00 seconds =       0.02 minutes
	total time  =          3 seconds =       0.05 minutes

*** tstart() called on node37.bme.utexas.edu
*** at Sat Apr 11 17:21:53 2020


  //>>>>>>>>>>>>>>>>>>>>>>>>>>>>>>>>>>>//
  //               DFMP2               //
  //<<<<<<<<<<<<<<<<<<<<<<<<<<<<<<<<<<<//

   => Loading Basis Set <=

    Name: (AUG-CC-PVQZ AUX)
    Role: RIFIT
    Keyword: DF_BASIS_MP2
    atoms 1   entry O          line   332 file /home/liuchw/anaconda3/envs/psi4env/share/psi4/basis/aug-cc-pvqz-ri.gbs 
    atoms 2-3 entry H          line    30 file /home/liuchw/anaconda3/envs/psi4env/share/psi4/basis/aug-cc-pvqz-ri.gbs 

	 --------------------------------------------------------
	                          DF-MP2                         
	      2nd-Order Density-Fitted Moller-Plesset Theory     
	              RMP2 Wavefunction,   6 Threads             
	                                                         
	        Rob Parrish, Justin Turney, Andy Simmonett,      
	           Ed Hohenstein, and C. David Sherrill          
	 --------------------------------------------------------

   => Auxiliary Basis Set <=

  Basis Set: (AUG-CC-PVQZ AUX)
    Blend: AUG-CC-PVQZ-RI
    Number of shells: 76
    Number of basis function: 328
    Number of Cartesian functions: 447
    Spherical Harmonics?: true
    Max angular momentum: 5

	 --------------------------------------------------------
	                 NBF =   172, NAUX =   328
	 --------------------------------------------------------
	   CLASS    FOCC     OCC    AOCC    AVIR     VIR    FVIR
	   PAIRS       0       5       5     167     167       0
	 --------------------------------------------------------

	-----------------------------------------------------------
	 ==================> DF-MP2 Energies <==================== 
	-----------------------------------------------------------
	 Reference Energy          =     -76.0650159123386089 [Eh]
	 Singles Energy            =      -0.0000000000000000 [Eh]
	 Same-Spin Energy          =      -0.0728222491443623 [Eh]
	 Opposite-Spin Energy      =      -0.2446221124310052 [Eh]
	 Correlation Energy        =      -0.3174443615753676 [Eh]
	 Total Energy              =     -76.3824602739139777 [Eh]
	-----------------------------------------------------------
	 ================> DF-SCS-MP2 Energies <================== 
	-----------------------------------------------------------
	 SCS Same-Spin Scale       =       0.3333333333333333 [-]
	 SCS Opposite-Spin Scale   =       1.2000000000000000 [-]
	 SCS Same-Spin Energy      =      -0.0242740830481208 [Eh]
	 SCS Opposite-Spin Energy  =      -0.2935465349172063 [Eh]
	 SCS Correlation Energy    =      -0.3178206179653271 [Eh]
	 SCS Total Energy          =     -76.3828365303039334 [Eh]
	-----------------------------------------------------------


*** tstop() called on node37.bme.utexas.edu at Sat Apr 11 17:21:53 2020
Module time:
	user time   =       3.05 seconds =       0.05 minutes
	system time =       0.22 seconds =       0.00 minutes
	total time  =          0 seconds =       0.00 minutes
Total time:
	user time   =      17.61 seconds =       0.29 minutes
	system time =       1.22 seconds =       0.02 minutes
	total time  =          3 seconds =       0.05 minutes

  //>>>>>>>>>>>>>>>>>>>>>>>>>>>>>>>>>>>//
  //  CBS Results: mp2/aug-cc-pv[tq]z  //
  //<<<<<<<<<<<<<<<<<<<<<<<<<<<<<<<<<<<//


   ==> HF <==

   HI-zeta (4) Energy:               -76.065015912339


   ==> Helgaker 2-point correlated extrapolation for method: MP2 <==

   LO-zeta (3) Energy:               -76.343844401577
   HI-zeta (4) Energy:               -76.382460273914
   Alpha (exponent) Value:             3.000000000000
   Extrapolated Energy:              -76.410639423998

   @Extrapolated MP2/(T,Q):          -76.410639423998



   ==> Helgaker 2-point correlated extrapolation for method: HF <==

   LO-zeta (3) Energy:               -76.059668952157
   HI-zeta (4) Energy:               -76.065015912339
   Alpha (exponent) Value:             3.000000000000
   Extrapolated Energy:              -76.068917748147

   @Extrapolated HF/(T,Q):           -76.068917748147


   ==> Components <==

  ---------------------------------------------------------------------------------------------------------
                          Method / Basis                      Rqd      Energy [Eh]   Variable
  ---------------------------------------------------------------------------------------------------------
                              hf / aug-cc-pvtz                  *     -76.05966895   HF TOTAL ENERGY
                             mp2 / aug-cc-pvtz                  *     -76.34384440   MP2 TOTAL ENERGY
                              hf / aug-cc-pvqz                  *     -76.06501591   HF TOTAL ENERGY
                             mp2 / aug-cc-pvqz                  *     -76.38246027   MP2 TOTAL ENERGY
  ---------------------------------------------------------------------------------------------------------

   ==> Stages <==

  ---------------------------------------------------------------------------------------------------------
      Stage               Method / Basis                       Wt      Energy [Eh]   Scheme
  ---------------------------------------------------------------------------------------------------------
        scf                   hf / aug-cc-pvqz                  1     -76.06501591   xtpl_highest_1
       corl                  mp2 / aug-cc-pv[tq]z               1     -76.41063942   corl_xtpl_helgaker_2
       corl                   hf / aug-cc-pv[tq]z              -1     -76.06891775   corl_xtpl_helgaker_2
  ---------------------------------------------------------------------------------------------------------

   ==> CBS <==

  ---------------------------------------------------------------------------------------------------------
      Stage               Method / Basis                               Energy [Eh]   Scheme
  ---------------------------------------------------------------------------------------------------------
        scf                   hf / aug-cc-pvqz                        -76.06501591   xtpl_highest_1
       corl                  mp2 / aug-cc-pv[tq]z                      -0.34172168   corl_xtpl_helgaker_2
      total                  CBS                                      -76.40673759   
  ---------------------------------------------------------------------------------------------------------
   => Loading Basis Set <=

    Name: DEF2-SVP
    Role: ORBITAL
    Keyword: BASIS
    atoms 1   entry O          line   130 file /home/liuchw/anaconda3/envs/psi4env/share/psi4/basis/def2-svp.gbs 
    atoms 2-3 entry H          line    15 file /home/liuchw/anaconda3/envs/psi4env/share/psi4/basis/def2-svp.gbs 


       N-Body: Complex Energy (fragments = (2,), basis = (2,):   -76.40673758818981)

       N-Body: Computing complex (2/4) with fragments (2,) in the basis of fragments (1, 2).


Scratch directory: /scratch//

  //>>>>>>>>>>>>>>>>>>>>>>>>>>>>>>>>>>>//
  //   CBS Setup: mp2/aug-cc-pv[tq]z   //
  //<<<<<<<<<<<<<<<<<<<<<<<<<<<<<<<<<<<//

    Naive listing of computations required.
             hf / aug-cc-pvqz              for  HF TOTAL ENERGY
            mp2 / aug-cc-pvtz              for  MP2 TOTAL ENERGY
            mp2 / aug-cc-pvqz              for  MP2 TOTAL ENERGY
             hf / aug-cc-pvtz              for  HF TOTAL ENERGY
             hf / aug-cc-pvqz              for  HF TOTAL ENERGY

    Enlightened listing of computations required.
            mp2 / aug-cc-pvtz              for  MP2 TOTAL ENERGY
            mp2 / aug-cc-pvqz              for  MP2 TOTAL ENERGY

    Full listing of computations to be obtained (required and bonus).
             hf / aug-cc-pvtz              for  HF TOTAL ENERGY
            mp2 / aug-cc-pvtz              for  MP2 TOTAL ENERGY
             hf / aug-cc-pvqz              for  HF TOTAL ENERGY
            mp2 / aug-cc-pvqz              for  MP2 TOTAL ENERGY

  //>>>>>>>>>>>>>>>>>>>>>>>>>>>>>>>>>>>>//
  // CBS Computation: MP2 / AUG-CC-PVTZ //
  //<<<<<<<<<<<<<<<<<<<<<<<<<<<<<<<<<<<<//


Scratch directory: /scratch//

*** tstart() called on node37.bme.utexas.edu
*** at Sat Apr 11 17:21:55 2020

   => Loading Basis Set <=

    Name: AUG-CC-PVTZ
    Role: ORBITAL
    Keyword: BASIS
    atoms 1           entry N          line   285 file /home/liuchw/anaconda3/envs/psi4env/share/psi4/basis/aug-cc-pvtz.gbs 
    atoms 2-5         entry C          line   239 file /home/liuchw/anaconda3/envs/psi4env/share/psi4/basis/aug-cc-pvtz.gbs 
    atoms 6-14, 16-17 entry H          line    40 file /home/liuchw/anaconda3/envs/psi4env/share/psi4/basis/aug-cc-pvtz.gbs 
    atoms 15          entry O          line   331 file /home/liuchw/anaconda3/envs/psi4env/share/psi4/basis/aug-cc-pvtz.gbs 


         ---------------------------------------------------------
                                   SCF
               by Justin Turney, Rob Parrish, Andy Simmonett
                          and Daniel G. A. Smith
                              RHF Reference
                        6 Threads,  38146 MiB Core
         ---------------------------------------------------------

  ==> Geometry <==

    Molecular point group: c1
    Full point group: C1

    Geometry (in Angstrom), charge = 0, multiplicity = 1:

       Center              X                  Y                   Z               Mass       
    ------------   -----------------  -----------------  -----------------  -----------------
      Gh(N)          -0.381711248835     0.739669427193     0.760769831756    14.003074004430
      Gh(C)          -1.371471248835    -0.290757572807     0.422652831756    12.000000000000
      Gh(C)          -0.537753248835    -1.304952572807    -0.367235168244    12.000000000000
      Gh(C)           0.897569751165    -1.134181572807     0.186881831756    12.000000000000
      Gh(C)           0.765556751165    -0.036496572807     1.247665831756    12.000000000000
      Gh(H)          -2.188899248835     0.133336427193    -0.156850168244     1.007825032230
      Gh(H)          -1.788111248835    -0.762526572807     1.321255831756     1.007825032230
      Gh(H)          -0.917969248835    -2.315829572807    -0.241542168244     1.007825032230
      Gh(H)          -0.559956248835    -1.060778572807    -1.425844168244     1.007825032230
      Gh(H)           1.294458751165    -2.052599572807     0.612583831756     1.007825032230
      Gh(H)           1.566283751165    -0.807806572807    -0.604995168244     1.007825032230
      Gh(H)           0.565320751165    -0.482517572807     2.229812831756     1.007825032230
      Gh(H)           1.651523751165     0.590263427193     1.325765831756     1.007825032230
      Gh(H)          -0.732899248835     1.364094427193     1.478008831756     1.007825032230
         O            0.544437751165     1.522407427193    -1.879361168244    15.994914619570
         H            0.204368751165     1.430479427193    -0.970203168244     1.007825032230
         H            0.499133751165     2.463859427193    -2.052331168244     1.007825032230

  Running in c1 symmetry.

  Rotational constants: A =      0.13188  B =      0.07905  C =      0.07887 [cm^-1]
  Rotational constants: A =   3953.69781  B =   2369.96734  C =   2364.41397 [MHz]
  Nuclear repulsion =    9.106584042100856

  Charge       = 0
  Multiplicity = 1
  Electrons    = 10
  Nalpha       = 5
  Nbeta        = 5

  ==> Algorithm <==

  SCF Algorithm Type is DF.
  DIIS enabled.
  MOM disabled.
  Fractional occupation disabled.
  Guess Type is SAD.
  Energy threshold   = 1.00e-07
  Density threshold  = 1.00e-08
  Integral threshold = 0.00e+00

  ==> Primary Basis <==

  Basis Set: AUG-CC-PVTZ
    Blend: AUG-CC-PVTZ
    Number of shells: 183
    Number of basis function: 529
    Number of Cartesian functions: 605
    Spherical Harmonics?: true
    Max angular momentum: 3

   => Loading Basis Set <=

    Name: (AUG-CC-PVTZ AUX)
    Role: JKFIT
    Keyword: DF_BASIS_SCF
    atoms 1           entry N          line   224 file /home/liuchw/anaconda3/envs/psi4env/share/psi4/basis/aug-cc-pvtz-jkfit.gbs 
    atoms 2-5         entry C          line   162 file /home/liuchw/anaconda3/envs/psi4env/share/psi4/basis/aug-cc-pvtz-jkfit.gbs 
    atoms 6-14, 16-17 entry H          line    70 file /home/liuchw/anaconda3/envs/psi4env/share/psi4/basis/aug-cc-pvtz-jkfit.gbs 
    atoms 15          entry O          line   286 file /home/liuchw/anaconda3/envs/psi4env/share/psi4/basis/aug-cc-pvtz-jkfit.gbs 

  ==> Pre-Iterations <==

   -------------------------------------------------------
    Irrep   Nso     Nmo     Nalpha   Nbeta   Ndocc  Nsocc
   -------------------------------------------------------
     A        529     529       0       0       0       0
   -------------------------------------------------------
    Total     529     529       5       5       5       0
   -------------------------------------------------------

  ==> Integral Setup <==

  DFHelper Memory: AOs need 2.391 GiB; user supplied 27.940 GiB. Using in-core AOs.

  ==> MemDFJK: Density-Fitted J/K Matrices <==

    J tasked:                   Yes
    K tasked:                   Yes
    wK tasked:                   No
    OpenMP threads:               6
    Memory [MiB]:             28610
    Algorithm:                 Core
    Schwarz Cutoff:           1E-12
    Mask sparsity (%):       1.8375
    Fitting Condition:        1E-10

   => Auxiliary Basis Set <=

  Basis Set: (AUG-CC-PVTZ AUX)
    Blend: AUG-CC-PVTZ-JKFIT
    Number of shells: 334
    Number of basis function: 1130
    Number of Cartesian functions: 1391
    Spherical Harmonics?: true
    Max angular momentum: 4

  Minimum eigenvalue in the overlap matrix is 1.7193813195E-06.
  Using Symmetric Orthogonalization.

  SCF Guess: Superposition of Atomic Densities via on-the-fly atomic UHF.

  ==> Iterations <==

                           Total Energy        Delta E     RMS |[F,P]|

   @DF-RHF iter SAD:   -75.46747848461399   -7.54675e+01   0.00000e+00 
   @DF-RHF iter   1:   -75.97506010843395   -5.07582e-01   8.84638e-04 DIIS
   @DF-RHF iter   2:   -76.02735141563051   -5.22913e-02   6.08116e-04 DIIS
   @DF-RHF iter   3:   -76.05936374159559   -3.20123e-02   4.13790e-05 DIIS
   @DF-RHF iter   4:   -76.05976324808731   -3.99506e-04   1.00736e-05 DIIS
   @DF-RHF iter   5:   -76.05978922647452   -2.59784e-05   2.30689e-06 DIIS
   @DF-RHF iter   6:   -76.05979138302976   -2.15656e-06   5.06793e-07 DIIS
   @DF-RHF iter   7:   -76.05979149718355   -1.14154e-07   9.10241e-08 DIIS
   @DF-RHF iter   8:   -76.05979150040494   -3.22139e-09   1.53680e-08 DIIS
   @DF-RHF iter   9:   -76.05979150047753   -7.25890e-11   3.83494e-09 DIIS
  Energy and wave function converged.


  ==> Post-Iterations <==

    Orbital Energies [Eh]
    ---------------------

    Doubly Occupied:                                                      

       1A    -20.568887     2A     -1.349015     3A     -0.711953  
       4A     -0.583739     5A     -0.509660  

    Virtual:                                                              

       6A      0.016081     7A      0.031709     8A      0.034848  
       9A      0.037302    10A      0.053192    11A      0.054974  
      12A      0.058870    13A      0.059971    14A      0.061973  
      15A      0.070607    16A      0.081248    17A      0.099370  
      18A      0.103176    19A      0.104122    20A      0.113911  
      21A      0.120168    22A      0.124715    23A      0.132397  
      24A      0.132963    25A      0.135939    26A      0.137501  
      27A      0.149125    28A      0.157763    29A      0.158409  
      30A      0.166857    31A      0.170757    32A      0.177288  
      33A      0.188262    34A      0.190952    35A      0.196929  
      36A      0.203259    37A      0.208257    38A      0.217297  
      39A      0.222824    40A      0.239718    41A      0.278820  
      42A      0.280473    43A      0.282154    44A      0.296700  
      45A      0.301004    46A      0.303337    47A      0.305414  
      48A      0.314597    49A      0.317650    50A      0.325361  
      51A      0.328685    52A      0.330827    53A      0.336102  
      54A      0.345135    55A      0.352925    56A      0.359809  
      57A      0.359979    58A      0.368209    59A      0.370838  
      60A      0.375353    61A      0.381890    62A      0.383228  
      63A      0.394404    64A      0.394480    65A      0.404080  
      66A      0.404958    67A      0.422247    68A      0.424872  
      69A      0.425701    70A      0.433940    71A      0.442548  
      72A      0.450504    73A      0.462129    74A      0.467883  
      75A      0.469880    76A      0.479019    77A      0.479750  
      78A      0.503414    79A      0.504137    80A      0.514293  
      81A      0.520285    82A      0.526047    83A      0.539874  
      84A      0.541989    85A      0.552164    86A      0.554100  
      87A      0.570948    88A      0.574229    89A      0.578743  
      90A      0.593332    91A      0.593550    92A      0.602211  
      93A      0.613732    94A      0.614091    95A      0.617423  
      96A      0.621334    97A      0.633783    98A      0.642908  
      99A      0.652789   100A      0.653648   101A      0.673034  
     102A      0.675254   103A      0.680897   104A      0.686719  
     105A      0.691622   106A      0.696199   107A      0.703938  
     108A      0.718189   109A      0.726200   110A      0.728681  
     111A      0.741512   112A      0.751715   113A      0.768434  
     114A      0.773285   115A      0.779732   116A      0.794169  
     117A      0.798529   118A      0.806695   119A      0.811335  
     120A      0.827410   121A      0.828606   122A      0.846199  
     123A      0.856987   124A      0.859993   125A      0.881780  
     126A      0.882371   127A      0.896228   128A      0.909395  
     129A      0.913220   130A      0.931345   131A      0.967261  
     132A      0.980341   133A      0.981904   134A      0.996230  
     135A      1.000071   136A      1.014115   137A      1.025309  
     138A      1.033210   139A      1.033359   140A      1.044207  
     141A      1.059819   142A      1.062570   143A      1.073161  
     144A      1.084473   145A      1.089620   146A      1.094623  
     147A      1.101222   148A      1.109886   149A      1.118072  
     150A      1.122390   151A      1.126941   152A      1.136636  
     153A      1.138320   154A      1.139735   155A      1.143813  
     156A      1.148824   157A      1.155030   158A      1.164715  
     159A      1.180147   160A      1.181398   161A      1.189175  
     162A      1.194296   163A      1.212179   164A      1.219210  
     165A      1.225775   166A      1.232421   167A      1.233254  
     168A      1.242213   169A      1.258342   170A      1.262296  
     171A      1.284555   172A      1.285163   173A      1.305150  
     174A      1.309239   175A      1.321999   176A      1.343023  
     177A      1.345710   178A      1.350097   179A      1.357967  
     180A      1.375238   181A      1.375577   182A      1.385106  
     183A      1.389616   184A      1.404084   185A      1.407623  
     186A      1.416375   187A      1.425685   188A      1.430949  
     189A      1.444123   190A      1.452387   191A      1.458732  
     192A      1.462097   193A      1.479022   194A      1.487760  
     195A      1.496130   196A      1.497460   197A      1.511567  
     198A      1.520232   199A      1.520515   200A      1.538746  
     201A      1.548728   202A      1.553401   203A      1.573869  
     204A      1.584882   205A      1.585065   206A      1.595632  
     207A      1.605098   208A      1.620518   209A      1.638390  
     210A      1.646512   211A      1.648583   212A      1.670766  
     213A      1.670871   214A      1.687048   215A      1.693933  
     216A      1.699712   217A      1.708868   218A      1.721406  
     219A      1.733452   220A      1.739425   221A      1.762558  
     222A      1.777105   223A      1.784583   224A      1.790631  
     225A      1.801375   226A      1.801858   227A      1.817256  
     228A      1.832810   229A      1.839947   230A      1.868007  
     231A      1.892528   232A      1.905585   233A      1.909063  
     234A      1.924772   235A      1.933548   236A      1.973285  
     237A      1.976891   238A      2.000970   239A      2.010131  
     240A      2.024272   241A      2.041883   242A      2.049746  
     243A      2.064723   244A      2.070513   245A      2.073827  
     246A      2.103382   247A      2.106459   248A      2.121022  
     249A      2.136732   250A      2.151404   251A      2.166971  
     252A      2.185667   253A      2.195129   254A      2.199821  
     255A      2.211586   256A      2.216297   257A      2.232319  
     258A      2.232791   259A      2.264658   260A      2.279023  
     261A      2.279042   262A      2.295192   263A      2.322001  
     264A      2.331594   265A      2.349707   266A      2.365374  
     267A      2.366835   268A      2.399351   269A      2.400040  
     270A      2.403200   271A      2.438429   272A      2.449778  
     273A      2.450500   274A      2.468684   275A      2.479824  
     276A      2.491982   277A      2.513038   278A      2.535836  
     279A      2.541297   280A      2.557656   281A      2.562374  
     282A      2.566875   283A      2.591656   284A      2.614596  
     285A      2.626856   286A      2.650201   287A      2.660862  
     288A      2.674832   289A      2.688183   290A      2.695668  
     291A      2.705789   292A      2.710382   293A      2.723385  
     294A      2.750275   295A      2.768326   296A      2.782342  
     297A      2.783519   298A      2.801841   299A      2.828135  
     300A      2.838514   301A      2.861254   302A      2.862655  
     303A      2.887826   304A      2.905118   305A      2.928046  
     306A      2.947927   307A      2.953879   308A      2.973194  
     309A      2.997558   310A      3.010716   311A      3.059044  
     312A      3.068070   313A      3.090956   314A      3.116175  
     315A      3.144863   316A      3.182734   317A      3.194360  
     318A      3.195690   319A      3.260082   320A      3.269491  
     321A      3.271264   322A      3.286232   323A      3.395082  
     324A      3.439439   325A      3.482786   326A      3.548116  
     327A      3.556441   328A      3.734338   329A      3.794752  
     330A      3.865896   331A      4.058597   332A      4.086451  
     333A      4.118810   334A      4.123987   335A      4.135944  
     336A      4.142716   337A      4.162282   338A      4.195167  
     339A      4.216595   340A      4.220220   341A      4.233831  
     342A      4.269573   343A      4.283519   344A      4.298374  
     345A      4.315667   346A      4.329726   347A      4.353134  
     348A      4.362969   349A      4.373625   350A      4.383282  
     351A      4.402635   352A      4.410880   353A      4.430668  
     354A      4.456678   355A      4.460817   356A      4.492139  
     357A      4.517214   358A      4.530852   359A      4.532274  
     360A      4.555573   361A      4.559981   362A      4.586018  
     363A      4.589897   364A      4.615793   365A      4.630176  
     366A      4.646642   367A      4.669418   368A      4.702506  
     369A      4.718253   370A      4.723896   371A      4.742979  
     372A      4.747282   373A      4.759936   374A      4.786457  
     375A      4.802785   376A      4.805408   377A      4.812579  
     378A      4.832355   379A      4.841360   380A      4.861631  
     381A      4.864733   382A      4.877652   383A      4.878964  
     384A      4.910255   385A      4.920187   386A      4.938688  
     387A      4.959647   388A      4.963244   389A      5.002233  
     390A      5.030481   391A      5.032113   392A      5.058887  
     393A      5.060566   394A      5.093846   395A      5.115434  
     396A      5.131789   397A      5.151975   398A      5.160211  
     399A      5.166950   400A      5.178363   401A      5.183781  
     402A      5.226425   403A      5.250578   404A      5.266231  
     405A      5.292919   406A      5.310518   407A      5.316568  
     408A      5.353825   409A      5.403858   410A      5.413391  
     411A      5.428791   412A      5.438538   413A      5.453853  
     414A      5.462899   415A      5.475301   416A      5.498185  
     417A      5.510372   418A      5.527145   419A      5.527654  
     420A      5.531730   421A      5.564630   422A      5.570849  
     423A      5.582062   424A      5.585607   425A      5.626302  
     426A      5.626940   427A      5.637276   428A      5.641211  
     429A      5.664514   430A      5.680686   431A      5.718130  
     432A      5.729808   433A      5.745329   434A      5.771671  
     435A      5.799317   436A      5.838257   437A      5.855225  
     438A      5.896381   439A      5.915531   440A      5.941969  
     441A      5.947361   442A      5.970857   443A      6.019259  
     444A      6.030205   445A      6.038855   446A      6.043236  
     447A      6.084117   448A      6.106841   449A      6.124163  
     450A      6.156108   451A      6.188347   452A      6.240604  
     453A      6.263750   454A      6.282717   455A      6.303445  
     456A      6.310620   457A      6.346060   458A      6.362140  
     459A      6.421870   460A      6.470200   461A      6.470272  
     462A      6.556112   463A      6.591138   464A      6.603287  
     465A      6.663436   466A      6.776965   467A      6.815660  
     468A      6.816318   469A      6.861111   470A      6.904303  
     471A      6.961213   472A      7.030830   473A      7.031215  
     474A      7.080356   475A      7.103019   476A      7.191713  
     477A      7.225474   478A      7.343514   479A      7.364862  
     480A      7.385166   481A      7.402131   482A      7.422374  
     483A      7.424656   484A      7.457372   485A      7.491175  
     486A      7.539437   487A      7.543313   488A      7.564138  
     489A      7.621547   490A      7.636556   491A      7.687411  
     492A      7.817948   493A      7.862240   494A      7.890197  
     495A      7.911567   496A      7.924215   497A      7.981935  
     498A      7.986305   499A      8.023657   500A      8.052266  
     501A      8.082706   502A      8.090195   503A      8.175167  
     504A      8.215186   505A      8.374885   506A      8.401968  
     507A      8.491709   508A      8.557686   509A      8.615292  
     510A      8.676438   511A      8.926309   512A      8.949617  
     513A      9.107268   514A      9.200467   515A      9.326671  
     516A     10.414676   517A     10.584429   518A     10.826418  
     519A     10.863760   520A     11.143029   521A     11.450765  
     522A     11.714278   523A     12.101731   524A     16.907995  
     525A     54.120849   526A     55.011078   527A     55.017285  
     528A     57.706449   529A     61.967135  

    Final Occupation by Irrep:
              A 
    DOCC [     5 ]

  @DF-RHF Final Energy:   -76.05979150047753

   => Energetics <=

    Nuclear Repulsion Energy =              9.1065840421008559
    One-Electron Energy =                -122.8862405839220884
    Two-Electron Energy =                  37.7198650413436880
    Total Energy =                        -76.0597915004775302

Computation Completed


Properties will be evaluated at   0.000000,   0.000000,   0.000000 [a0]

Properties computed using the SCF density matrix

  Nuclear Dipole Moment: [e a0]
     X:     9.5601      Y:    30.3747      Z:   -34.1236

  Electronic Dipole Moment: [e a0]
     X:    -9.8143      Y:   -29.8115      Z:    34.6082

  Dipole Moment: [e a0]
     X:    -0.2542      Y:     0.5632      Z:     0.4846     Total:     0.7853

  Dipole Moment: [D]
     X:    -0.6460      Y:     1.4315      Z:     1.2318     Total:     1.9960


*** tstop() called on node37.bme.utexas.edu at Sat Apr 11 17:22:10 2020
Module time:
	user time   =      72.23 seconds =       1.20 minutes
	system time =       5.06 seconds =       0.08 minutes
	total time  =         15 seconds =       0.25 minutes
Total time:
	user time   =      91.98 seconds =       1.53 minutes
	system time =       6.39 seconds =       0.11 minutes
	total time  =         20 seconds =       0.33 minutes

*** tstart() called on node37.bme.utexas.edu
*** at Sat Apr 11 17:22:10 2020


  //>>>>>>>>>>>>>>>>>>>>>>>>>>>>>>>>>>>//
  //               DFMP2               //
  //<<<<<<<<<<<<<<<<<<<<<<<<<<<<<<<<<<<//

   => Loading Basis Set <=

    Name: (AUG-CC-PVTZ AUX)
    Role: RIFIT
    Keyword: DF_BASIS_MP2
    atoms 1           entry N          line   206 file /home/liuchw/anaconda3/envs/psi4env/share/psi4/basis/aug-cc-pvtz-ri.gbs 
    atoms 2-5         entry C          line   148 file /home/liuchw/anaconda3/envs/psi4env/share/psi4/basis/aug-cc-pvtz-ri.gbs 
    atoms 6-14, 16-17 entry H          line    30 file /home/liuchw/anaconda3/envs/psi4env/share/psi4/basis/aug-cc-pvtz-ri.gbs 
    atoms 15          entry O          line   264 file /home/liuchw/anaconda3/envs/psi4env/share/psi4/basis/aug-cc-pvtz-ri.gbs 

	 --------------------------------------------------------
	                          DF-MP2                         
	      2nd-Order Density-Fitted Moller-Plesset Theory     
	              RMP2 Wavefunction,   6 Threads             
	                                                         
	        Rob Parrish, Justin Turney, Andy Simmonett,      
	           Ed Hohenstein, and C. David Sherrill          
	 --------------------------------------------------------

   => Auxiliary Basis Set <=

  Basis Set: (AUG-CC-PVTZ AUX)
    Blend: AUG-CC-PVTZ-RI
    Number of shells: 322
    Number of basis function: 1142
    Number of Cartesian functions: 1421
    Spherical Harmonics?: true
    Max angular momentum: 4

	 --------------------------------------------------------
	                 NBF =   529, NAUX =  1142
	 --------------------------------------------------------
	   CLASS    FOCC     OCC    AOCC    AVIR     VIR    FVIR
	   PAIRS       0       5       5     524     524       0
	 --------------------------------------------------------

	-----------------------------------------------------------
	 ==================> DF-MP2 Energies <==================== 
	-----------------------------------------------------------
	 Reference Energy          =     -76.0597915004775302 [Eh]
	 Singles Energy            =      -0.0000000000000000 [Eh]
	 Same-Spin Energy          =      -0.0686066087854760 [Eh]
	 Opposite-Spin Energy      =      -0.2168223431753313 [Eh]
	 Correlation Energy        =      -0.2854289519608073 [Eh]
	 Total Energy              =     -76.3452204524383404 [Eh]
	-----------------------------------------------------------
	 ================> DF-SCS-MP2 Energies <================== 
	-----------------------------------------------------------
	 SCS Same-Spin Scale       =       0.3333333333333333 [-]
	 SCS Opposite-Spin Scale   =       1.2000000000000000 [-]
	 SCS Same-Spin Energy      =      -0.0228688695951587 [Eh]
	 SCS Opposite-Spin Energy  =      -0.2601868118103975 [Eh]
	 SCS Correlation Energy    =      -0.2830556814055562 [Eh]
	 SCS Total Energy          =     -76.3428471818830872 [Eh]
	-----------------------------------------------------------


*** tstop() called on node37.bme.utexas.edu at Sat Apr 11 17:22:19 2020
Module time:
	user time   =      31.08 seconds =       0.52 minutes
	system time =       6.39 seconds =       0.11 minutes
	total time  =          9 seconds =       0.15 minutes
Total time:
	user time   =     123.06 seconds =       2.05 minutes
	system time =      12.78 seconds =       0.21 minutes
	total time  =         29 seconds =       0.48 minutes

  //>>>>>>>>>>>>>>>>>>>>>>>>>>>>>>>>>>>>//
  // CBS Computation: MP2 / AUG-CC-PVQZ //
  //<<<<<<<<<<<<<<<<<<<<<<<<<<<<<<<<<<<<//


Scratch directory: /scratch//

*** tstart() called on node37.bme.utexas.edu
*** at Sat Apr 11 17:22:19 2020

   => Loading Basis Set <=

    Name: AUG-CC-PVQZ
    Role: ORBITAL
    Keyword: BASIS
    atoms 1           entry N          line   363 file /home/liuchw/anaconda3/envs/psi4env/share/psi4/basis/aug-cc-pvqz.gbs 
    atoms 2-5         entry C          line   303 file /home/liuchw/anaconda3/envs/psi4env/share/psi4/basis/aug-cc-pvqz.gbs 
    atoms 6-14, 16-17 entry H          line    40 file /home/liuchw/anaconda3/envs/psi4env/share/psi4/basis/aug-cc-pvqz.gbs 
    atoms 15          entry O          line   423 file /home/liuchw/anaconda3/envs/psi4env/share/psi4/basis/aug-cc-pvqz.gbs 


         ---------------------------------------------------------
                                   SCF
               by Justin Turney, Rob Parrish, Andy Simmonett
                          and Daniel G. A. Smith
                              RHF Reference
                        6 Threads,  38146 MiB Core
         ---------------------------------------------------------

  ==> Geometry <==

    Molecular point group: c1
    Full point group: C1

    Geometry (in Angstrom), charge = 0, multiplicity = 1:

       Center              X                  Y                   Z               Mass       
    ------------   -----------------  -----------------  -----------------  -----------------
      Gh(N)          -0.381711248835     0.739669427193     0.760769831756    14.003074004430
      Gh(C)          -1.371471248835    -0.290757572807     0.422652831756    12.000000000000
      Gh(C)          -0.537753248835    -1.304952572807    -0.367235168244    12.000000000000
      Gh(C)           0.897569751165    -1.134181572807     0.186881831756    12.000000000000
      Gh(C)           0.765556751165    -0.036496572807     1.247665831756    12.000000000000
      Gh(H)          -2.188899248835     0.133336427193    -0.156850168244     1.007825032230
      Gh(H)          -1.788111248835    -0.762526572807     1.321255831756     1.007825032230
      Gh(H)          -0.917969248835    -2.315829572807    -0.241542168244     1.007825032230
      Gh(H)          -0.559956248835    -1.060778572807    -1.425844168244     1.007825032230
      Gh(H)           1.294458751165    -2.052599572807     0.612583831756     1.007825032230
      Gh(H)           1.566283751165    -0.807806572807    -0.604995168244     1.007825032230
      Gh(H)           0.565320751165    -0.482517572807     2.229812831756     1.007825032230
      Gh(H)           1.651523751165     0.590263427193     1.325765831756     1.007825032230
      Gh(H)          -0.732899248835     1.364094427193     1.478008831756     1.007825032230
         O            0.544437751165     1.522407427193    -1.879361168244    15.994914619570
         H            0.204368751165     1.430479427193    -0.970203168244     1.007825032230
         H            0.499133751165     2.463859427193    -2.052331168244     1.007825032230

  Running in c1 symmetry.

  Rotational constants: A =      0.13188  B =      0.07905  C =      0.07887 [cm^-1]
  Rotational constants: A =   3953.69781  B =   2369.96734  C =   2364.41397 [MHz]
  Nuclear repulsion =    9.106584042100856

  Charge       = 0
  Multiplicity = 1
  Electrons    = 10
  Nalpha       = 5
  Nbeta        = 5

  ==> Algorithm <==

  SCF Algorithm Type is DF.
  DIIS enabled.
  MOM disabled.
  Fractional occupation disabled.
  Guess Type is SAD.
  Energy threshold   = 1.00e-07
  Density threshold  = 1.00e-08
  Integral threshold = 0.00e+00

  ==> Primary Basis <==

  Basis Set: AUG-CC-PVQZ
    Blend: AUG-CC-PVQZ
    Number of shells: 274
    Number of basis function: 986
    Number of Cartesian functions: 1235
    Spherical Harmonics?: true
    Max angular momentum: 4

   => Loading Basis Set <=

    Name: (AUG-CC-PVQZ AUX)
    Role: JKFIT
    Keyword: DF_BASIS_SCF
    atoms 1           entry N          line   248 file /home/liuchw/anaconda3/envs/psi4env/share/psi4/basis/aug-cc-pvqz-jkfit.gbs 
    atoms 2-5         entry C          line   178 file /home/liuchw/anaconda3/envs/psi4env/share/psi4/basis/aug-cc-pvqz-jkfit.gbs 
    atoms 6-14, 16-17 entry H          line    70 file /home/liuchw/anaconda3/envs/psi4env/share/psi4/basis/aug-cc-pvqz-jkfit.gbs 
    atoms 15          entry O          line   318 file /home/liuchw/anaconda3/envs/psi4env/share/psi4/basis/aug-cc-pvqz-jkfit.gbs 

  ==> Pre-Iterations <==

   -------------------------------------------------------
    Irrep   Nso     Nmo     Nalpha   Nbeta   Ndocc  Nsocc
   -------------------------------------------------------
     A        986     986       0       0       0       0
   -------------------------------------------------------
    Total     986     986       5       5       5       0
   -------------------------------------------------------

  ==> Integral Setup <==

  DFHelper Memory: AOs need 11.958 GiB; user supplied 27.940 GiB. Using in-core AOs.

  ==> MemDFJK: Density-Fitted J/K Matrices <==

    J tasked:                   Yes
    K tasked:                   Yes
    wK tasked:                   No
    OpenMP threads:               6
    Memory [MiB]:             28610
    Algorithm:                 Core
    Schwarz Cutoff:           1E-12
    Mask sparsity (%):       4.6832
    Fitting Condition:        1E-10

   => Auxiliary Basis Set <=

  Basis Set: (AUG-CC-PVQZ AUX)
    Blend: AUG-CC-PVQZ-JKFIT
    Number of shells: 402
    Number of basis function: 1688
    Number of Cartesian functions: 2299
    Spherical Harmonics?: true
    Max angular momentum: 5

  Minimum eigenvalue in the overlap matrix is 4.3835008298E-07.
  Using Symmetric Orthogonalization.

  SCF Guess: Superposition of Atomic Densities via on-the-fly atomic UHF.

  ==> Iterations <==

                           Total Energy        Delta E     RMS |[F,P]|

   @DF-RHF iter SAD:   -75.47260899860251   -7.54726e+01   0.00000e+00 
   @DF-RHF iter   1:   -75.98004600085387   -5.07437e-01   4.75603e-04 DIIS
   @DF-RHF iter   2:   -76.03242402141640   -5.23780e-02   3.27634e-04 DIIS
   @DF-RHF iter   3:   -76.06463211227367   -3.22081e-02   2.23667e-05 DIIS
   @DF-RHF iter   4:   -76.06503366627993   -4.01554e-04   5.56262e-06 DIIS
   @DF-RHF iter   5:   -76.06506053137846   -2.68651e-05   1.26935e-06 DIIS
   @DF-RHF iter   6:   -76.06506277049698   -2.23912e-06   2.86251e-07 DIIS
   @DF-RHF iter   7:   -76.06506289638067   -1.25884e-07   5.30265e-08 DIIS
   @DF-RHF iter   8:   -76.06506290016469   -3.78402e-09   8.62801e-09 DIIS
  Energy and wave function converged.


  ==> Post-Iterations <==

    Orbital Energies [Eh]
    ---------------------

    Doubly Occupied:                                                      

       1A    -20.566494     2A     -1.348337     3A     -0.711967  
       4A     -0.583841     5A     -0.509815  

    Virtual:                                                              

       6A      0.014447     7A      0.028645     8A      0.030761  
       9A      0.033486    10A      0.048025    11A      0.049250  
      12A      0.053081    13A      0.053559    14A      0.055155  
      15A      0.063610    16A      0.072517    17A      0.089203  
      18A      0.091997    19A      0.092538    20A      0.099030  
      21A      0.105570    22A      0.110000    23A      0.117061  
      24A      0.117988    25A      0.119937    26A      0.120384  
      27A      0.129947    28A      0.137813    29A      0.138272  
      30A      0.145573    31A      0.148846    32A      0.155478  
      33A      0.164140    34A      0.166805    35A      0.172895  
      36A      0.176886    37A      0.182812    38A      0.184095  
      39A      0.189915    40A      0.210970    41A      0.237477  
      42A      0.237719    43A      0.240701    44A      0.247426  
      45A      0.250681    46A      0.251032    47A      0.260468  
      48A      0.267614    49A      0.269366    50A      0.275872  
      51A      0.278454    52A      0.285102    53A      0.287162  
      54A      0.293677    55A      0.301891    56A      0.302296  
      57A      0.305512    58A      0.307136    59A      0.314819  
      60A      0.316866    61A      0.323141    62A      0.323998  
      63A      0.332428    64A      0.342182    65A      0.347843  
      66A      0.347869    67A      0.349275    68A      0.355372  
      69A      0.360274    70A      0.363966    71A      0.364026  
      72A      0.372445    73A      0.381460    74A      0.387190  
      75A      0.389471    76A      0.394340    77A      0.399152  
      78A      0.410634    79A      0.418135    80A      0.427296  
      81A      0.430513    82A      0.435656    83A      0.441430  
      84A      0.446780    85A      0.453182    86A      0.459625  
      87A      0.463257    88A      0.469655    89A      0.474270  
      90A      0.474454    91A      0.475583    92A      0.479038  
      93A      0.489998    94A      0.499398    95A      0.502541  
      96A      0.504967    97A      0.507360    98A      0.512462  
      99A      0.512553   100A      0.523913   101A      0.531872  
     102A      0.536424   103A      0.543873   104A      0.544658  
     105A      0.553972   106A      0.554669   107A      0.562697  
     108A      0.565605   109A      0.581027   110A      0.590492  
     111A      0.591459   112A      0.601137   113A      0.607518  
     114A      0.607873   115A      0.620659   116A      0.623525  
     117A      0.635787   118A      0.639623   119A      0.646290  
     120A      0.652301   121A      0.654671   122A      0.669488  
     123A      0.670548   124A      0.675448   125A      0.681054  
     126A      0.694966   127A      0.697708   128A      0.698484  
     129A      0.701807   130A      0.731176   131A      0.734265  
     132A      0.751770   133A      0.755003   134A      0.755445  
     135A      0.764584   136A      0.765478   137A      0.768193  
     138A      0.781369   139A      0.789570   140A      0.791276  
     141A      0.794466   142A      0.801681   143A      0.810943  
     144A      0.813178   145A      0.820366   146A      0.828698  
     147A      0.842570   148A      0.849578   149A      0.852711  
     150A      0.855447   151A      0.856612   152A      0.874414  
     153A      0.879372   154A      0.883633   155A      0.886882  
     156A      0.892495   157A      0.900848   158A      0.911008  
     159A      0.914226   160A      0.918895   161A      0.922260  
     162A      0.924036   163A      0.924833   164A      0.926691  
     165A      0.937342   166A      0.943975   167A      0.949536  
     168A      0.955109   169A      0.958963   170A      0.964145  
     171A      0.977987   172A      0.979767   173A      0.983560  
     174A      0.991447   175A      1.012235   176A      1.014998  
     177A      1.023922   178A      1.025892   179A      1.029856  
     180A      1.031865   181A      1.043657   182A      1.048192  
     183A      1.055715   184A      1.058612   185A      1.067192  
     186A      1.076878   187A      1.088211   188A      1.090257  
     189A      1.094894   190A      1.094916   191A      1.103016  
     192A      1.113399   193A      1.123536   194A      1.123898  
     195A      1.133437   196A      1.135243   197A      1.139565  
     198A      1.147601   199A      1.152569   200A      1.155300  
     201A      1.162887   202A      1.167800   203A      1.183113  
     204A      1.190932   205A      1.191350   206A      1.197746  
     207A      1.215230   208A      1.222881   209A      1.231365  
     210A      1.231699   211A      1.238044   212A      1.246755  
     213A      1.260084   214A      1.260995   215A      1.265133  
     216A      1.282053   217A      1.293408   218A      1.297311  
     219A      1.318441   220A      1.320906   221A      1.335853  
     222A      1.338162   223A      1.343198   224A      1.344513  
     225A      1.357977   226A      1.362758   227A      1.364608  
     228A      1.376418   229A      1.378332   230A      1.393265  
     231A      1.403332   232A      1.412174   233A      1.430075  
     234A      1.435447   235A      1.445387   236A      1.450548  
     237A      1.471787   238A      1.472448   239A      1.492985  
     240A      1.507250   241A      1.510361   242A      1.520470  
     243A      1.525252   244A      1.527241   245A      1.548761  
     246A      1.554100   247A      1.562552   248A      1.568732  
     249A      1.570021   250A      1.583323   251A      1.583406  
     252A      1.606684   253A      1.613918   254A      1.615816  
     255A      1.625251   256A      1.626492   257A      1.634650  
     258A      1.654811   259A      1.662346   260A      1.671544  
     261A      1.676486   262A      1.679665   263A      1.692951  
     264A      1.699152   265A      1.705935   266A      1.706741  
     267A      1.713150   268A      1.715880   269A      1.724479  
     270A      1.741173   271A      1.749304   272A      1.750318  
     273A      1.760531   274A      1.771446   275A      1.779505  
     276A      1.783000   277A      1.788230   278A      1.797262  
     279A      1.815915   280A      1.820949   281A      1.833817  
     282A      1.834397   283A      1.841640   284A      1.841985  
     285A      1.856658   286A      1.856920   287A      1.865675  
     288A      1.880109   289A      1.882480   290A      1.890482  
     291A      1.893455   292A      1.904310   293A      1.910291  
     294A      1.912460   295A      1.926774   296A      1.945016  
     297A      1.952869   298A      1.957206   299A      1.967652  
     300A      1.974012   301A      1.982078   302A      1.988572  
     303A      1.991201   304A      1.999448   305A      2.012792  
     306A      2.016438   307A      2.018843   308A      2.025232  
     309A      2.032465   310A      2.044137   311A      2.045108  
     312A      2.057616   313A      2.065932   314A      2.072363  
     315A      2.092609   316A      2.095986   317A      2.096590  
     318A      2.098900   319A      2.120786   320A      2.122073  
     321A      2.143746   322A      2.144786   323A      2.151688  
     324A      2.155312   325A      2.158468   326A      2.163674  
     327A      2.177738   328A      2.185876   329A      2.186379  
     330A      2.192297   331A      2.203289   332A      2.211987  
     333A      2.217518   334A      2.231616   335A      2.236870  
     336A      2.244255   337A      2.256823   338A      2.257945  
     339A      2.265616   340A      2.269592   341A      2.277426  
     342A      2.285317   343A      2.298635   344A      2.300839  
     345A      2.310187   346A      2.315894   347A      2.320863  
     348A      2.343419   349A      2.350582   350A      2.356511  
     351A      2.366385   352A      2.371921   353A      2.384010  
     354A      2.387116   355A      2.398035   356A      2.402249  
     357A      2.405549   358A      2.420816   359A      2.424593  
     360A      2.426498   361A      2.436894   362A      2.463669  
     363A      2.472747   364A      2.476081   365A      2.482703  
     366A      2.486452   367A      2.499421   368A      2.500566  
     369A      2.507473   370A      2.511353   371A      2.528911  
     372A      2.534025   373A      2.552017   374A      2.555262  
     375A      2.562458   376A      2.565119   377A      2.584376  
     378A      2.588794   379A      2.595074   380A      2.595100  
     381A      2.611806   382A      2.638646   383A      2.644405  
     384A      2.654787   385A      2.658535   386A      2.678217  
     387A      2.688291   388A      2.695121   389A      2.707825  
     390A      2.716621   391A      2.724762   392A      2.729868  
     393A      2.742334   394A      2.753395   395A      2.775932  
     396A      2.777251   397A      2.794888   398A      2.803611  
     399A      2.819206   400A      2.828124   401A      2.837435  
     402A      2.843465   403A      2.855817   404A      2.861668  
     405A      2.865934   406A      2.871892   407A      2.880111  
     408A      2.913061   409A      2.919490   410A      2.930143  
     411A      2.943855   412A      2.950749   413A      2.964022  
     414A      2.966645   415A      2.988143   416A      2.989480  
     417A      3.021259   418A      3.026985   419A      3.037515  
     420A      3.042357   421A      3.042720   422A      3.072611  
     423A      3.077817   424A      3.082889   425A      3.086949  
     426A      3.098100   427A      3.100353   428A      3.112739  
     429A      3.145130   430A      3.150289   431A      3.157305  
     432A      3.157354   433A      3.177447   434A      3.189328  
     435A      3.201637   436A      3.220066   437A      3.223639  
     438A      3.226807   439A      3.235599   440A      3.258965  
     441A      3.261429   442A      3.274281   443A      3.284157  
     444A      3.305202   445A      3.311097   446A      3.321542  
     447A      3.329491   448A      3.346251   449A      3.346839  
     450A      3.360127   451A      3.378821   452A      3.389785  
     453A      3.393782   454A      3.411280   455A      3.422903  
     456A      3.426693   457A      3.430030   458A      3.438262  
     459A      3.460067   460A      3.460137   461A      3.465866  
     462A      3.473053   463A      3.491966   464A      3.497772  
     465A      3.507921   466A      3.514650   467A      3.530326  
     468A      3.541719   469A      3.550488   470A      3.568085  
     471A      3.579987   472A      3.592115   473A      3.606624  
     474A      3.621302   475A      3.622994   476A      3.648082  
     477A      3.648508   478A      3.659172   479A      3.674138  
     480A      3.685024   481A      3.695604   482A      3.714376  
     483A      3.731094   484A      3.734912   485A      3.745701  
     486A      3.750737   487A      3.752707   488A      3.755809  
     489A      3.770987   490A      3.775430   491A      3.800092  
     492A      3.817116   493A      3.832822   494A      3.837477  
     495A      3.859422   496A      3.859753   497A      3.866148  
     498A      3.877711   499A      3.883516   500A      3.904681  
     501A      3.920357   502A      3.929366   503A      3.930454  
     504A      3.946263   505A      3.961305   506A      3.964305  
     507A      3.979040   508A      3.984463   509A      3.998671  
     510A      4.019665   511A      4.024044   512A      4.053527  
     513A      4.053794   514A      4.060533   515A      4.063420  
     516A      4.077060   517A      4.084475   518A      4.095918  
     519A      4.097020   520A      4.112122   521A      4.133703  
     522A      4.136193   523A      4.155308   524A      4.163270  
     525A      4.171715   526A      4.186607   527A      4.199061  
     528A      4.212310   529A      4.224873   530A      4.226457  
     531A      4.246035   532A      4.279026   533A      4.282572  
     534A      4.303964   535A      4.306744   536A      4.315440  
     537A      4.321172   538A      4.337563   539A      4.342055  
     540A      4.345931   541A      4.378753   542A      4.383875  
     543A      4.389225   544A      4.424504   545A      4.442271  
     546A      4.454152   547A      4.458499   548A      4.468061  
     549A      4.486622   550A      4.508135   551A      4.518937  
     552A      4.528642   553A      4.552675   554A      4.558903  
     555A      4.586259   556A      4.603953   557A      4.613322  
     558A      4.631423   559A      4.642265   560A      4.660378  
     561A      4.673436   562A      4.700880   563A      4.704170  
     564A      4.712221   565A      4.731183   566A      4.762014  
     567A      4.762211   568A      4.787265   569A      4.815101  
     570A      4.821276   571A      4.851095   572A      4.864636  
     573A      4.881567   574A      4.884190   575A      4.909352  
     576A      4.932664   577A      4.937962   578A      4.954602  
     579A      4.968116   580A      4.970863   581A      4.980113  
     582A      4.982806   583A      5.003605   584A      5.021576  
     585A      5.037409   586A      5.051631   587A      5.053569  
     588A      5.076781   589A      5.093780   590A      5.108152  
     591A      5.128997   592A      5.135488   593A      5.143766  
     594A      5.158750   595A      5.177476   596A      5.191725  
     597A      5.254573   598A      5.282155   599A      5.290714  
     600A      5.300121   601A      5.311425   602A      5.318326  
     603A      5.346066   604A      5.374355   605A      5.388860  
     606A      5.415704   607A      5.416337   608A      5.428101  
     609A      5.429660   610A      5.461616   611A      5.490608  
     612A      5.495627   613A      5.530189   614A      5.535013  
     615A      5.568631   616A      5.588559   617A      5.589517  
     618A      5.611048   619A      5.638606   620A      5.671155  
     621A      5.684755   622A      5.689030   623A      5.697335  
     624A      5.727493   625A      5.729842   626A      5.764753  
     627A      5.774991   628A      5.789994   629A      5.795398  
     630A      5.806284   631A      5.850690   632A      5.861741  
     633A      5.901648   634A      5.923760   635A      5.934756  
     636A      5.937971   637A      5.962036   638A      5.975856  
     639A      6.004304   640A      6.016075   641A      6.035950  
     642A      6.095031   643A      6.125359   644A      6.135865  
     645A      6.153583   646A      6.254495   647A      6.327326  
     648A      6.391803   649A      6.408780   650A      6.424485  
     651A      6.516820   652A      6.534626   653A      6.587312  
     654A      6.679310   655A      6.728385   656A      6.775440  
     657A      6.897998   658A      6.951674   659A      6.960510  
     660A      6.971625   661A      7.001117   662A      7.055913  
[...]
     533A      3.963345   534A      3.972021   535A      3.996997  
     536A      4.016139   537A      4.018080   538A      4.018959  
     539A      4.036588   540A      4.049147   541A      4.054368  
     542A      4.073286   543A      4.077905   544A      4.085754  
     545A      4.094602   546A      4.110665   547A      4.126977  
     548A      4.140423   549A      4.159245   550A      4.170983  
     551A      4.176451   552A      4.189590   553A      4.194676  
     554A      4.214221   555A      4.217103   556A      4.244184  
     557A      4.248131   558A      4.267616   559A      4.277973  
     560A      4.287203   561A      4.291384   562A      4.304529  
     563A      4.311777   564A      4.324961   565A      4.344849  
     566A      4.358575   567A      4.362027   568A      4.372936  
     569A      4.375227   570A      4.387550   571A      4.405160  
     572A      4.417719   573A      4.431141   574A      4.440606  
     575A      4.463031   576A      4.466771   577A      4.488572  
     578A      4.501773   579A      4.520812   580A      4.528734  
     581A      4.530631   582A      4.536541   583A      4.567747  
     584A      4.579583   585A      4.583585   586A      4.605875  
     587A      4.607114   588A      4.610267   589A      4.629773  
     590A      4.640546   591A      4.668093   592A      4.681359  
     593A      4.697383   594A      4.708848   595A      4.720190  
     596A      4.732851   597A      4.736593   598A      4.752825  
     599A      4.790095   600A      4.798338   601A      4.802909  
     602A      4.815830   603A      4.836492   604A      4.843082  
     605A      4.856753   606A      4.861049   607A      4.874886  
     608A      4.887464   609A      4.911704   610A      4.918923  
     611A      4.945234   612A      4.967136   613A      4.972693  
     614A      4.988757   615A      5.007163   616A      5.014635  
     617A      5.022897   618A      5.025163   619A      5.039103  
     620A      5.054790   621A      5.079916   622A      5.088219  
     623A      5.135037   624A      5.137949   625A      5.164895  
     626A      5.169354   627A      5.195339   628A      5.220988  
     629A      5.223640   630A      5.261195   631A      5.263890  
     632A      5.280878   633A      5.310036   634A      5.317915  
     635A      5.355654   636A      5.357827   637A      5.383232  
     638A      5.408765   639A      5.420428   640A      5.435482  
     641A      5.470462   642A      5.497898   643A      5.503915  
     644A      5.522870   645A      5.560241   646A      5.582952  
     647A      5.624195   648A      5.641425   649A      5.673067  
     650A      5.703551   651A      5.753632   652A      5.788237  
     653A      5.858476   654A      5.859352   655A      5.904224  
     656A      5.949572   657A      6.108189   658A      6.200814  
     659A      6.282927   660A      6.283226   661A      6.349398  
     662A      6.389233   663A      6.400602   664A      6.421032  
     665A      6.463669   666A      6.464755   667A      6.508073  
     668A      6.564686   669A      6.583692   670A      6.634523  
     671A      6.636327   672A      6.659831   673A      6.666414  
     674A      6.673363   675A      6.697395   676A      6.738973  
     677A      6.743573   678A      6.790751   679A      6.794932  
     680A      6.847347   681A      6.852484   682A      6.871411  
     683A      6.902164   684A      6.904267   685A      6.918082  
     686A      6.923813   687A      6.935885   688A      6.948075  
     689A      6.956566   690A      6.972290   691A      6.983769  
     692A      6.991858   693A      7.002212   694A      7.007446  
     695A      7.016136   696A      7.033605   697A      7.042452  
     698A      7.055950   699A      7.070127   700A      7.088832  
     701A      7.099726   702A      7.106682   703A      7.111393  
     704A      7.114030   705A      7.161649   706A      7.165324  
     707A      7.177514   708A      7.181903   709A      7.211188  
     710A      7.213866   711A      7.225362   712A      7.228687  
     713A      7.242319   714A      7.285131   715A      7.285883  
     716A      7.310500   717A      7.327367   718A      7.330090  
     719A      7.351148   720A      7.357438   721A      7.395684  
     722A      7.398483   723A      7.439387   724A      7.444865  
     725A      7.453655   726A      7.472614   727A      7.490436  
     728A      7.505576   729A      7.506692   730A      7.541311  
     731A      7.556547   732A      7.562619   733A      7.570471  
     734A      7.591086   735A      7.605874   736A      7.609188  
     737A      7.643269   738A      7.651891   739A      7.658944  
     740A      7.702600   741A      7.709575   742A      7.720790  
     743A      7.749460   744A      7.766000   745A      7.788471  
     746A      7.804221   747A      7.819241   748A      7.839669  
     749A      7.849351   750A      7.877556   751A      7.882324  
     752A      7.887729   753A      7.915388   754A      7.933620  
     755A      7.949882   756A      7.964318   757A      7.966459  
     758A      7.993653   759A      8.006146   760A      8.014771  
     761A      8.027693   762A      8.044102   763A      8.065566  
     764A      8.075528   765A      8.082435   766A      8.103971  
     767A      8.117259   768A      8.138970   769A      8.161622  
     770A      8.169850   771A      8.172879   772A      8.178460  
     773A      8.212962   774A      8.229484   775A      8.272031  
     776A      8.273924   777A      8.291024   778A      8.303739  
     779A      8.306366   780A      8.336181   781A      8.357132  
     782A      8.364379   783A      8.375960   784A      8.377200  
     785A      8.415225   786A      8.468758   787A      8.489571  
     788A      8.520390   789A      8.532127   790A      8.536934  
     791A      8.567182   792A      8.570131   793A      8.622031  
     794A      8.641073   795A      8.658129   796A      8.659946  
     797A      8.695229   798A      8.705422   799A      8.718844  
     800A      8.752133   801A      8.759815   802A      8.774281  
     803A      8.816873   804A      8.821145   805A      8.840956  
     806A      8.872551   807A      8.878646   808A      8.896891  
     809A      8.898203   810A      8.913287   811A      8.919773  
     812A      8.987428   813A      8.988240   814A      8.997942  
     815A      9.006642   816A      9.028628   817A      9.028740  
     818A      9.051102   819A      9.079179   820A      9.111363  
     821A      9.114906   822A      9.121641   823A      9.153187  
     824A      9.154560   825A      9.171968   826A      9.176202  
     827A      9.212818   828A      9.246728   829A      9.256471  
     830A      9.270889   831A      9.280257   832A      9.292351  
     833A      9.311724   834A      9.330680   835A      9.365931  
     836A      9.372375   837A      9.384715   838A      9.403378  
     839A      9.404414   840A      9.419550   841A      9.436443  
     842A      9.438485   843A      9.484429   844A      9.515199  
     845A      9.527354   846A      9.534695   847A      9.550968  
     848A      9.559667   849A      9.569847   850A      9.603419  
     851A      9.615757   852A      9.657124   853A      9.675193  
     854A      9.683307   855A      9.718203   856A      9.740217  
     857A      9.750378   858A      9.758315   859A      9.775436  
     860A      9.818436   861A      9.822376   862A      9.841973  
     863A      9.851589   864A      9.869498   865A      9.886606  
     866A      9.901737   867A      9.933586   868A      9.948751  
     869A      9.952954   870A      9.968586   871A      9.987497  
     872A     10.009342   873A     10.015126   874A     10.019058  
     875A     10.028790   876A     10.043772   877A     10.083253  
     878A     10.113451   879A     10.117139   880A     10.133059  
     881A     10.164552   882A     10.164676   883A     10.188776  
     884A     10.206760   885A     10.215924   886A     10.246301  
     887A     10.249004   888A     10.266344   889A     10.289974  
     890A     10.301446   891A     10.317623   892A     10.343216  
     893A     10.346365   894A     10.368831   895A     10.394677  
     896A     10.409739   897A     10.430142   898A     10.453407  
     899A     10.513439   900A     10.523390   901A     10.538704  
     902A     10.546110   903A     10.585259   904A     10.593002  
     905A     10.596563   906A     10.648135   907A     10.653531  
     908A     10.676798   909A     10.690151   910A     10.711131  
     911A     10.723089   912A     10.772997   913A     10.786257  
     914A     10.858765   915A     10.886067   916A     10.917682  
     917A     10.947871   918A     10.955408   919A     11.015771  
     920A     11.084258   921A     11.108085   922A     11.145205  
     923A     11.154042   924A     11.156912   925A     11.171846  
     926A     11.202282   927A     11.221669   928A     11.237518  
     929A     11.255371   930A     11.274995   931A     11.332357  
     932A     11.351637   933A     11.375003   934A     11.406608  
     935A     11.433041   936A     11.464224   937A     11.482131  
     938A     11.511334   939A     11.552231   940A     11.577080  
     941A     11.656813   942A     11.667967   943A     11.716258  
     944A     11.731196   945A     11.743871   946A     11.828633  
     947A     11.895911   948A     11.954294   949A     11.970275  
     950A     12.106822   951A     12.137782   952A     12.189599  
     953A     12.298009   954A     12.471103   955A     12.484483  
     956A     12.498737   957A     12.650574   958A     12.923064  
     959A     12.988764   960A     13.032849   961A     13.098205  
     962A     13.196089   963A     13.404600   964A     13.440245  
     965A     13.576527   966A     13.651267   967A     13.682704  
     968A     13.710794   969A     13.720472   970A     13.842313  
     971A     14.035274   972A     14.101660   973A     14.389923  
     974A     14.561608   975A     14.857047   976A     15.001958  
     977A     15.315203   978A     15.443627   979A     17.106030  
     980A     17.580427   981A     28.471018   982A     28.664249  
     983A     28.694990   984A     29.151869   985A     36.392543  
     986A     46.011318  

    Final Occupation by Irrep:
              A 
    DOCC [    25 ]

  @DF-RHF Final Energy:  -287.30758823098870

   => Energetics <=

    Nuclear Repulsion Energy =            263.1303964242742950
    One-Electron Energy =                -912.4257053690400880
    Two-Electron Energy =                 361.9877207137770938
    Total Energy =                       -287.3075882309886993

Computation Completed


Properties will be evaluated at   0.000000,   0.000000,   0.000000 [a0]

Properties computed using the SCF density matrix

  Nuclear Dipole Moment: [e a0]
     X:    -0.3776      Y:    -1.4011      Z:     1.4096

  Electronic Dipole Moment: [e a0]
     X:    -0.0262      Y:     1.5290      Z:    -0.4034

  Dipole Moment: [e a0]
     X:    -0.4038      Y:     0.1280      Z:     1.0063     Total:     1.0918

  Dipole Moment: [D]
     X:    -1.0263      Y:     0.3253      Z:     2.5577     Total:     2.7750


*** tstop() called on node37.bme.utexas.edu at Sat Apr 11 17:31:47 2020
Module time:
	user time   =     458.41 seconds =       7.64 minutes
	system time =      26.75 seconds =       0.45 minutes
	total time  =         99 seconds =       1.65 minutes
Total time:
	user time   =    2452.74 seconds =      40.88 minutes
	system time =     273.71 seconds =       4.56 minutes
	total time  =        597 seconds =       9.95 minutes

*** tstart() called on node37.bme.utexas.edu
*** at Sat Apr 11 17:31:47 2020


  //>>>>>>>>>>>>>>>>>>>>>>>>>>>>>>>>>>>//
  //               DFMP2               //
  //<<<<<<<<<<<<<<<<<<<<<<<<<<<<<<<<<<<//

   => Loading Basis Set <=

    Name: (AUG-CC-PVQZ AUX)
    Role: RIFIT
    Keyword: DF_BASIS_MP2
    atoms 1           entry N          line   258 file /home/liuchw/anaconda3/envs/psi4env/share/psi4/basis/aug-cc-pvqz-ri.gbs 
    atoms 2-5         entry C          line   184 file /home/liuchw/anaconda3/envs/psi4env/share/psi4/basis/aug-cc-pvqz-ri.gbs 
    atoms 6-14, 16-17 entry H          line    30 file /home/liuchw/anaconda3/envs/psi4env/share/psi4/basis/aug-cc-pvqz-ri.gbs 
    atoms 15          entry O          line   332 file /home/liuchw/anaconda3/envs/psi4env/share/psi4/basis/aug-cc-pvqz-ri.gbs 

	 --------------------------------------------------------
	                          DF-MP2                         
	      2nd-Order Density-Fitted Moller-Plesset Theory     
	              RMP2 Wavefunction,   6 Threads             
	                                                         
	        Rob Parrish, Justin Turney, Andy Simmonett,      
	           Ed Hohenstein, and C. David Sherrill          
	 --------------------------------------------------------

   => Auxiliary Basis Set <=

  Basis Set: (AUG-CC-PVQZ AUX)
    Blend: AUG-CC-PVQZ-RI
    Number of shells: 436
    Number of basis function: 1888
    Number of Cartesian functions: 2577
    Spherical Harmonics?: true
    Max angular momentum: 5

	 --------------------------------------------------------
	                 NBF =   986, NAUX =  1888
	 --------------------------------------------------------
	   CLASS    FOCC     OCC    AOCC    AVIR     VIR    FVIR
	   PAIRS       0      25      25     961     961       0
	 --------------------------------------------------------

	-----------------------------------------------------------
	 ==================> DF-MP2 Energies <==================== 
	-----------------------------------------------------------
	 Reference Energy          =    -287.3075882309886993 [Eh]
	 Singles Energy            =      -0.0000000000000000 [Eh]
	 Same-Spin Energy          =      -0.3136031308141504 [Eh]
	 Opposite-Spin Energy      =      -1.1219296048415597 [Eh]
	 Correlation Energy        =      -1.4355327356557102 [Eh]
	 Total Energy              =    -288.7431209666444261 [Eh]
	-----------------------------------------------------------
	 ================> DF-SCS-MP2 Energies <================== 
	-----------------------------------------------------------
	 SCS Same-Spin Scale       =       0.3333333333333333 [-]
	 SCS Opposite-Spin Scale   =       1.2000000000000000 [-]
	 SCS Same-Spin Energy      =      -0.1045343769380501 [Eh]
	 SCS Opposite-Spin Energy  =      -1.3463155258098716 [Eh]
	 SCS Correlation Energy    =      -1.4508499027479218 [Eh]
	 SCS Total Energy          =    -288.7584381337366040 [Eh]
	-----------------------------------------------------------


*** tstop() called on node37.bme.utexas.edu at Sat Apr 11 17:32:37 2020
Module time:
	user time   =     191.42 seconds =       3.19 minutes
	system time =      13.32 seconds =       0.22 minutes
	total time  =         50 seconds =       0.83 minutes
Total time:
	user time   =    2644.16 seconds =      44.07 minutes
	system time =     287.03 seconds =       4.78 minutes
	total time  =        647 seconds =      10.78 minutes

  //>>>>>>>>>>>>>>>>>>>>>>>>>>>>>>>>>>>//
  //  CBS Results: mp2/aug-cc-pv[tq]z  //
  //<<<<<<<<<<<<<<<<<<<<<<<<<<<<<<<<<<<//


   ==> HF <==

   HI-zeta (4) Energy:               -287.307588230989


   ==> Helgaker 2-point correlated extrapolation for method: MP2 <==

   LO-zeta (3) Energy:               -288.592394707069
   HI-zeta (4) Energy:               -288.743120966644
   Alpha (exponent) Value:             3.000000000000
   Extrapolated Energy:              -288.853110399307

   @Extrapolated MP2/(T,Q):          -288.853110399307



   ==> Helgaker 2-point correlated extrapolation for method: HF <==

   LO-zeta (3) Energy:               -287.289803057601
   HI-zeta (4) Energy:               -287.307588230989
   Alpha (exponent) Value:             3.000000000000
   Extrapolated Energy:              -287.320566600758

   @Extrapolated HF/(T,Q):           -287.320566600758


   ==> Components <==

  ---------------------------------------------------------------------------------------------------------
                          Method / Basis                      Rqd      Energy [Eh]   Variable
  ---------------------------------------------------------------------------------------------------------
                              hf / aug-cc-pvtz                  *    -287.28980306   HF TOTAL ENERGY
                             mp2 / aug-cc-pvtz                  *    -288.59239471   MP2 TOTAL ENERGY
                              hf / aug-cc-pvqz                  *    -287.30758823   HF TOTAL ENERGY
                             mp2 / aug-cc-pvqz                  *    -288.74312097   MP2 TOTAL ENERGY
  ---------------------------------------------------------------------------------------------------------

   ==> Stages <==

  ---------------------------------------------------------------------------------------------------------
      Stage               Method / Basis                       Wt      Energy [Eh]   Scheme
  ---------------------------------------------------------------------------------------------------------
        scf                   hf / aug-cc-pvqz                  1    -287.30758823   xtpl_highest_1
       corl                  mp2 / aug-cc-pv[tq]z               1    -288.85311040   corl_xtpl_helgaker_2
       corl                   hf / aug-cc-pv[tq]z              -1    -287.32056660   corl_xtpl_helgaker_2
  ---------------------------------------------------------------------------------------------------------

   ==> CBS <==

  ---------------------------------------------------------------------------------------------------------
      Stage               Method / Basis                               Energy [Eh]   Scheme
  ---------------------------------------------------------------------------------------------------------
        scf                   hf / aug-cc-pvqz                       -287.30758823   xtpl_highest_1
       corl                  mp2 / aug-cc-pv[tq]z                      -1.53254380   corl_xtpl_helgaker_2
      total                  CBS                                     -288.84013203   
  ---------------------------------------------------------------------------------------------------------
   => Loading Basis Set <=

    Name: DEF2-SVP
    Role: ORBITAL
    Keyword: BASIS
    atoms 1           entry N          line   110 file /home/liuchw/anaconda3/envs/psi4env/share/psi4/basis/def2-svp.gbs 
    atoms 2-5         entry C          line    90 file /home/liuchw/anaconda3/envs/psi4env/share/psi4/basis/def2-svp.gbs 
    atoms 6-14, 16-17 entry H          line    15 file /home/liuchw/anaconda3/envs/psi4env/share/psi4/basis/def2-svp.gbs 
    atoms 15          entry O          line   130 file /home/liuchw/anaconda3/envs/psi4env/share/psi4/basis/def2-svp.gbs 


       N-Body: Complex Energy (fragments = (1, 2), basis = (1, 2):  -288.84013202953838)

   ==> N-Body: Counterpoise Corrected (CP) energies <==

   n-Body     Total Energy [Eh]       I.E. [kcal/mol]      Delta [kcal/mol]
        1     -288.826203914563        0.000000000000        0.000000000000
        2     -288.840230570121       -8.801859248299       -8.801859248299

   => Loading Basis Set <=

    Name: DEF2-SVP
    Role: ORBITAL
    Keyword: BASIS
    atoms 1           entry N          line   110 file /home/liuchw/anaconda3/envs/psi4env/share/psi4/basis/def2-svp.gbs 
    atoms 2-5         entry C          line    90 file /home/liuchw/anaconda3/envs/psi4env/share/psi4/basis/def2-svp.gbs 
    atoms 6-14, 16-17 entry H          line    15 file /home/liuchw/anaconda3/envs/psi4env/share/psi4/basis/def2-svp.gbs 
    atoms 15          entry O          line   130 file /home/liuchw/anaconda3/envs/psi4env/share/psi4/basis/def2-svp.gbs 


    Psi4 stopped on: Saturday, 11 April 2020 05:32PM
    Psi4 wall time for execution: 0:10:48.43

*** Psi4 exiting successfully. Buy a developer a beer!
