
    -----------------------------------------------------------------------
          Psi4: An Open-Source Ab Initio Electronic Structure Package
                               Psi4 1.4a2.dev224 

                         Git: Rev {master} e453b16 


    R. M. Parrish, L. A. Burns, D. G. A. Smith, A. C. Simmonett,
    A. E. DePrince III, E. G. Hohenstein, U. Bozkaya, A. Yu. Sokolov,
    R. Di Remigio, R. M. Richard, J. F. Gonthier, A. M. James,
    H. R. McAlexander, A. Kumar, M. Saitow, X. Wang, B. P. Pritchard,
    P. Verma, H. F. Schaefer III, K. Patkowski, R. A. King, E. F. Valeev,
    F. A. Evangelista, J. M. Turney, T. D. Crawford, and C. D. Sherrill,
    J. Chem. Theory Comput. 13(7) pp 3185--3197 (2017).
    (doi: 10.1021/acs.jctc.7b00174)


                         Additional Contributions by
    P. Kraus, H. Kruse, M. H. Lechner, M. C. Schieber, R. A. Shaw,
    A. Alenaizan, R. Galvelis, Z. L. Glick, S. Lehtola, and J. P. Misiewicz

    -----------------------------------------------------------------------


    Psi4 started on: Saturday, 11 April 2020 05:13PM

    Process ID: 83350
    Host:       node52.bme.utexas.edu
    PSIDATADIR: /home/liuchw/anaconda3/envs/psi4env/share/psi4
    Memory:     500.0 MiB
    Threads:    6
    
  ==> Input File <==

--------------------------------------------------------------------------
#Generated by lconvert.py for cbs job

memory 40 GB

molecule  {
0 1
  C       -3.9041850     0.4642280     0.1733950
  C       -3.1319470     1.4949930     0.7047510
  C       -1.7636760     1.5472140     0.4543840
  C       -1.1720530     0.5608840    -0.3336690
  C       -1.9331340    -0.4724600    -0.8708400
  C       -3.3009130    -0.5146670    -0.6115340
  O       -4.0168420    -1.5549100    -1.1571630
  H       -4.9690240     0.4221100     0.3693310
  H       -3.6047260     2.2534000     1.3133110
  H       -1.1656340     2.3469740     0.8669310
  H       -0.1105100     0.5937610    -0.5364240
  H       -1.4885870    -1.2407000    -1.4881610
  H       -4.9454990    -1.4310160    -0.9354470
--
0 1
  O       -2.5406020    -3.0289690    -2.6687340
  H       -2.5843380    -3.9439250    -2.3866880
  H       -3.2211220    -2.5937720    -2.1436090
units angstrom
no_reorient
symmetry c1
}

set {
scf_type DF
mp2_type DF
e_convergence 7
reference rhf
}

energy('mp2/aug-cc-pv[tq]z', bsse_type='cp')
--------------------------------------------------------------------------

  Memory set to  37.253 GiB by Python driver.

Scratch directory: /scratch//


   ===> N-Body Interaction Abacus <===
        BSSE Treatment:                     cp
        Number of 1-body computations:     4
        Number of 2-body computations:     1

   ==> N-Body: Now computing 1-body complexes <==


       N-Body: Computing complex (1/4) with fragments (2,) in the basis of fragments (2,).


Scratch directory: /scratch//

  //>>>>>>>>>>>>>>>>>>>>>>>>>>>>>>>>>>>//
  //   CBS Setup: mp2/aug-cc-pv[tq]z   //
  //<<<<<<<<<<<<<<<<<<<<<<<<<<<<<<<<<<<//

    Naive listing of computations required.
             hf / aug-cc-pvqz              for  HF TOTAL ENERGY
            mp2 / aug-cc-pvtz              for  MP2 TOTAL ENERGY
            mp2 / aug-cc-pvqz              for  MP2 TOTAL ENERGY
             hf / aug-cc-pvtz              for  HF TOTAL ENERGY
             hf / aug-cc-pvqz              for  HF TOTAL ENERGY

    Enlightened listing of computations required.
            mp2 / aug-cc-pvtz              for  MP2 TOTAL ENERGY
            mp2 / aug-cc-pvqz              for  MP2 TOTAL ENERGY

    Full listing of computations to be obtained (required and bonus).
             hf / aug-cc-pvtz              for  HF TOTAL ENERGY
            mp2 / aug-cc-pvtz              for  MP2 TOTAL ENERGY
             hf / aug-cc-pvqz              for  HF TOTAL ENERGY
            mp2 / aug-cc-pvqz              for  MP2 TOTAL ENERGY

  //>>>>>>>>>>>>>>>>>>>>>>>>>>>>>>>>>>>>//
  // CBS Computation: MP2 / AUG-CC-PVTZ //
  //<<<<<<<<<<<<<<<<<<<<<<<<<<<<<<<<<<<<//


Scratch directory: /scratch//

*** tstart() called on node52.bme.utexas.edu
*** at Sat Apr 11 17:13:04 2020

   => Loading Basis Set <=

    Name: AUG-CC-PVTZ
    Role: ORBITAL
    Keyword: BASIS
    atoms 1   entry O          line   331 file /home/liuchw/anaconda3/envs/psi4env/share/psi4/basis/aug-cc-pvtz.gbs 
    atoms 2-3 entry H          line    40 file /home/liuchw/anaconda3/envs/psi4env/share/psi4/basis/aug-cc-pvtz.gbs 


         ---------------------------------------------------------
                                   SCF
               by Justin Turney, Rob Parrish, Andy Simmonett
                          and Daniel G. A. Smith
                              RHF Reference
                        6 Threads,  38146 MiB Core
         ---------------------------------------------------------

  ==> Geometry <==

    Molecular point group: c1
    Full point group: C1

    Geometry (in Angstrom), charge = 0, multiplicity = 1:

       Center              X                  Y                   Z               Mass       
    ------------   -----------------  -----------------  -----------------  -----------------
         O            0.222559360021    -2.672191962087    -2.026387646991    15.994914619570
         H            0.178823360021    -3.587147962087    -1.744341646991     1.007825032230
         H           -0.457960639979    -2.236994962087    -1.501262646991     1.007825032230

  Running in c1 symmetry.

  Rotational constants: A =     17.43764  B =      0.08278  C =      0.08266 [cm^-1]
  Rotational constants: A = 522767.22061  B =   2481.75359  C =   2477.93924 [MHz]
  Nuclear repulsion =    9.160830883306415

  Charge       = 0
  Multiplicity = 1
  Electrons    = 10
  Nalpha       = 5
  Nbeta        = 5

  ==> Algorithm <==

  SCF Algorithm Type is DF.
  DIIS enabled.
  MOM disabled.
  Fractional occupation disabled.
  Guess Type is SAD.
  Energy threshold   = 1.00e-07
  Density threshold  = 1.00e-08
  Integral threshold = 0.00e+00

  ==> Primary Basis <==

  Basis Set: AUG-CC-PVTZ
    Blend: AUG-CC-PVTZ
    Number of shells: 32
    Number of basis function: 92
    Number of Cartesian functions: 105
    Spherical Harmonics?: true
    Max angular momentum: 3

   => Loading Basis Set <=

    Name: (AUG-CC-PVTZ AUX)
    Role: JKFIT
    Keyword: DF_BASIS_SCF
    atoms 1   entry O          line   286 file /home/liuchw/anaconda3/envs/psi4env/share/psi4/basis/aug-cc-pvtz-jkfit.gbs 
    atoms 2-3 entry H          line    70 file /home/liuchw/anaconda3/envs/psi4env/share/psi4/basis/aug-cc-pvtz-jkfit.gbs 

  ==> Pre-Iterations <==

   -------------------------------------------------------
    Irrep   Nso     Nmo     Nalpha   Nbeta   Ndocc  Nsocc
   -------------------------------------------------------
     A         92      92       0       0       0       0
   -------------------------------------------------------
    Total      92      92       5       5       5       0
   -------------------------------------------------------

  ==> Integral Setup <==

  DFHelper Memory: AOs need 0.015 GiB; user supplied 27.940 GiB. Using in-core AOs.

  ==> MemDFJK: Density-Fitted J/K Matrices <==

    J tasked:                   Yes
    K tasked:                   Yes
    wK tasked:                   No
    OpenMP threads:               6
    Memory [MiB]:             28610
    Algorithm:                 Core
    Schwarz Cutoff:           1E-12
    Mask sparsity (%):       0.0000
    Fitting Condition:        1E-10

   => Auxiliary Basis Set <=

  Basis Set: (AUG-CC-PVTZ AUX)
    Blend: AUG-CC-PVTZ-JKFIT
    Number of shells: 58
    Number of basis function: 196
    Number of Cartesian functions: 241
    Spherical Harmonics?: true
    Max angular momentum: 4

  Minimum eigenvalue in the overlap matrix is 3.8872030014E-04.
  Using Symmetric Orthogonalization.

  SCF Guess: Superposition of Atomic Densities via on-the-fly atomic UHF.

  ==> Iterations <==

                           Total Energy        Delta E     RMS |[F,P]|

   @DF-RHF iter SAD:   -75.47450901944666   -7.54745e+01   0.00000e+00 
   @DF-RHF iter   1:   -75.97579750154335   -5.01288e-01   5.09087e-03 DIIS
   @DF-RHF iter   2:   -76.02826069156596   -5.24632e-02   3.47775e-03 DIIS
   @DF-RHF iter   3:   -76.05985212364044   -3.15914e-02   2.36267e-04 DIIS
   @DF-RHF iter   4:   -76.06024253871011   -3.90415e-04   5.67377e-05 DIIS
   @DF-RHF iter   5:   -76.06026712487896   -2.45862e-05   1.29067e-05 DIIS
   @DF-RHF iter   6:   -76.06026914062936   -2.01575e-06   2.82385e-06 DIIS
   @DF-RHF iter   7:   -76.06026924659933   -1.05970e-07   5.06418e-07 DIIS
   @DF-RHF iter   8:   -76.06026924959173   -2.99239e-09   8.49984e-08 DIIS
   @DF-RHF iter   9:   -76.06026924965761   -6.58815e-11   2.08500e-08 DIIS
   @DF-RHF iter  10:   -76.06026924966152   -3.90799e-12   3.08300e-09 DIIS
  Energy and wave function converged.


  ==> Post-Iterations <==

    Orbital Energies [Eh]
    ---------------------

    Doubly Occupied:                                                      

       1A    -20.568164     2A     -1.352210     3A     -0.714436  
       4A     -0.585625     5A     -0.510264  

    Virtual:                                                              

       6A      0.029345     7A      0.047714     8A      0.135834  
       9A      0.158813    10A      0.175234    11A      0.183152  
      12A      0.227052    13A      0.244986    14A      0.265526  
      15A      0.299720    16A      0.309958    17A      0.365858  
      18A      0.437414    19A      0.466124    20A      0.599020  
      21A      0.658844    22A      0.707773    23A      0.722934  
      24A      0.731697    25A      0.830984    26A      0.846715  
      27A      0.892304    28A      0.912611    29A      0.917894  
      30A      0.922626    31A      0.931121    32A      0.960905  
      33A      1.020920    34A      1.043226    35A      1.082496  
      36A      1.108297    37A      1.176661    38A      1.182431  
      39A      1.260993    40A      1.510169    41A      1.532943  
      42A      1.582151    43A      1.805639    44A      1.823335  
      45A      1.983317    46A      2.118304    47A      2.263204  
      48A      2.315953    49A      2.327189    50A      2.418642  
      51A      2.421396    52A      2.443442    53A      2.480641  
      54A      2.676550    55A      2.697984    56A      2.772196  
      57A      2.812891    58A      2.884409    59A      3.653686  
      60A      3.739319    61A      4.020003    62A      4.083135  
      63A      4.160462    64A      4.249863    65A      4.284000  
      66A      4.372122    67A      4.377447    68A      4.405835  
      69A      4.519742    70A      4.726772    71A      4.845527  
      72A      5.148884    73A      5.152385    74A      5.247421  
      75A      5.324388    76A      5.524255    77A      5.659913  
      78A      6.181799    79A      6.515092    80A      6.714593  
      81A      6.906624    82A      7.135764    83A      7.258318  
      84A      7.298088    85A      7.317942    86A      7.338159  
      87A      7.360542    88A      7.534890    89A      7.897199  
      90A      7.928872    91A      8.809108    92A     15.717569  

    Final Occupation by Irrep:
              A 
    DOCC [     5 ]

  @DF-RHF Final Energy:   -76.06026924966152

   => Energetics <=

    Nuclear Repulsion Energy =              9.1608308833064154
    One-Electron Energy =                -122.9808024923802350
    Two-Electron Energy =                  37.7597023594123016
    Total Energy =                        -76.0602692496615163

Computation Completed


Properties will be evaluated at   0.000000,   0.000000,   0.000000 [a0]

Properties computed using the SCF density matrix

  Nuclear Dipole Moment: [e a0]
     X:     2.8371      Y:   -51.4037      Z:   -36.7678

  Electronic Dipole Moment: [e a0]
     X:    -3.3167      Y:    51.0850      Z:    37.3026

  Dipole Moment: [e a0]
     X:    -0.4796      Y:    -0.3187      Z:     0.5347     Total:     0.7858

  Dipole Moment: [D]
     X:    -1.2189      Y:    -0.8101      Z:     1.3592     Total:     1.9973


*** tstop() called on node52.bme.utexas.edu at Sat Apr 11 17:13:06 2020
Module time:
	user time   =       5.75 seconds =       0.10 minutes
	system time =       0.23 seconds =       0.00 minutes
	total time  =          2 seconds =       0.03 minutes
Total time:
	user time   =       5.75 seconds =       0.10 minutes
	system time =       0.23 seconds =       0.00 minutes
	total time  =          2 seconds =       0.03 minutes

*** tstart() called on node52.bme.utexas.edu
*** at Sat Apr 11 17:13:06 2020


  //>>>>>>>>>>>>>>>>>>>>>>>>>>>>>>>>>>>//
  //               DFMP2               //
  //<<<<<<<<<<<<<<<<<<<<<<<<<<<<<<<<<<<//

   => Loading Basis Set <=

    Name: (AUG-CC-PVTZ AUX)
    Role: RIFIT
    Keyword: DF_BASIS_MP2
    atoms 1   entry O          line   264 file /home/liuchw/anaconda3/envs/psi4env/share/psi4/basis/aug-cc-pvtz-ri.gbs 
    atoms 2-3 entry H          line    30 file /home/liuchw/anaconda3/envs/psi4env/share/psi4/basis/aug-cc-pvtz-ri.gbs 

	 --------------------------------------------------------
	                          DF-MP2                         
	      2nd-Order Density-Fitted Moller-Plesset Theory     
	              RMP2 Wavefunction,   6 Threads             
	                                                         
	        Rob Parrish, Justin Turney, Andy Simmonett,      
	           Ed Hohenstein, and C. David Sherrill          
	 --------------------------------------------------------

   => Auxiliary Basis Set <=

  Basis Set: (AUG-CC-PVTZ AUX)
    Blend: AUG-CC-PVTZ-RI
    Number of shells: 56
    Number of basis function: 198
    Number of Cartesian functions: 246
    Spherical Harmonics?: true
    Max angular momentum: 4

	 --------------------------------------------------------
	                 NBF =    92, NAUX =   198
	 --------------------------------------------------------
	   CLASS    FOCC     OCC    AOCC    AVIR     VIR    FVIR
	   PAIRS       0       5       5      87      87       0
	 --------------------------------------------------------

	-----------------------------------------------------------
	 ==================> DF-MP2 Energies <==================== 
	-----------------------------------------------------------
	 Reference Energy          =     -76.0602692496615163 [Eh]
	 Singles Energy            =      -0.0000000000000000 [Eh]
	 Same-Spin Energy          =      -0.0684134878656972 [Eh]
	 Opposite-Spin Energy      =      -0.2153847673787859 [Eh]
	 Correlation Energy        =      -0.2837982552444832 [Eh]
	 Total Energy              =     -76.3440675049059934 [Eh]
	-----------------------------------------------------------
	 ================> DF-SCS-MP2 Energies <================== 
	-----------------------------------------------------------
	 SCS Same-Spin Scale       =       0.3333333333333333 [-]
	 SCS Opposite-Spin Scale   =       1.2000000000000000 [-]
	 SCS Same-Spin Energy      =      -0.0228044959552324 [Eh]
	 SCS Opposite-Spin Energy  =      -0.2584617208545431 [Eh]
	 SCS Correlation Energy    =      -0.2812662168097755 [Eh]
	 SCS Total Energy          =     -76.3415354664712851 [Eh]
	-----------------------------------------------------------


*** tstop() called on node52.bme.utexas.edu at Sat Apr 11 17:13:06 2020
Module time:
	user time   =       2.91 seconds =       0.05 minutes
	system time =       0.10 seconds =       0.00 minutes
	total time  =          0 seconds =       0.00 minutes
Total time:
	user time   =       8.66 seconds =       0.14 minutes
	system time =       0.33 seconds =       0.01 minutes
	total time  =          2 seconds =       0.03 minutes

  //>>>>>>>>>>>>>>>>>>>>>>>>>>>>>>>>>>>>//
  // CBS Computation: MP2 / AUG-CC-PVQZ //
  //<<<<<<<<<<<<<<<<<<<<<<<<<<<<<<<<<<<<//


Scratch directory: /scratch//

*** tstart() called on node52.bme.utexas.edu
*** at Sat Apr 11 17:13:06 2020

   => Loading Basis Set <=

    Name: AUG-CC-PVQZ
    Role: ORBITAL
    Keyword: BASIS
    atoms 1   entry O          line   423 file /home/liuchw/anaconda3/envs/psi4env/share/psi4/basis/aug-cc-pvqz.gbs 
    atoms 2-3 entry H          line    40 file /home/liuchw/anaconda3/envs/psi4env/share/psi4/basis/aug-cc-pvqz.gbs 


         ---------------------------------------------------------
                                   SCF
               by Justin Turney, Rob Parrish, Andy Simmonett
                          and Daniel G. A. Smith
                              RHF Reference
                        6 Threads,  38146 MiB Core
         ---------------------------------------------------------

  ==> Geometry <==

    Molecular point group: c1
    Full point group: C1

    Geometry (in Angstrom), charge = 0, multiplicity = 1:

       Center              X                  Y                   Z               Mass       
    ------------   -----------------  -----------------  -----------------  -----------------
         O            0.222559360021    -2.672191962087    -2.026387646991    15.994914619570
         H            0.178823360021    -3.587147962087    -1.744341646991     1.007825032230
         H           -0.457960639979    -2.236994962087    -1.501262646991     1.007825032230

  Running in c1 symmetry.

  Rotational constants: A =     17.43764  B =      0.08278  C =      0.08266 [cm^-1]
  Rotational constants: A = 522767.22061  B =   2481.75359  C =   2477.93924 [MHz]
  Nuclear repulsion =    9.160830883306415

  Charge       = 0
  Multiplicity = 1
  Electrons    = 10
  Nalpha       = 5
  Nbeta        = 5

  ==> Algorithm <==

  SCF Algorithm Type is DF.
  DIIS enabled.
  MOM disabled.
  Fractional occupation disabled.
  Guess Type is SAD.
  Energy threshold   = 1.00e-07
  Density threshold  = 1.00e-08
  Integral threshold = 0.00e+00

  ==> Primary Basis <==

  Basis Set: AUG-CC-PVQZ
    Blend: AUG-CC-PVQZ
    Number of shells: 48
    Number of basis function: 172
    Number of Cartesian functions: 215
    Spherical Harmonics?: true
    Max angular momentum: 4

   => Loading Basis Set <=

    Name: (AUG-CC-PVQZ AUX)
    Role: JKFIT
    Keyword: DF_BASIS_SCF
    atoms 1   entry O          line   318 file /home/liuchw/anaconda3/envs/psi4env/share/psi4/basis/aug-cc-pvqz-jkfit.gbs 
    atoms 2-3 entry H          line    70 file /home/liuchw/anaconda3/envs/psi4env/share/psi4/basis/aug-cc-pvqz-jkfit.gbs 

  ==> Pre-Iterations <==

   -------------------------------------------------------
    Irrep   Nso     Nmo     Nalpha   Nbeta   Ndocc  Nsocc
   -------------------------------------------------------
     A        172     172       0       0       0       0
   -------------------------------------------------------
    Total     172     172       5       5       5       0
   -------------------------------------------------------

  ==> Integral Setup <==

  DFHelper Memory: AOs need 0.074 GiB; user supplied 27.940 GiB. Using in-core AOs.

  ==> MemDFJK: Density-Fitted J/K Matrices <==

    J tasked:                   Yes
    K tasked:                   Yes
    wK tasked:                   No
    OpenMP threads:               6
    Memory [MiB]:             28610
    Algorithm:                 Core
    Schwarz Cutoff:           1E-12
    Mask sparsity (%):       0.0000
    Fitting Condition:        1E-10

   => Auxiliary Basis Set <=

  Basis Set: (AUG-CC-PVQZ AUX)
    Blend: AUG-CC-PVQZ-JKFIT
    Number of shells: 70
    Number of basis function: 294
    Number of Cartesian functions: 400
    Spherical Harmonics?: true
    Max angular momentum: 5

  Minimum eigenvalue in the overlap matrix is 8.7563999373E-05.
  Using Symmetric Orthogonalization.

  SCF Guess: Superposition of Atomic Densities via on-the-fly atomic UHF.

  ==> Iterations <==

                           Total Energy        Delta E     RMS |[F,P]|

   @DF-RHF iter SAD:   -75.47964826197122   -7.54796e+01   0.00000e+00 
   @DF-RHF iter   1:   -75.98087085508635   -5.01223e-01   2.72888e-03 DIIS
   @DF-RHF iter   2:   -76.03343375109289   -5.25629e-02   1.86839e-03 DIIS
   @DF-RHF iter   3:   -76.06522427836320   -3.17905e-02   1.27335e-04 DIIS
   @DF-RHF iter   4:   -76.06561678781301   -3.92509e-04   3.12606e-05 DIIS
   @DF-RHF iter   5:   -76.06564227784550   -2.54900e-05   7.08668e-06 DIIS
   @DF-RHF iter   6:   -76.06564437631079   -2.09847e-06   1.59333e-06 DIIS
   @DF-RHF iter   7:   -76.06564449386178   -1.17551e-07   2.95576e-07 DIIS
   @DF-RHF iter   8:   -76.06564449741143   -3.54964e-09   4.76403e-08 DIIS
   @DF-RHF iter   9:   -76.06564449748609   -7.46638e-11   1.14189e-08 DIIS
   @DF-RHF iter  10:   -76.06564449748991   -3.82272e-12   1.72032e-09 DIIS
  Energy and wave function converged.


  ==> Post-Iterations <==

    Orbital Energies [Eh]
    ---------------------

    Doubly Occupied:                                                      

       1A    -20.565710     2A     -1.351480     3A     -0.714402  
       4A     -0.585673     5A     -0.510396  

    Virtual:                                                              

       6A      0.026867     7A      0.043107     8A      0.114078  
       9A      0.133539    10A      0.151131    11A      0.158715  
      12A      0.184902    13A      0.197066    14A      0.209377  
      15A      0.237251    16A      0.256990    17A      0.291643  
      18A      0.357518    19A      0.389879    20A      0.469697  
      21A      0.508826    22A      0.542024    23A      0.547667  
      24A      0.556333    25A      0.614377    26A      0.632461  
      27A      0.647205    28A      0.663413    29A      0.665815  
      30A      0.684634    31A      0.706533    32A      0.719101  
      33A      0.769681    34A      0.788778    35A      0.802470  
      36A      0.802471    37A      0.843180    38A      0.854131  
      39A      0.968205    40A      1.123129    41A      1.136578  
      42A      1.208663    43A      1.332173    44A      1.440028  
      45A      1.482120    46A      1.509438    47A      1.512904  
      48A      1.526592    49A      1.554001    50A      1.590330  
      51A      1.620866    52A      1.637558    53A      1.662406  
      54A      1.664387    55A      1.688804    56A      1.702787  
      57A      1.736435    58A      1.752159    59A      1.766634  
      60A      1.775744    61A      1.843178    62A      1.864836  
      63A      1.894268    64A      1.915799    65A      1.982502  
      66A      2.008384    67A      2.034027    68A      2.039560  
      69A      2.100229    70A      2.206123    71A      2.216752  
      72A      2.313423    73A      2.436718    74A      2.625855  
      75A      2.631240    76A      2.886227    77A      2.957620  
      78A      2.994497    79A      3.040481    80A      3.055364  
      81A      3.085226    82A      3.267521    83A      3.302235  
      84A      3.308985    85A      3.489675    86A      3.588398  
      87A      3.642723    88A      3.687736    89A      3.719331  
      90A      3.777617    91A      3.923563    92A      4.078514  
      93A      4.166502    94A      4.167867    95A      4.178144  
      96A      4.179107    97A      4.233429    98A      4.329248  
      99A      4.432844   100A      4.579386   101A      4.725782  
     102A      4.745139   103A      4.779553   104A      4.780323  
     105A      4.809112   106A      4.877518   107A      4.995238  
     108A      5.236452   109A      5.313597   110A      5.520184  
     111A      5.531822   112A      5.856157   113A      5.886518  
     114A      6.072266   115A      6.231732   116A      6.823833  
     117A      6.883940   118A      6.886290   119A      6.907931  
     120A      7.727124   121A      7.774680   122A      7.785233  
     123A      7.822892   124A      7.834124   125A      7.898311  
     126A      7.924385   127A      8.020874   128A      8.171211  
     129A      8.199137   130A      8.529975   131A      8.626192  
     132A      8.650975   133A      8.695963   134A      8.783603  
     135A      8.845035   136A      8.986984   137A      9.040126  
     138A      9.217689   139A      9.667300   140A      9.901881  
     141A      9.908330   142A      9.936568   143A      9.989233  
     144A     10.324050   145A     10.448417   146A     10.684440  
     147A     11.017041   148A     11.078971   149A     11.089386  
     150A     11.269584   151A     11.309222   152A     11.412354  
     153A     11.713435   154A     11.793848   155A     11.831645  
     156A     11.987986   157A     12.201305   158A     12.203203  
     159A     12.618586   160A     12.735013   161A     12.824757  
     162A     12.903653   163A     13.176883   164A     13.987330  
     165A     14.011291   166A     14.497670   167A     14.799315  
     168A     14.894823   169A     15.245268   170A     16.832539  
     171A     17.283702   172A     45.489208  

    Final Occupation by Irrep:
              A 
    DOCC [     5 ]

  @DF-RHF Final Energy:   -76.06564449748991

   => Energetics <=

    Nuclear Repulsion Energy =              9.1608308833064154
    One-Electron Energy =                -122.9976289473769100
    Two-Electron Energy =                  37.7711535665805798
    Total Energy =                        -76.0656444974899131

Computation Completed


Properties will be evaluated at   0.000000,   0.000000,   0.000000 [a0]

Properties computed using the SCF density matrix

  Nuclear Dipole Moment: [e a0]
     X:     2.8371      Y:   -51.4037      Z:   -36.7678

  Electronic Dipole Moment: [e a0]
     X:    -3.3162      Y:    51.0854      Z:    37.3020

  Dipole Moment: [e a0]
     X:    -0.4790      Y:    -0.3184      Z:     0.5342     Total:     0.7850

  Dipole Moment: [D]
     X:    -1.2176      Y:    -0.8092      Z:     1.3577     Total:     1.9952


*** tstop() called on node52.bme.utexas.edu at Sat Apr 11 17:13:09 2020
Module time:
	user time   =       9.38 seconds =       0.16 minutes
	system time =       0.34 seconds =       0.01 minutes
	total time  =          3 seconds =       0.05 minutes
Total time:
	user time   =      18.07 seconds =       0.30 minutes
	system time =       0.67 seconds =       0.01 minutes
	total time  =          5 seconds =       0.08 minutes

*** tstart() called on node52.bme.utexas.edu
*** at Sat Apr 11 17:13:09 2020


  //>>>>>>>>>>>>>>>>>>>>>>>>>>>>>>>>>>>//
  //               DFMP2               //
  //<<<<<<<<<<<<<<<<<<<<<<<<<<<<<<<<<<<//

   => Loading Basis Set <=

    Name: (AUG-CC-PVQZ AUX)
    Role: RIFIT
    Keyword: DF_BASIS_MP2
    atoms 1   entry O          line   332 file /home/liuchw/anaconda3/envs/psi4env/share/psi4/basis/aug-cc-pvqz-ri.gbs 
    atoms 2-3 entry H          line    30 file /home/liuchw/anaconda3/envs/psi4env/share/psi4/basis/aug-cc-pvqz-ri.gbs 

	 --------------------------------------------------------
	                          DF-MP2                         
	      2nd-Order Density-Fitted Moller-Plesset Theory     
	              RMP2 Wavefunction,   6 Threads             
	                                                         
	        Rob Parrish, Justin Turney, Andy Simmonett,      
	           Ed Hohenstein, and C. David Sherrill          
	 --------------------------------------------------------

   => Auxiliary Basis Set <=

  Basis Set: (AUG-CC-PVQZ AUX)
    Blend: AUG-CC-PVQZ-RI
    Number of shells: 76
    Number of basis function: 328
    Number of Cartesian functions: 447
    Spherical Harmonics?: true
    Max angular momentum: 5

	 --------------------------------------------------------
	                 NBF =   172, NAUX =   328
	 --------------------------------------------------------
	   CLASS    FOCC     OCC    AOCC    AVIR     VIR    FVIR
	   PAIRS       0       5       5     167     167       0
	 --------------------------------------------------------

	-----------------------------------------------------------
	 ==================> DF-MP2 Energies <==================== 
	-----------------------------------------------------------
	 Reference Energy          =     -76.0656444974899131 [Eh]
	 Singles Energy            =      -0.0000000000000000 [Eh]
	 Same-Spin Energy          =      -0.0727389702890289 [Eh]
	 Opposite-Spin Energy      =      -0.2443255111797565 [Eh]
	 Correlation Energy        =      -0.3170644814687854 [Eh]
	 Total Energy              =     -76.3827089789587035 [Eh]
	-----------------------------------------------------------
	 ================> DF-SCS-MP2 Energies <================== 
	-----------------------------------------------------------
	 SCS Same-Spin Scale       =       0.3333333333333333 [-]
	 SCS Opposite-Spin Scale   =       1.2000000000000000 [-]
	 SCS Same-Spin Energy      =      -0.0242463234296763 [Eh]
	 SCS Opposite-Spin Energy  =      -0.2931906134157078 [Eh]
	 SCS Correlation Energy    =      -0.3174369368453841 [Eh]
	 SCS Total Energy          =     -76.3830814343352955 [Eh]
	-----------------------------------------------------------


*** tstop() called on node52.bme.utexas.edu at Sat Apr 11 17:13:10 2020
Module time:
	user time   =       3.28 seconds =       0.05 minutes
	system time =       0.11 seconds =       0.00 minutes
	total time  =          1 seconds =       0.02 minutes
Total time:
	user time   =      21.35 seconds =       0.36 minutes
	system time =       0.78 seconds =       0.01 minutes
	total time  =          6 seconds =       0.10 minutes

  //>>>>>>>>>>>>>>>>>>>>>>>>>>>>>>>>>>>//
  //  CBS Results: mp2/aug-cc-pv[tq]z  //
  //<<<<<<<<<<<<<<<<<<<<<<<<<<<<<<<<<<<//


   ==> HF <==

   HI-zeta (4) Energy:               -76.065644497490


   ==> Helgaker 2-point correlated extrapolation for method: MP2 <==

   LO-zeta (3) Energy:               -76.344067504906
   HI-zeta (4) Energy:               -76.382708978959
   Alpha (exponent) Value:             3.000000000000
   Extrapolated Energy:              -76.410906811376

   @Extrapolated MP2/(T,Q):          -76.410906811376



   ==> Helgaker 2-point correlated extrapolation for method: HF <==

   LO-zeta (3) Energy:               -76.060269249662
   HI-zeta (4) Energy:               -76.065644497490
   Alpha (exponent) Value:             3.000000000000
   Extrapolated Energy:              -76.069566975635

   @Extrapolated HF/(T,Q):           -76.069566975635


   ==> Components <==

  ---------------------------------------------------------------------------------------------------------
                          Method / Basis                      Rqd      Energy [Eh]   Variable
  ---------------------------------------------------------------------------------------------------------
                              hf / aug-cc-pvtz                  *     -76.06026925   HF TOTAL ENERGY
                             mp2 / aug-cc-pvtz                  *     -76.34406750   MP2 TOTAL ENERGY
                              hf / aug-cc-pvqz                  *     -76.06564450   HF TOTAL ENERGY
                             mp2 / aug-cc-pvqz                  *     -76.38270898   MP2 TOTAL ENERGY
  ---------------------------------------------------------------------------------------------------------

   ==> Stages <==

  ---------------------------------------------------------------------------------------------------------
      Stage               Method / Basis                       Wt      Energy [Eh]   Scheme
  ---------------------------------------------------------------------------------------------------------
        scf                   hf / aug-cc-pvqz                  1     -76.06564450   xtpl_highest_1
       corl                  mp2 / aug-cc-pv[tq]z               1     -76.41090681   corl_xtpl_helgaker_2
       corl                   hf / aug-cc-pv[tq]z              -1     -76.06956698   corl_xtpl_helgaker_2
  ---------------------------------------------------------------------------------------------------------

   ==> CBS <==

  ---------------------------------------------------------------------------------------------------------
      Stage               Method / Basis                               Energy [Eh]   Scheme
  ---------------------------------------------------------------------------------------------------------
        scf                   hf / aug-cc-pvqz                        -76.06564450   xtpl_highest_1
       corl                  mp2 / aug-cc-pv[tq]z                      -0.34133984   corl_xtpl_helgaker_2
      total                  CBS                                      -76.40698433   
  ---------------------------------------------------------------------------------------------------------
   => Loading Basis Set <=

    Name: DEF2-SVP
    Role: ORBITAL
    Keyword: BASIS
    atoms 1   entry O          line   130 file /home/liuchw/anaconda3/envs/psi4env/share/psi4/basis/def2-svp.gbs 
    atoms 2-3 entry H          line    15 file /home/liuchw/anaconda3/envs/psi4env/share/psi4/basis/def2-svp.gbs 


       N-Body: Complex Energy (fragments = (2,), basis = (2,):   -76.40698433323050)

       N-Body: Computing complex (2/4) with fragments (2,) in the basis of fragments (1, 2).


Scratch directory: /scratch//

  //>>>>>>>>>>>>>>>>>>>>>>>>>>>>>>>>>>>//
  //   CBS Setup: mp2/aug-cc-pv[tq]z   //
  //<<<<<<<<<<<<<<<<<<<<<<<<<<<<<<<<<<<//

    Naive listing of computations required.
             hf / aug-cc-pvqz              for  HF TOTAL ENERGY
            mp2 / aug-cc-pvtz              for  MP2 TOTAL ENERGY
            mp2 / aug-cc-pvqz              for  MP2 TOTAL ENERGY
             hf / aug-cc-pvtz              for  HF TOTAL ENERGY
             hf / aug-cc-pvqz              for  HF TOTAL ENERGY

    Enlightened listing of computations required.
            mp2 / aug-cc-pvtz              for  MP2 TOTAL ENERGY
            mp2 / aug-cc-pvqz              for  MP2 TOTAL ENERGY

    Full listing of computations to be obtained (required and bonus).
             hf / aug-cc-pvtz              for  HF TOTAL ENERGY
            mp2 / aug-cc-pvtz              for  MP2 TOTAL ENERGY
             hf / aug-cc-pvqz              for  HF TOTAL ENERGY
            mp2 / aug-cc-pvqz              for  MP2 TOTAL ENERGY

  //>>>>>>>>>>>>>>>>>>>>>>>>>>>>>>>>>>>>//
  // CBS Computation: MP2 / AUG-CC-PVTZ //
  //<<<<<<<<<<<<<<<<<<<<<<<<<<<<<<<<<<<<//


Scratch directory: /scratch//

*** tstart() called on node52.bme.utexas.edu
*** at Sat Apr 11 17:13:11 2020

   => Loading Basis Set <=

    Name: AUG-CC-PVTZ
    Role: ORBITAL
    Keyword: BASIS
    atoms 1-6         entry C          line   239 file /home/liuchw/anaconda3/envs/psi4env/share/psi4/basis/aug-cc-pvtz.gbs 
    atoms 7, 14       entry O          line   331 file /home/liuchw/anaconda3/envs/psi4env/share/psi4/basis/aug-cc-pvtz.gbs 
    atoms 8-13, 15-16 entry H          line    40 file /home/liuchw/anaconda3/envs/psi4env/share/psi4/basis/aug-cc-pvtz.gbs 


         ---------------------------------------------------------
                                   SCF
               by Justin Turney, Rob Parrish, Andy Simmonett
                          and Daniel G. A. Smith
                              RHF Reference
                        6 Threads,  38146 MiB Core
         ---------------------------------------------------------

  ==> Geometry <==

    Molecular point group: c1
    Full point group: C1

    Geometry (in Angstrom), charge = 0, multiplicity = 1:

       Center              X                  Y                   Z               Mass       
    ------------   -----------------  -----------------  -----------------  -----------------
      Gh(C)          -1.141023639979     0.821005037913     0.815741353009    12.000000000000
      Gh(C)          -0.368785639979     1.851770037913     1.347097353009    12.000000000000
      Gh(C)           0.999485360021     1.903991037913     1.096730353009    12.000000000000
      Gh(C)           1.591108360021     0.917661037913     0.308677353009    12.000000000000
      Gh(C)           0.830027360021    -0.115682962087    -0.228493646991    12.000000000000
      Gh(C)          -0.537751639979    -0.157889962087     0.030812353009    12.000000000000
      Gh(O)          -1.253680639979    -1.198132962087    -0.514816646991    15.994914619570
      Gh(H)          -2.205862639979     0.778887037913     1.011677353009     1.007825032230
      Gh(H)          -0.841564639979     2.610177037913     1.955657353009     1.007825032230
      Gh(H)           1.597527360021     2.703751037913     1.509277353009     1.007825032230
      Gh(H)           2.652651360021     0.950538037913     0.105922353009     1.007825032230
      Gh(H)           1.274574360021    -0.883922962087    -0.845814646991     1.007825032230
      Gh(H)          -2.182337639979    -1.074238962087    -0.293100646991     1.007825032230
         O            0.222559360021    -2.672191962087    -2.026387646991    15.994914619570
         H            0.178823360021    -3.587147962087    -1.744341646991     1.007825032230
         H           -0.457960639979    -2.236994962087    -1.501262646991     1.007825032230

  Running in c1 symmetry.

  Rotational constants: A =      0.14075  B =      0.04157  C =      0.03217 [cm^-1]
  Rotational constants: A =   4219.64290  B =   1246.26561  C =    964.30816 [MHz]
  Nuclear repulsion =    9.160830883306415

  Charge       = 0
  Multiplicity = 1
  Electrons    = 10
  Nalpha       = 5
  Nbeta        = 5

  ==> Algorithm <==

  SCF Algorithm Type is DF.
  DIIS enabled.
  MOM disabled.
  Fractional occupation disabled.
  Guess Type is SAD.
  Energy threshold   = 1.00e-07
  Density threshold  = 1.00e-08
  Integral threshold = 0.00e+00

  ==> Primary Basis <==

  Basis Set: AUG-CC-PVTZ
    Blend: AUG-CC-PVTZ
    Number of shells: 184
    Number of basis function: 552
    Number of Cartesian functions: 640
    Spherical Harmonics?: true
    Max angular momentum: 3

   => Loading Basis Set <=

    Name: (AUG-CC-PVTZ AUX)
    Role: JKFIT
    Keyword: DF_BASIS_SCF
    atoms 1-6         entry C          line   162 file /home/liuchw/anaconda3/envs/psi4env/share/psi4/basis/aug-cc-pvtz-jkfit.gbs 
    atoms 7, 14       entry O          line   286 file /home/liuchw/anaconda3/envs/psi4env/share/psi4/basis/aug-cc-pvtz-jkfit.gbs 
    atoms 8-13, 15-16 entry H          line    70 file /home/liuchw/anaconda3/envs/psi4env/share/psi4/basis/aug-cc-pvtz-jkfit.gbs 

  ==> Pre-Iterations <==

   -------------------------------------------------------
    Irrep   Nso     Nmo     Nalpha   Nbeta   Ndocc  Nsocc
   -------------------------------------------------------
     A        552     552       0       0       0       0
   -------------------------------------------------------
    Total     552     552       5       5       5       0
   -------------------------------------------------------

  ==> Integral Setup <==

  DFHelper Memory: AOs need 2.664 GiB; user supplied 27.940 GiB. Using in-core AOs.

  ==> MemDFJK: Density-Fitted J/K Matrices <==

    J tasked:                   Yes
    K tasked:                   Yes
    wK tasked:                   No
    OpenMP threads:               6
    Memory [MiB]:             28610
    Algorithm:                 Core
    Schwarz Cutoff:           1E-12
    Mask sparsity (%):       5.3540
    Fitting Condition:        1E-10

   => Auxiliary Basis Set <=

  Basis Set: (AUG-CC-PVTZ AUX)
    Blend: AUG-CC-PVTZ-JKFIT
    Number of shells: 352
    Number of basis function: 1200
    Number of Cartesian functions: 1488
    Spherical Harmonics?: true
    Max angular momentum: 4

  Minimum eigenvalue in the overlap matrix is 6.1665312165E-07.
  Using Symmetric Orthogonalization.

  SCF Guess: Superposition of Atomic Densities via on-the-fly atomic UHF.

  ==> Iterations <==

                           Total Energy        Delta E     RMS |[F,P]|

   @DF-RHF iter SAD:   -75.47450897564131   -7.54745e+01   0.00000e+00 
   @DF-RHF iter   1:   -75.97593188437870   -5.01423e-01   8.48615e-04 DIIS
   @DF-RHF iter   2:   -76.02841464775466   -5.24828e-02   5.79732e-04 DIIS
   @DF-RHF iter   3:   -76.06000247556381   -3.15878e-02   3.93928e-05 DIIS
   @DF-RHF iter   4:   -76.06039306788156   -3.90592e-04   9.46763e-06 DIIS
   @DF-RHF iter   5:   -76.06041773561238   -2.46677e-05   2.15476e-06 DIIS
   @DF-RHF iter   6:   -76.06041975956944   -2.02396e-06   4.72028e-07 DIIS
   @DF-RHF iter   7:   -76.06041986643726   -1.06868e-07   8.50558e-08 DIIS
   @DF-RHF iter   8:   -76.06041986948820   -3.05094e-09   1.42604e-08 DIIS
   @DF-RHF iter   9:   -76.06041986955553   -6.73310e-11   3.49464e-09 DIIS
  Energy and wave function converged.


  ==> Post-Iterations <==

    Orbital Energies [Eh]
    ---------------------

    Doubly Occupied:                                                      

       1A    -20.567977     2A     -1.352077     3A     -0.714317  
       4A     -0.585512     5A     -0.510222  

    Virtual:                                                              

       6A      0.015966     7A      0.028237     8A      0.032531  
       9A      0.044555    10A      0.048596    11A      0.058756  
      12A      0.062435    13A      0.071700    14A      0.080529  
      15A      0.084335    16A      0.088886    17A      0.094111  
      18A      0.097970    19A      0.103935    20A      0.112223  
      21A      0.123401    22A      0.124737    23A      0.131331  
      24A      0.132496    25A      0.134634    26A      0.138838  
      27A      0.145549    28A      0.152740    29A      0.156064  
      30A      0.164401    31A      0.166742    32A      0.183138  
      33A      0.191076    34A      0.193151    35A      0.201374  
      36A      0.202052    37A      0.208419    38A      0.215022  
      39A      0.227255    40A      0.234691    41A      0.235713  
      42A      0.240916    43A      0.246771    44A      0.260293  
      45A      0.273145    46A      0.276643    47A      0.282719  
      48A      0.289930    49A      0.300616    50A      0.305171  
      51A      0.313506    52A      0.313802    53A      0.321629  
      54A      0.329316    55A      0.339400    56A      0.343437  
      57A      0.345708    58A      0.351335    59A      0.355277  
      60A      0.358277    61A      0.363423    62A      0.367113  
      63A      0.372914    64A      0.384829    65A      0.389720  
      66A      0.393049    67A      0.398811    68A      0.402877  
      69A      0.408685    70A      0.411549    71A      0.423489  
      72A      0.427199    73A      0.431695    74A      0.439992  
      75A      0.441808    76A      0.445392    77A      0.459744  
      78A      0.467192    79A      0.472884    80A      0.478730  
      81A      0.487692    82A      0.492655    83A      0.500515  
      84A      0.507412    85A      0.511964    86A      0.518927  
      87A      0.529316    88A      0.539139    89A      0.554850  
      90A      0.564197    91A      0.570451    92A      0.574974  
      93A      0.592742    94A      0.600315    95A      0.604549  
      96A      0.613278    97A      0.624116    98A      0.627027  
      99A      0.633843   100A      0.646347   101A      0.653967  
     102A      0.660421   103A      0.669111   104A      0.673406  
     105A      0.677030   106A      0.684352   107A      0.688427  
     108A      0.690078   109A      0.712359   110A      0.713410  
     111A      0.717709   112A      0.733152   113A      0.738152  
     114A      0.740722   115A      0.748618   116A      0.753885  
     117A      0.757222   118A      0.762079   119A      0.767422  
     120A      0.769486   121A      0.776260   122A      0.784322  
     123A      0.797088   124A      0.817157   125A      0.823275  
     126A      0.828983   127A      0.831897   128A      0.859691  
     129A      0.871410   130A      0.886069   131A      0.894951  
     132A      0.902993   133A      0.906454   134A      0.910727  
     135A      0.920397   136A      0.926353   137A      0.939142  
     138A      0.949418   139A      0.961717   140A      0.969608  
     141A      0.985250   142A      0.999754   143A      1.001817  
     144A      1.007047   145A      1.022068   146A      1.024741  
     147A      1.028420   148A      1.035985   149A      1.039661  
     150A      1.050920   151A      1.061835   152A      1.063403  
     153A      1.078237   154A      1.079766   155A      1.083644  
     156A      1.088429   157A      1.097427   158A      1.100802  
     159A      1.106193   160A      1.108921   161A      1.112661  
     162A      1.133243   163A      1.145950   164A      1.151100  
     165A      1.156261   166A      1.169654   167A      1.182651  
     168A      1.191015   169A      1.195378   170A      1.203040  
     171A      1.213881   172A      1.221979   173A      1.232844  
     174A      1.236637   175A      1.240718   176A      1.246792  
     177A      1.253472   178A      1.264249   179A      1.274178  
     180A      1.280500   181A      1.281689   182A      1.288692  
     183A      1.300274   184A      1.303374   185A      1.309633  
     186A      1.315377   187A      1.319787   188A      1.321189  
     189A      1.341047   190A      1.352061   191A      1.358975  
     192A      1.363910   193A      1.371980   194A      1.378241  
     195A      1.392606   196A      1.399411   197A      1.402215  
     198A      1.425014   199A      1.433199   200A      1.444981  
     201A      1.451341   202A      1.470692   203A      1.478594  
     204A      1.482983   205A      1.493905   206A      1.504097  
     207A      1.518105   208A      1.531989   209A      1.541927  
     210A      1.547467   211A      1.556663   212A      1.565190  
     213A      1.570970   214A      1.575397   215A      1.583390  
     216A      1.596416   217A      1.605775   218A      1.623744  
     219A      1.631840   220A      1.645211   221A      1.654723  
     222A      1.662405   223A      1.667587   224A      1.678789  
     225A      1.692088   226A      1.698665   227A      1.714958  
     228A      1.718010   229A      1.735570   230A      1.746609  
     231A      1.775780   232A      1.793450   233A      1.808100  
     234A      1.814287   235A      1.845721   236A      1.857710  
     237A      1.870280   238A      1.887019   239A      1.893561  
     240A      1.900889   241A      1.910175   242A      1.937377  
     243A      1.945499   244A      1.955484   245A      1.973434  
     246A      1.982125   247A      1.993984   248A      2.020438  
     249A      2.030038   250A      2.047686   251A      2.077151  
     252A      2.098115   253A      2.109224   254A      2.121898  
     255A      2.124054   256A      2.154283   257A      2.165357  
     258A      2.171444   259A      2.176710   260A      2.200044  
     261A      2.209784   262A      2.218924   263A      2.226193  
     264A      2.242634   265A      2.249957   266A      2.264485  
     267A      2.265314   268A      2.282463   269A      2.297562  
     270A      2.313559   271A      2.337542   272A      2.340619  
     273A      2.350250   274A      2.351337   275A      2.355120  
     276A      2.363269   277A      2.379960   278A      2.396648  
     279A      2.413095   280A      2.416452   281A      2.436802  
     282A      2.443701   283A      2.467882   284A      2.476537  
     285A      2.490287   286A      2.503058   287A      2.516677  
     288A      2.520955   289A      2.537772   290A      2.544461  
     291A      2.562159   292A      2.565806   293A      2.581929  
     294A      2.601524   295A      2.607352   296A      2.630371  
     297A      2.640670   298A      2.654080   299A      2.679210  
     300A      2.697777   301A      2.705170   302A      2.714789  
     303A      2.723061   304A      2.735732   305A      2.744851  
     306A      2.776182   307A      2.786950   308A      2.787359  
     309A      2.818613   310A      2.850881   311A      2.884720  
     312A      2.903534   313A      2.922167   314A      2.933261  
     315A      2.938616   316A      2.959272   317A      2.979436  
     318A      3.017887   319A      3.040309   320A      3.074494  
     321A      3.097738   322A      3.116840   323A      3.128464  
     324A      3.179084   325A      3.183584   326A      3.209598  
     327A      3.273308   328A      3.294818   329A      3.311352  
     330A      3.348880   331A      3.379310   332A      3.455161  
     333A      3.486162   334A      3.497099   335A      3.549747  
     336A      3.558793   337A      3.639907   338A      3.769768  
     339A      3.788002   340A      3.837761   341A      3.866515  
     342A      3.904557   343A      3.910652   344A      3.922086  
     345A      3.980060   346A      3.988051   347A      4.016374  
     348A      4.029430   349A      4.051788   350A      4.058170  
     351A      4.081358   352A      4.085561   353A      4.088069  
     354A      4.106830   355A      4.116704   356A      4.127130  
     357A      4.141713   358A      4.147386   359A      4.172178  
     360A      4.180091   361A      4.218014   362A      4.220326  
     363A      4.250707   364A      4.257642   365A      4.264768  
     366A      4.280526   367A      4.283862   368A      4.297330  
     369A      4.309356   370A      4.320399   371A      4.327805  
     372A      4.354068   373A      4.362527   374A      4.382097  
     375A      4.382323   376A      4.405719   377A      4.430926  
     378A      4.446665   379A      4.463334   380A      4.487359  
     381A      4.505618   382A      4.512134   383A      4.527015  
     384A      4.528100   385A      4.544701   386A      4.550355  
     387A      4.563649   388A      4.587025   389A      4.593288  
     390A      4.614638   391A      4.622810   392A      4.646400  
     393A      4.671282   394A      4.673781   395A      4.701456  
     396A      4.716041   397A      4.727209   398A      4.741246  
     399A      4.782231   400A      4.816978   401A      4.825304  
     402A      4.837454   403A      4.866356   404A      4.876232  
     405A      4.945062   406A      4.965845   407A      4.979949  
     408A      4.984022   409A      4.999452   410A      5.018370  
     411A      5.044998   412A      5.058125   413A      5.075715  
     414A      5.078180   415A      5.094032   416A      5.101240  
     417A      5.127914   418A      5.153967   419A      5.156138  
     420A      5.166552   421A      5.190726   422A      5.195393  
     423A      5.209783   424A      5.226646   425A      5.257178  
     426A      5.269841   427A      5.288619   428A      5.301517  
     429A      5.320862   430A      5.367497   431A      5.395989  
     432A      5.405997   433A      5.425087   434A      5.432069  
     435A      5.447205   436A      5.489351   437A      5.495259  
     438A      5.501879   439A      5.513630   440A      5.528906  
     441A      5.544112   442A      5.593788   443A      5.602274  
     444A      5.647643   445A      5.654367   446A      5.678668  
     447A      5.696799   448A      5.728086   449A      5.736370  
     450A      5.760128   451A      5.769803   452A      5.786997  
     453A      5.801046   454A      5.818720   455A      5.824916  
     456A      5.840527   457A      5.854743   458A      5.892254  
     459A      5.936923   460A      5.957445   461A      5.967648  
     462A      6.016613   463A      6.065358   464A      6.072704  
     465A      6.124025   466A      6.140402   467A      6.191020  
     468A      6.200494   469A      6.226305   470A      6.268375  
     471A      6.327439   472A      6.342150   473A      6.373473  
     474A      6.422739   475A      6.475392   476A      6.491285  
     477A      6.589235   478A      6.602777   479A      6.653346  
     480A      6.708386   481A      6.807105   482A      6.849649  
     483A      6.918349   484A      7.003763   485A      7.041261  
     486A      7.071677   487A      7.078317   488A      7.115769  
     489A      7.124320   490A      7.150567   491A      7.168600  
     492A      7.244705   493A      7.271328   494A      7.322869  
     495A      7.383873   496A      7.388736   497A      7.406792  
     498A      7.474685   499A      7.491258   500A      7.537610  
     501A      7.567338   502A      7.585841   503A      7.612006  
     504A      7.661880   505A      7.734941   506A      7.888528  
     507A      7.914950   508A      7.962334   509A      7.999230  
     510A      8.056663   511A      8.068821   512A      8.108488  
     513A      8.157734   514A      8.178396   515A      8.210241  
     516A      8.224218   517A      8.301914   518A      8.352891  
     519A      8.427386   520A      8.532731   521A      8.740603  
     522A      8.907118   523A      8.992446   524A      9.048443  
     525A      9.277196   526A      9.416150   527A      9.439888  
     528A      9.507044   529A      9.984133   530A     10.023017  
     531A     10.070886   532A     10.107857   533A     10.244493  
     534A     10.708903   535A     11.006208   536A     11.086274  
     537A     11.125837   538A     11.338788   539A     11.413511  
     540A     11.445456   541A     11.796326   542A     13.094673  
     543A     13.495888   544A     14.310089   545A     17.446747  
     546A     49.938181   547A     50.085462   548A     51.746132  
     549A     55.255957   550A     56.394181   551A     56.834945  
     552A     68.926769  

    Final Occupation by Irrep:
              A 
    DOCC [     5 ]

  @DF-RHF Final Energy:   -76.06041986955553

   => Energetics <=

    Nuclear Repulsion Energy =              9.1608308833064154
    One-Electron Energy =                -122.9822916521226546
    Two-Electron Energy =                  37.7610408992607205
    Total Energy =                        -76.0604198695555169

Computation Completed


Properties will be evaluated at   0.000000,   0.000000,   0.000000 [a0]

Properties computed using the SCF density matrix

  Nuclear Dipole Moment: [e a0]
     X:     2.8371      Y:   -51.4037      Z:   -36.7678

  Electronic Dipole Moment: [e a0]
     X:    -3.3167      Y:    51.0854      Z:    37.3020

  Dipole Moment: [e a0]
     X:    -0.4796      Y:    -0.3183      Z:     0.5342     Total:     0.7853

  Dipole Moment: [D]
     X:    -1.2190      Y:    -0.8091      Z:     1.3578     Total:     1.9960


*** tstop() called on node52.bme.utexas.edu at Sat Apr 11 17:13:23 2020
Module time:
	user time   =      65.55 seconds =       1.09 minutes
	system time =       1.32 seconds =       0.02 minutes
	total time  =         12 seconds =       0.20 minutes
Total time:
	user time   =      88.88 seconds =       1.48 minutes
	system time =       2.16 seconds =       0.04 minutes
	total time  =         19 seconds =       0.32 minutes

*** tstart() called on node52.bme.utexas.edu
*** at Sat Apr 11 17:13:23 2020


  //>>>>>>>>>>>>>>>>>>>>>>>>>>>>>>>>>>>//
  //               DFMP2               //
  //<<<<<<<<<<<<<<<<<<<<<<<<<<<<<<<<<<<//

   => Loading Basis Set <=

    Name: (AUG-CC-PVTZ AUX)
    Role: RIFIT
    Keyword: DF_BASIS_MP2
    atoms 1-6         entry C          line   148 file /home/liuchw/anaconda3/envs/psi4env/share/psi4/basis/aug-cc-pvtz-ri.gbs 
    atoms 7, 14       entry O          line   264 file /home/liuchw/anaconda3/envs/psi4env/share/psi4/basis/aug-cc-pvtz-ri.gbs 
    atoms 8-13, 15-16 entry H          line    30 file /home/liuchw/anaconda3/envs/psi4env/share/psi4/basis/aug-cc-pvtz-ri.gbs 

	 --------------------------------------------------------
	                          DF-MP2                         
	      2nd-Order Density-Fitted Moller-Plesset Theory     
	              RMP2 Wavefunction,   6 Threads             
	                                                         
	        Rob Parrish, Justin Turney, Andy Simmonett,      
	           Ed Hohenstein, and C. David Sherrill          
	 --------------------------------------------------------

   => Auxiliary Basis Set <=

  Basis Set: (AUG-CC-PVTZ AUX)
    Blend: AUG-CC-PVTZ-RI
    Number of shells: 336
    Number of basis function: 1216
    Number of Cartesian functions: 1528
    Spherical Harmonics?: true
    Max angular momentum: 4

	 --------------------------------------------------------
	                 NBF =   552, NAUX =  1216
	 --------------------------------------------------------
	   CLASS    FOCC     OCC    AOCC    AVIR     VIR    FVIR
	   PAIRS       0       5       5     547     547       0
	 --------------------------------------------------------

	-----------------------------------------------------------
	 ==================> DF-MP2 Energies <==================== 
	-----------------------------------------------------------
	 Reference Energy          =     -76.0604198695555311 [Eh]
	 Singles Energy            =      -0.0000000000000000 [Eh]
	 Same-Spin Energy          =      -0.0685305090705679 [Eh]
	 Opposite-Spin Energy      =      -0.2167433667913678 [Eh]
	 Correlation Energy        =      -0.2852738758619356 [Eh]
	 Total Energy              =     -76.3456937454174636 [Eh]
	-----------------------------------------------------------
	 ================> DF-SCS-MP2 Energies <================== 
	-----------------------------------------------------------
	 SCS Same-Spin Scale       =       0.3333333333333333 [-]
	 SCS Opposite-Spin Scale   =       1.2000000000000000 [-]
	 SCS Same-Spin Energy      =      -0.0228435030235226 [Eh]
	 SCS Opposite-Spin Energy  =      -0.2600920401496413 [Eh]
	 SCS Correlation Energy    =      -0.2829355431731639 [Eh]
	 SCS Total Energy          =     -76.3433554127286982 [Eh]
	-----------------------------------------------------------


*** tstop() called on node52.bme.utexas.edu at Sat Apr 11 17:13:30 2020
Module time:
	user time   =      30.26 seconds =       0.50 minutes
	system time =       0.69 seconds =       0.01 minutes
	total time  =          7 seconds =       0.12 minutes
Total time:
	user time   =     119.14 seconds =       1.99 minutes
	system time =       2.85 seconds =       0.05 minutes
	total time  =         26 seconds =       0.43 minutes

  //>>>>>>>>>>>>>>>>>>>>>>>>>>>>>>>>>>>>//
  // CBS Computation: MP2 / AUG-CC-PVQZ //
  //<<<<<<<<<<<<<<<<<<<<<<<<<<<<<<<<<<<<//


Scratch directory: /scratch//

*** tstart() called on node52.bme.utexas.edu
*** at Sat Apr 11 17:13:30 2020

   => Loading Basis Set <=

    Name: AUG-CC-PVQZ
    Role: ORBITAL
    Keyword: BASIS
    atoms 1-6         entry C          line   303 file /home/liuchw/anaconda3/envs/psi4env/share/psi4/basis/aug-cc-pvqz.gbs 
    atoms 7, 14       entry O          line   423 file /home/liuchw/anaconda3/envs/psi4env/share/psi4/basis/aug-cc-pvqz.gbs 
    atoms 8-13, 15-16 entry H          line    40 file /home/liuchw/anaconda3/envs/psi4env/share/psi4/basis/aug-cc-pvqz.gbs 


         ---------------------------------------------------------
                                   SCF
               by Justin Turney, Rob Parrish, Andy Simmonett
                          and Daniel G. A. Smith
                              RHF Reference
                        6 Threads,  38146 MiB Core
         ---------------------------------------------------------

  ==> Geometry <==

    Molecular point group: c1
    Full point group: C1

    Geometry (in Angstrom), charge = 0, multiplicity = 1:

       Center              X                  Y                   Z               Mass       
    ------------   -----------------  -----------------  -----------------  -----------------
      Gh(C)          -1.141023639979     0.821005037913     0.815741353009    12.000000000000
      Gh(C)          -0.368785639979     1.851770037913     1.347097353009    12.000000000000
      Gh(C)           0.999485360021     1.903991037913     1.096730353009    12.000000000000
      Gh(C)           1.591108360021     0.917661037913     0.308677353009    12.000000000000
      Gh(C)           0.830027360021    -0.115682962087    -0.228493646991    12.000000000000
      Gh(C)          -0.537751639979    -0.157889962087     0.030812353009    12.000000000000
      Gh(O)          -1.253680639979    -1.198132962087    -0.514816646991    15.994914619570
      Gh(H)          -2.205862639979     0.778887037913     1.011677353009     1.007825032230
      Gh(H)          -0.841564639979     2.610177037913     1.955657353009     1.007825032230
      Gh(H)           1.597527360021     2.703751037913     1.509277353009     1.007825032230
      Gh(H)           2.652651360021     0.950538037913     0.105922353009     1.007825032230
      Gh(H)           1.274574360021    -0.883922962087    -0.845814646991     1.007825032230
      Gh(H)          -2.182337639979    -1.074238962087    -0.293100646991     1.007825032230
         O            0.222559360021    -2.672191962087    -2.026387646991    15.994914619570
         H            0.178823360021    -3.587147962087    -1.744341646991     1.007825032230
         H           -0.457960639979    -2.236994962087    -1.501262646991     1.007825032230

  Running in c1 symmetry.

  Rotational constants: A =      0.14075  B =      0.04157  C =      0.03217 [cm^-1]
  Rotational constants: A =   4219.64290  B =   1246.26561  C =    964.30816 [MHz]
  Nuclear repulsion =    9.160830883306415

  Charge       = 0
  Multiplicity = 1
  Electrons    = 10
  Nalpha       = 5
  Nbeta        = 5

  ==> Algorithm <==

  SCF Algorithm Type is DF.
  DIIS enabled.
  MOM disabled.
  Fractional occupation disabled.
  Guess Type is SAD.
  Energy threshold   = 1.00e-07
  Density threshold  = 1.00e-08
  Integral threshold = 0.00e+00

  ==> Primary Basis <==

  Basis Set: AUG-CC-PVQZ
    Blend: AUG-CC-PVQZ
    Number of shells: 272
    Number of basis function: 1008
    Number of Cartesian functions: 1280
    Spherical Harmonics?: true
    Max angular momentum: 4

   => Loading Basis Set <=

    Name: (AUG-CC-PVQZ AUX)
    Role: JKFIT
    Keyword: DF_BASIS_SCF
    atoms 1-6         entry C          line   178 file /home/liuchw/anaconda3/envs/psi4env/share/psi4/basis/aug-cc-pvqz-jkfit.gbs 
    atoms 7, 14       entry O          line   318 file /home/liuchw/anaconda3/envs/psi4env/share/psi4/basis/aug-cc-pvqz-jkfit.gbs 
    atoms 8-13, 15-16 entry H          line    70 file /home/liuchw/anaconda3/envs/psi4env/share/psi4/basis/aug-cc-pvqz-jkfit.gbs 

  ==> Pre-Iterations <==

   -------------------------------------------------------
    Irrep   Nso     Nmo     Nalpha   Nbeta   Ndocc  Nsocc
   -------------------------------------------------------
     A       1008    1008       0       0       0       0
   -------------------------------------------------------
    Total    1008    1008       5       5       5       0
   -------------------------------------------------------

  ==> Integral Setup <==

  DFHelper Memory: AOs need 12.231 GiB; user supplied 27.940 GiB. Using in-core AOs.

  ==> MemDFJK: Density-Fitted J/K Matrices <==

    J tasked:                   Yes
    K tasked:                   Yes
    wK tasked:                   No
    OpenMP threads:               6
    Memory [MiB]:             28610
    Algorithm:                 Core
    Schwarz Cutoff:           1E-12
    Mask sparsity (%):       9.7659
    Fitting Condition:        1E-10

   => Auxiliary Basis Set <=

  Basis Set: (AUG-CC-PVQZ AUX)
    Blend: AUG-CC-PVQZ-JKFIT
    Number of shells: 416
    Number of basis function: 1744
    Number of Cartesian functions: 2392
    Spherical Harmonics?: true
    Max angular momentum: 5

  Minimum eigenvalue in the overlap matrix is 2.1809044149E-07.
  Using Symmetric Orthogonalization.

  SCF Guess: Superposition of Atomic Densities via on-the-fly atomic UHF.

  ==> Iterations <==

                           Total Energy        Delta E     RMS |[F,P]|

   @DF-RHF iter SAD:   -75.47964824392318   -7.54796e+01   0.00000e+00 
   @DF-RHF iter   1:   -75.98091522339990   -5.01267e-01   4.65661e-04 DIIS
   @DF-RHF iter   2:   -76.03348498440843   -5.25698e-02   3.18839e-04 DIIS
   @DF-RHF iter   3:   -76.06527308831321   -3.17881e-02   2.17325e-05 DIIS
   @DF-RHF iter   4:   -76.06566567669924   -3.92588e-04   5.33414e-06 DIIS
   @DF-RHF iter   5:   -76.06569116628589   -2.54896e-05   1.21022e-06 DIIS
   @DF-RHF iter   6:   -76.06569326795039   -2.10166e-06   2.72083e-07 DIIS
   @DF-RHF iter   7:   -76.06569338574636   -1.17796e-07   5.05755e-08 DIIS
   @DF-RHF iter   8:   -76.06569338932454   -3.57818e-09   8.16401e-09 DIIS
  Energy and wave function converged.


  ==> Post-Iterations <==

    Orbital Energies [Eh]
    ---------------------

    Doubly Occupied:                                                      

       1A    -20.565668     2A     -1.351432     3A     -0.714361  
       4A     -0.585634     5A     -0.510377  

    Virtual:                                                              

       6A      0.014249     7A      0.025332     8A      0.028782  
       9A      0.040126    10A      0.043490    11A      0.051721  
      12A      0.055750    13A      0.063158    14A      0.071522  
      15A      0.074165    16A      0.077871    17A      0.081488  
      18A      0.082624    19A      0.089537    20A      0.097287  
      21A      0.108662    22A      0.109301    23A      0.112419  
      24A      0.116048    25A      0.117549    26A      0.123059  
      27A      0.126964    28A      0.131449    29A      0.136718  
      30A      0.141386    31A      0.145757    32A      0.159002  
      33A      0.164147    34A      0.168590    35A      0.171582  
      36A      0.174305    37A      0.177773    38A      0.182610  
      39A      0.198467    40A      0.203161    41A      0.204493  
      42A      0.207713    43A      0.215312    44A      0.218995  
      45A      0.225930    46A      0.229232    47A      0.238322  
      48A      0.244835    49A      0.247508    50A      0.251780  
      51A      0.257423    52A      0.263678    53A      0.273943  
      54A      0.278899    55A      0.282185    56A      0.287860  
      57A      0.292852    58A      0.295145    59A      0.295440  
      60A      0.297923    61A      0.306294    62A      0.307331  
      63A      0.310547    64A      0.312782    65A      0.327556  
      66A      0.327982    67A      0.334688    68A      0.338132  
      69A      0.339005    70A      0.343694    71A      0.357266  
      72A      0.359308    73A      0.365412    74A      0.368279  
      75A      0.369311    76A      0.374529    77A      0.376132  
      78A      0.379454    79A      0.381538    80A      0.398392  
      81A      0.404190    82A      0.406715    83A      0.413087  
      84A      0.416395    85A      0.421648    86A      0.427744  
      87A      0.430315    88A      0.440028    89A      0.450031  
      90A      0.451292    91A      0.455989    92A      0.467353  
      93A      0.473821    94A      0.482629    95A      0.484617  
      96A      0.486829    97A      0.490478    98A      0.493959  
      99A      0.507506   100A      0.514482   101A      0.517451  
     102A      0.522903   103A      0.525528   104A      0.530366  
     105A      0.531766   106A      0.540575   107A      0.544318  
     108A      0.547174   109A      0.552713   110A      0.561534  
     111A      0.566824   112A      0.567491   113A      0.572212  
     114A      0.577139   115A      0.577304   116A      0.581922  
     117A      0.589418   118A      0.595343   119A      0.601735  
     120A      0.606987   121A      0.617610   122A      0.619976  
     123A      0.626345   124A      0.631733   125A      0.635444  
     126A      0.650916   127A      0.662975   128A      0.667883  
     129A      0.672862   130A      0.690230   131A      0.696678  
     132A      0.696898   133A      0.704182   134A      0.715103  
     135A      0.726551   136A      0.729969   137A      0.734082  
     138A      0.738848   139A      0.746320   140A      0.752510  
     141A      0.756693   142A      0.764717   143A      0.770820  
     144A      0.775311   145A      0.778177   146A      0.786135  
     147A      0.792945   148A      0.797158   149A      0.801249  
     150A      0.802383   151A      0.807425   152A      0.810069  
     153A      0.815237   154A      0.818609   155A      0.827799  
     156A      0.835080   157A      0.837561   158A      0.842369  
     159A      0.846949   160A      0.858688   161A      0.869379  
     162A      0.873984   163A      0.884749   164A      0.889529  
     165A      0.895888   166A      0.898401   167A      0.906863  
     168A      0.921301   169A      0.925676   170A      0.928717  
     171A      0.934502   172A      0.941208   173A      0.942928  
     174A      0.945628   175A      0.952356   176A      0.957579  
     177A      0.957668   178A      0.971595   179A      0.981984  
     180A      0.987014   181A      0.991302   182A      0.995425  
     183A      0.997570   184A      1.005418   185A      1.014430  
     186A      1.018066   187A      1.023774   188A      1.030938  
     189A      1.032845   190A      1.038707   191A      1.047149  
     192A      1.053211   193A      1.061101   194A      1.064885  
     195A      1.068059   196A      1.073536   197A      1.085676  
     198A      1.090597   199A      1.094101   200A      1.097026  
     201A      1.100559   202A      1.100953   203A      1.109641  
     204A      1.115777   205A      1.122758   206A      1.129872  
     207A      1.136837   208A      1.147819   209A      1.162156  
     210A      1.171594   211A      1.185357   212A      1.193796  
     213A      1.203933   214A      1.210495   215A      1.216346  
     216A      1.222595   217A      1.227643   218A      1.235534  
     219A      1.240528   220A      1.253976   221A      1.260764  
     222A      1.269052   223A      1.275768   224A      1.287418  
     225A      1.300065   226A      1.310524   227A      1.319590  
     228A      1.328117   229A      1.341398   230A      1.344556  
     231A      1.353995   232A      1.361643   233A      1.372059  
     234A      1.374721   235A      1.379139   236A      1.390411  
     237A      1.395504   238A      1.412239   239A      1.423952  
     240A      1.440538   241A      1.452257   242A      1.456917  
     243A      1.464412   244A      1.467293   245A      1.478053  
     246A      1.495976   247A      1.505716   248A      1.518635  
     249A      1.526936   250A      1.528924   251A      1.538828  
     252A      1.548236   253A      1.552991   254A      1.560653  
     255A      1.566710   256A      1.575758   257A      1.576277  
     258A      1.582372   259A      1.592054   260A      1.596024  
     261A      1.607277   262A      1.609775   263A      1.623716  
     264A      1.625878   265A      1.632085   266A      1.643579  
     267A      1.646558   268A      1.652649   269A      1.662753  
     270A      1.670776   271A      1.679578   272A      1.683635  
     273A      1.690375   274A      1.701480   275A      1.706381  
     276A      1.713063   277A      1.719400   278A      1.727494  
     279A      1.746381   280A      1.749967   281A      1.757586  
     282A      1.762724   283A      1.770243   284A      1.778959  
     285A      1.789053   286A      1.791986   287A      1.794472  
     288A      1.797725   289A      1.808668   290A      1.811466  
     291A      1.816528   292A      1.824883   293A      1.827514  
     294A      1.836929   295A      1.843821   296A      1.846946  
     297A      1.849598   298A      1.861591   299A      1.862736  
     300A      1.872365   301A      1.877283   302A      1.885248  
     303A      1.898750   304A      1.901412   305A      1.906669  
     306A      1.915048   307A      1.920379   308A      1.925778  
     309A      1.948746   310A      1.952221   311A      1.960429  
     312A      1.965318   313A      1.972460   314A      1.978138  
     315A      1.984922   316A      1.994136   317A      1.999300  
     318A      2.004123   319A      2.009660   320A      2.018754  
     321A      2.029207   322A      2.033418   323A      2.043869  
     324A      2.051790   325A      2.056917   326A      2.064642  
     327A      2.069946   328A      2.081552   329A      2.087812  
     330A      2.089988   331A      2.095983   332A      2.113066  
     333A      2.122468   334A      2.130939   335A      2.138604  
     336A      2.142180   337A      2.160019   338A      2.162237  
     339A      2.170019   340A      2.173149   341A      2.181742  
     342A      2.187468   343A      2.190091   344A      2.209630  
     345A      2.210344   346A      2.220568   347A      2.228928  
     348A      2.248956   349A      2.254269   350A      2.261649  
     351A      2.263587   352A      2.269131   353A      2.276264  
     354A      2.284745   355A      2.292678   356A      2.300710  
     357A      2.313480   358A      2.316456   359A      2.338086  
     360A      2.340519   361A      2.349690   362A      2.358728  
     363A      2.363512   364A      2.376691   365A      2.383343  
     366A      2.387700   367A      2.399100   368A      2.411385  
     369A      2.413430   370A      2.426915   371A      2.432898  
     372A      2.441072   373A      2.448990   374A      2.451843  
     375A      2.481549   376A      2.486260   377A      2.498786  
     378A      2.505909   379A      2.512045   380A      2.514547  
     381A      2.519806   382A      2.528987   383A      2.549737  
     384A      2.554549   385A      2.565911   386A      2.570860  
     387A      2.577078   388A      2.585487   389A      2.593027  
     390A      2.603298   391A      2.605640   392A      2.615696  
     393A      2.627237   394A      2.648050   395A      2.652082  
     396A      2.660291   397A      2.672594   398A      2.690957  
     399A      2.693772   400A      2.717400   401A      2.718200  
     402A      2.728614   403A      2.732921   404A      2.738048  
     405A      2.750240   406A      2.758526   407A      2.777209  
     408A      2.782122   409A      2.786923   410A      2.804618  
     411A      2.811280   412A      2.825106   413A      2.829422  
     414A      2.849681   415A      2.866147   416A      2.876919  
     417A      2.880136   418A      2.889217   419A      2.900692  
     420A      2.906537   421A      2.909119   422A      2.918684  
     423A      2.928638   424A      2.948813   425A      2.953163  
     426A      2.967538   427A      2.972915   428A      2.978509  
     429A      2.988501   430A      3.004731   431A      3.015394  
     432A      3.021325   433A      3.028228   434A      3.041330  
     435A      3.054344   436A      3.071450   437A      3.079669  
     438A      3.082516   439A      3.085135   440A      3.101656  
     441A      3.105031   442A      3.109900   443A      3.119445  
     444A      3.134007   445A      3.140735   446A      3.146111  
     447A      3.153544   448A      3.160875   449A      3.167878  
     450A      3.175603   451A      3.212776   452A      3.220455  
     453A      3.230174   454A      3.234979   455A      3.244333  
     456A      3.253164   457A      3.263971   458A      3.269422  
     459A      3.273951   460A      3.280075   461A      3.292493  
     462A      3.298348   463A      3.305456   464A      3.306900  
     465A      3.313019   466A      3.318276   467A      3.333478  
     468A      3.340971   469A      3.353051   470A      3.359107  
     471A      3.373458   472A      3.414523   473A      3.422645  
     474A      3.428908   475A      3.440484   476A      3.448650  
     477A      3.463663   478A      3.469292   479A      3.472207  
     480A      3.502738   481A      3.509803   482A      3.515866  
     483A      3.528885   484A      3.531783   485A      3.543325  
     486A      3.545293   487A      3.562012   488A      3.567052  
     489A      3.585576   490A      3.600722   491A      3.620957  
     492A      3.631939   493A      3.651707   494A      3.660616  
     495A      3.670952   496A      3.688429   497A      3.698308  
     498A      3.709133   499A      3.724204   500A      3.734796  
     501A      3.747115   502A      3.778055   503A      3.782214  
     504A      3.799794   505A      3.803814   506A      3.821432  
     507A      3.836785   508A      3.841786   509A      3.847276  
     510A      3.860457   511A      3.862218   512A      3.870475  
     513A      3.878918   514A      3.897756   515A      3.910927  
     516A      3.916065   517A      3.932847   518A      3.944817  
     519A      3.958158   520A      3.984973   521A      3.989580  
     522A      4.016813   523A      4.031908   524A      4.034223  
     525A      4.070021   526A      4.093064   527A      4.094633  
     528A      4.114964   529A      4.123450   530A      4.132578  
     531A      4.143728   532A      4.153950   533A      4.178434  
     534A      4.196809   535A      4.199575   536A      4.204728  
     537A      4.216710   538A      4.230905   539A      4.236157  
     540A      4.249111   541A      4.264594   542A      4.286583  
     543A      4.296406   544A      4.305322   545A      4.319460  
     546A      4.326399   547A      4.330158   548A      4.341959  
     549A      4.355417   550A      4.361315   551A      4.368446  
     552A      4.383342   553A      4.394961   554A      4.404344  
     555A      4.413464   556A      4.438368   557A      4.468105  
     558A      4.472634   559A      4.486489   560A      4.498204  
     561A      4.526278   562A      4.551735   563A      4.565417  
     564A      4.588067   565A      4.600043   566A      4.612451  
     567A      4.651757   568A      4.669545   569A      4.677299  
     570A      4.689684   571A      4.708306   572A      4.720290  
     573A      4.728563   574A      4.751403   575A      4.759783  
     576A      4.772049   577A      4.780697   578A      4.799392  
     579A      4.806018   580A      4.817946   581A      4.830869  
     582A      4.848611   583A      4.870269   584A      4.889456  
     585A      4.902157   586A      4.910745   587A      4.919171  
     588A      4.932072   589A      4.941051   590A      4.959640  
     591A      4.985328   592A      4.990908   593A      5.008276  
     594A      5.017132   595A      5.020435   596A      5.030203  
     597A      5.035655   598A      5.053272   599A      5.061067  
     600A      5.080245   601A      5.093908   602A      5.096664  
     603A      5.117928   604A      5.148476   605A      5.153319  
     606A      5.174616   607A      5.177571   608A      5.191324  
     609A      5.211663   610A      5.232944   611A      5.239991  
     612A      5.260364   613A      5.294844   614A      5.308052  
     615A      5.324705   616A      5.331121   617A      5.348708  
     618A      5.371475   619A      5.402080   620A      5.408004  
     621A      5.421726   622A      5.436258   623A      5.440006  
     624A      5.473321   625A      5.509670   626A      5.535133  
     627A      5.551171   628A      5.568834   629A      5.588964  
     630A      5.623924   631A      5.637337   632A      5.651888  
     633A      5.662461   634A      5.703805   635A      5.716678  
     636A      5.767266   637A      5.799426   638A      5.807332  
     639A      5.827664   640A      5.840155   641A      5.889648  
     642A      5.909352   643A      5.912665   644A      5.933821  
     645A      6.038059   646A      6.074246   647A      6.080979  
     648A      6.128417   649A      6.160411   650A      6.215564  
     651A      6.230424   652A      6.260940   653A      6.296599  
     654A      6.334336   655A      6.344388   656A      6.359871  
     657A      6.436133   658A      6.445614   659A      6.447776  
     660A      6.485421   661A      6.494497   662A      6.499258  
     663A      6.519310   664A      6.535977   665A      6.560138  
     666A      6.567364   667A      6.589727   668A      6.605406  
     669A      6.620368   670A      6.632595   671A      6.667079  
     672A      6.722588   673A      6.733560   674A      6.750370  
     675A      6.767642   676A      6.837992   677A      6.858643  
[...]
     541A      3.866645   542A      3.872062   543A      3.875064  
     544A      3.901349   545A      3.910438   546A      3.915521  
     547A      3.934367   548A      3.943232   549A      3.952605  
     550A      3.960337   551A      3.971151   552A      3.974181  
     553A      3.983007   554A      3.992409   555A      4.005410  
     556A      4.019490   557A      4.030853   558A      4.037829  
     559A      4.050677   560A      4.062902   561A      4.087620  
     562A      4.101308   563A      4.107543   564A      4.120215  
     565A      4.129775   566A      4.161422   567A      4.164681  
     568A      4.183202   569A      4.197920   570A      4.210830  
     571A      4.231538   572A      4.245008   573A      4.264378  
     574A      4.274532   575A      4.293131   576A      4.297457  
     577A      4.306927   578A      4.330495   579A      4.347721  
     580A      4.356700   581A      4.362707   582A      4.366059  
     583A      4.374156   584A      4.378722   585A      4.388888  
     586A      4.399469   587A      4.407149   588A      4.415081  
     589A      4.426864   590A      4.431595   591A      4.436786  
     592A      4.451971   593A      4.478832   594A      4.485994  
     595A      4.495381   596A      4.496169   597A      4.514778  
     598A      4.533769   599A      4.543268   600A      4.549245  
     601A      4.563873   602A      4.574827   603A      4.597555  
     604A      4.609523   605A      4.610208   606A      4.629739  
     607A      4.658086   608A      4.669910   609A      4.680020  
     610A      4.683395   611A      4.698839   612A      4.703028  
     613A      4.715220   614A      4.746025   615A      4.776794  
     616A      4.794643   617A      4.801974   618A      4.840033  
     619A      4.857113   620A      4.879589   621A      4.892050  
     622A      4.901924   623A      4.910737   624A      4.927953  
     625A      4.936202   626A      4.942437   627A      4.957615  
     628A      4.969799   629A      4.984656   630A      4.998443  
     631A      5.016737   632A      5.048547   633A      5.067499  
     634A      5.079967   635A      5.085045   636A      5.109756  
     637A      5.131200   638A      5.158601   639A      5.164116  
     640A      5.171487   641A      5.188724   642A      5.207992  
     643A      5.223657   644A      5.249034   645A      5.298088  
     646A      5.304624   647A      5.324766   648A      5.362616  
     649A      5.386444   650A      5.433292   651A      5.435765  
     652A      5.436998   653A      5.458377   654A      5.472194  
     655A      5.526658   656A      5.557538   657A      5.586437  
     658A      5.602263   659A      5.650510   660A      5.657445  
     661A      5.687239   662A      5.727819   663A      5.736385  
     664A      5.763145   665A      5.777832   666A      5.805547  
     667A      5.821808   668A      5.837145   669A      5.878358  
     670A      5.882154   671A      5.900873   672A      5.916996  
     673A      5.934520   674A      5.965746   675A      5.973647  
     676A      6.003129   677A      6.022620   678A      6.033069  
     679A      6.071101   680A      6.091536   681A      6.122167  
     682A      6.132382   683A      6.144882   684A      6.179022  
     685A      6.184473   686A      6.209407   687A      6.230141  
     688A      6.255104   689A      6.267035   690A      6.297235  
     691A      6.302885   692A      6.314122   693A      6.319694  
     694A      6.321611   695A      6.342624   696A      6.345112  
     697A      6.360000   698A      6.382008   699A      6.405759  
     700A      6.417674   701A      6.452933   702A      6.457534  
     703A      6.461947   704A      6.493764   705A      6.515977  
     706A      6.519110   707A      6.542800   708A      6.600391  
     709A      6.617658   710A      6.629846   711A      6.649919  
     712A      6.668360   713A      6.688296   714A      6.696023  
     715A      6.710305   716A      6.722146   717A      6.732798  
     718A      6.741735   719A      6.752879   720A      6.762656  
     721A      6.798958   722A      6.818869   723A      6.840426  
     724A      6.851631   725A      6.858618   726A      6.864885  
     727A      6.875347   728A      6.914531   729A      6.919120  
     730A      6.936930   731A      6.951498   732A      6.955774  
     733A      6.978408   734A      6.991508   735A      7.011583  
     736A      7.017474   737A      7.024834   738A      7.038476  
     739A      7.062448   740A      7.075124   741A      7.078160  
     742A      7.083820   743A      7.101222   744A      7.104542  
     745A      7.106954   746A      7.118076   747A      7.133746  
     748A      7.148872   749A      7.174337   750A      7.184941  
     751A      7.196794   752A      7.214864   753A      7.219547  
     754A      7.231186   755A      7.252670   756A      7.256624  
     757A      7.263900   758A      7.286840   759A      7.304980  
     760A      7.305757   761A      7.324156   762A      7.338127  
     763A      7.353942   764A      7.381147   765A      7.398460  
     766A      7.403533   767A      7.410657   768A      7.441602  
     769A      7.449319   770A      7.466488   771A      7.487782  
     772A      7.503222   773A      7.517241   774A      7.534164  
     775A      7.604108   776A      7.615751   777A      7.621115  
     778A      7.641171   779A      7.676359   780A      7.677103  
     781A      7.687724   782A      7.717234   783A      7.736208  
     784A      7.757407   785A      7.765232   786A      7.789270  
     787A      7.821848   788A      7.831945   789A      7.846838  
     790A      7.869437   791A      7.890865   792A      7.893999  
     793A      7.903620   794A      7.931623   795A      7.940652  
     796A      7.950856   797A      7.963677   798A      7.966764  
     799A      7.978589   800A      7.995237   801A      8.008160  
     802A      8.015690   803A      8.039942   804A      8.055751  
     805A      8.062572   806A      8.091956   807A      8.111545  
     808A      8.114862   809A      8.124753   810A      8.134369  
     811A      8.176931   812A      8.191133   813A      8.193543  
     814A      8.204514   815A      8.263736   816A      8.276903  
     817A      8.300711   818A      8.313084   819A      8.327348  
     820A      8.334995   821A      8.368731   822A      8.377213  
     823A      8.389769   824A      8.404317   825A      8.415521  
     826A      8.455374   827A      8.483982   828A      8.508199  
     829A      8.536652   830A      8.578801   831A      8.596698  
     832A      8.622437   833A      8.659984   834A      8.669613  
     835A      8.672537   836A      8.703521   837A      8.718139  
     838A      8.737003   839A      8.741744   840A      8.755710  
     841A      8.778157   842A      8.784493   843A      8.819263  
     844A      8.840456   845A      8.862321   846A      8.874354  
     847A      8.882199   848A      8.896370   849A      8.907492  
     850A      8.929103   851A      8.934322   852A      8.962144  
     853A      8.970942   854A      8.995659   855A      9.016213  
     856A      9.031294   857A      9.078975   858A      9.081725  
     859A      9.092834   860A      9.103235   861A      9.115138  
     862A      9.154302   863A      9.170457   864A      9.188444  
     865A      9.217037   866A      9.234190   867A      9.268532  
     868A      9.273960   869A      9.315597   870A      9.329827  
     871A      9.377768   872A      9.386007   873A      9.396578  
     874A      9.418318   875A      9.465030   876A      9.490861  
     877A      9.520497   878A      9.526449   879A      9.549849  
     880A      9.563564   881A      9.569655   882A      9.580176  
     883A      9.622113   884A      9.640566   885A      9.651434  
     886A      9.675433   887A      9.707526   888A      9.731603  
     889A      9.751487   890A      9.769162   891A      9.799124  
     892A      9.862825   893A      9.893785   894A      9.924757  
     895A      9.954499   896A     10.017528   897A     10.022072  
     898A     10.027665   899A     10.058621   900A     10.065885  
     901A     10.082625   902A     10.101058   903A     10.156500  
     904A     10.165552   905A     10.203015   906A     10.243566  
     907A     10.251340   908A     10.266055   909A     10.278752  
     910A     10.304148   911A     10.355108   912A     10.384088  
     913A     10.390184   914A     10.411839   915A     10.471693  
     916A     10.482393   917A     10.493561   918A     10.514177  
     919A     10.538313   920A     10.581002   921A     10.629209  
     922A     10.678674   923A     10.717901   924A     10.750814  
     925A     10.804468   926A     10.825584   927A     10.849486  
     928A     10.867793   929A     10.883701   930A     10.936281  
     931A     10.989839   932A     11.036701   933A     11.086739  
     934A     11.094592   935A     11.139303   936A     11.150411  
     937A     11.227399   938A     11.237433   939A     11.270560  
     940A     11.284386   941A     11.366874   942A     11.423180  
     943A     11.436804   944A     11.464681   945A     11.501720  
     946A     11.522663   947A     11.555503   948A     11.560743  
     949A     11.617922   950A     11.638227   951A     11.671441  
     952A     11.709126   953A     11.721754   954A     11.759853  
     955A     11.787392   956A     11.821528   957A     11.869688  
     958A     11.956178   959A     11.992632   960A     12.007894  
     961A     12.132808   962A     12.166970   963A     12.221629  
     964A     12.268623   965A     12.337210   966A     12.419110  
     967A     12.432782   968A     12.579310   969A     12.599384  
     970A     12.819929   971A     12.858609   972A     12.983701  
     973A     13.007896   974A     13.034277   975A     13.099741  
     976A     13.130330   977A     13.240531   978A     13.290888  
     979A     13.373713   980A     13.396471   981A     13.410942  
     982A     13.537806   983A     13.565977   984A     13.644491  
     985A     13.665812   986A     13.908564   987A     14.079414  
     988A     14.145331   989A     14.352277   990A     14.595838  
     991A     14.662926   992A     14.694467   993A     14.948857  
     994A     15.053020   995A     15.108408   996A     15.372167  
     997A     15.576064   998A     17.210632   999A     17.544806  
    1000A     17.729072  1001A     25.861885  1002A     26.312347  
    1003A     26.561994  1004A     26.878006  1005A     27.185332  
    1006A     27.295018  1007A     46.179121  1008A     46.509032  

    Final Occupation by Irrep:
              A 
    DOCC [    30 ]

  @DF-RHF Final Energy:  -381.75283674732373

   => Energetics <=

    Nuclear Repulsion Energy =            349.8906677062003610
    One-Electron Energy =               -1213.8818176799645698
    Two-Electron Energy =                 482.2383132264404821
    Total Energy =                       -381.7528367473237267

Computation Completed


Properties will be evaluated at   0.000000,   0.000000,   0.000000 [a0]

Properties computed using the SCF density matrix

  Nuclear Dipole Moment: [e a0]
     X:     0.0099      Y:    -0.7113      Z:     0.1734

  Electronic Dipole Moment: [e a0]
     X:    -0.8520      Y:     0.9407      Z:     0.7466

  Dipole Moment: [e a0]
     X:    -0.8421      Y:     0.2294      Z:     0.9200     Total:     1.2681

  Dipole Moment: [D]
     X:    -2.1404      Y:     0.5830      Z:     2.3385     Total:     3.2233


*** tstop() called on node52.bme.utexas.edu at Sat Apr 11 17:20:22 2020
Module time:
	user time   =     411.90 seconds =       6.86 minutes
	system time =       5.90 seconds =       0.10 minutes
	total time  =         74 seconds =       1.23 minutes
Total time:
	user time   =    2271.29 seconds =      37.85 minutes
	system time =      39.91 seconds =       0.67 minutes
	total time  =        438 seconds =       7.30 minutes

*** tstart() called on node52.bme.utexas.edu
*** at Sat Apr 11 17:20:22 2020


  //>>>>>>>>>>>>>>>>>>>>>>>>>>>>>>>>>>>//
  //               DFMP2               //
  //<<<<<<<<<<<<<<<<<<<<<<<<<<<<<<<<<<<//

   => Loading Basis Set <=

    Name: (AUG-CC-PVQZ AUX)
    Role: RIFIT
    Keyword: DF_BASIS_MP2
    atoms 1-6         entry C          line   184 file /home/liuchw/anaconda3/envs/psi4env/share/psi4/basis/aug-cc-pvqz-ri.gbs 
    atoms 7, 14       entry O          line   332 file /home/liuchw/anaconda3/envs/psi4env/share/psi4/basis/aug-cc-pvqz-ri.gbs 
    atoms 8-13, 15-16 entry H          line    30 file /home/liuchw/anaconda3/envs/psi4env/share/psi4/basis/aug-cc-pvqz-ri.gbs 

	 --------------------------------------------------------
	                          DF-MP2                         
	      2nd-Order Density-Fitted Moller-Plesset Theory     
	              RMP2 Wavefunction,   6 Threads             
	                                                         
	        Rob Parrish, Justin Turney, Andy Simmonett,      
	           Ed Hohenstein, and C. David Sherrill          
	 --------------------------------------------------------

   => Auxiliary Basis Set <=

  Basis Set: (AUG-CC-PVQZ AUX)
    Blend: AUG-CC-PVQZ-RI
    Number of shells: 448
    Number of basis function: 1984
    Number of Cartesian functions: 2736
    Spherical Harmonics?: true
    Max angular momentum: 5

	 --------------------------------------------------------
	                 NBF =  1008, NAUX =  1984
	 --------------------------------------------------------
	   CLASS    FOCC     OCC    AOCC    AVIR     VIR    FVIR
	   PAIRS       0      30      30     978     978       0
	 --------------------------------------------------------

	-----------------------------------------------------------
	 ==================> DF-MP2 Energies <==================== 
	-----------------------------------------------------------
	 Reference Energy          =    -381.7528367473237267 [Eh]
	 Singles Energy            =      -0.0000000000000000 [Eh]
	 Same-Spin Energy          =      -0.4206635805610179 [Eh]
	 Opposite-Spin Energy      =      -1.3803434341047951 [Eh]
	 Correlation Energy        =      -1.8010070146658130 [Eh]
	 Total Energy              =    -383.5538437619895262 [Eh]
	-----------------------------------------------------------
	 ================> DF-SCS-MP2 Energies <================== 
	-----------------------------------------------------------
	 SCS Same-Spin Scale       =       0.3333333333333333 [-]
	 SCS Opposite-Spin Scale   =       1.2000000000000000 [-]
	 SCS Same-Spin Energy      =      -0.1402211935203393 [Eh]
	 SCS Opposite-Spin Energy  =      -1.6564121209257541 [Eh]
	 SCS Correlation Energy    =      -1.7966333144460933 [Eh]
	 SCS Total Energy          =    -383.5494700617697958 [Eh]
	-----------------------------------------------------------


*** tstop() called on node52.bme.utexas.edu at Sat Apr 11 17:21:10 2020
Module time:
	user time   =     229.11 seconds =       3.82 minutes
	system time =       4.17 seconds =       0.07 minutes
	total time  =         48 seconds =       0.80 minutes
Total time:
	user time   =    2500.40 seconds =      41.67 minutes
	system time =      44.08 seconds =       0.73 minutes
	total time  =        486 seconds =       8.10 minutes

  //>>>>>>>>>>>>>>>>>>>>>>>>>>>>>>>>>>>//
  //  CBS Results: mp2/aug-cc-pv[tq]z  //
  //<<<<<<<<<<<<<<<<<<<<<<<<<<<<<<<<<<<//


   ==> HF <==

   HI-zeta (4) Energy:               -381.752836747324


   ==> Helgaker 2-point correlated extrapolation for method: MP2 <==

   LO-zeta (3) Energy:               -383.353391278369
   HI-zeta (4) Energy:               -383.553843761990
   Alpha (exponent) Value:             3.000000000000
   Extrapolated Energy:              -383.700119898686

   @Extrapolated MP2/(T,Q):          -383.700119898686



   ==> Helgaker 2-point correlated extrapolation for method: HF <==

   LO-zeta (3) Energy:               -381.729476334614
   HI-zeta (4) Energy:               -381.752836747324
   Alpha (exponent) Value:             3.000000000000
   Extrapolated Energy:              -381.769883534977

   @Extrapolated HF/(T,Q):           -381.769883534977


   ==> Components <==

  ---------------------------------------------------------------------------------------------------------
                          Method / Basis                      Rqd      Energy [Eh]   Variable
  ---------------------------------------------------------------------------------------------------------
                              hf / aug-cc-pvtz                  *    -381.72947633   HF TOTAL ENERGY
                             mp2 / aug-cc-pvtz                  *    -383.35339128   MP2 TOTAL ENERGY
                              hf / aug-cc-pvqz                  *    -381.75283675   HF TOTAL ENERGY
                             mp2 / aug-cc-pvqz                  *    -383.55384376   MP2 TOTAL ENERGY
  ---------------------------------------------------------------------------------------------------------

   ==> Stages <==

  ---------------------------------------------------------------------------------------------------------
      Stage               Method / Basis                       Wt      Energy [Eh]   Scheme
  ---------------------------------------------------------------------------------------------------------
        scf                   hf / aug-cc-pvqz                  1    -381.75283675   xtpl_highest_1
       corl                  mp2 / aug-cc-pv[tq]z               1    -383.70011990   corl_xtpl_helgaker_2
       corl                   hf / aug-cc-pv[tq]z              -1    -381.76988353   corl_xtpl_helgaker_2
  ---------------------------------------------------------------------------------------------------------

   ==> CBS <==

  ---------------------------------------------------------------------------------------------------------
      Stage               Method / Basis                               Energy [Eh]   Scheme
  ---------------------------------------------------------------------------------------------------------
        scf                   hf / aug-cc-pvqz                       -381.75283675   xtpl_highest_1
       corl                  mp2 / aug-cc-pv[tq]z                      -1.93023636   corl_xtpl_helgaker_2
      total                  CBS                                     -383.68307311   
  ---------------------------------------------------------------------------------------------------------
   => Loading Basis Set <=

    Name: DEF2-SVP
    Role: ORBITAL
    Keyword: BASIS
    atoms 1-6         entry C          line    90 file /home/liuchw/anaconda3/envs/psi4env/share/psi4/basis/def2-svp.gbs 
    atoms 7, 14       entry O          line   130 file /home/liuchw/anaconda3/envs/psi4env/share/psi4/basis/def2-svp.gbs 
    atoms 8-13, 15-16 entry H          line    15 file /home/liuchw/anaconda3/envs/psi4env/share/psi4/basis/def2-svp.gbs 


       N-Body: Complex Energy (fragments = (1, 2), basis = (1, 2):  -383.68307311103263)

   ==> N-Body: Counterpoise Corrected (CP) energies <==

   n-Body     Total Energy [Eh]       I.E. [kcal/mol]      Delta [kcal/mol]
        1     -383.679264137443        0.000000000000        0.000000000000
        2     -383.683089058270       -2.400174055686       -2.400174055686

   => Loading Basis Set <=

    Name: DEF2-SVP
    Role: ORBITAL
    Keyword: BASIS
    atoms 1-6         entry C          line    90 file /home/liuchw/anaconda3/envs/psi4env/share/psi4/basis/def2-svp.gbs 
    atoms 7, 14       entry O          line   130 file /home/liuchw/anaconda3/envs/psi4env/share/psi4/basis/def2-svp.gbs 
    atoms 8-13, 15-16 entry H          line    15 file /home/liuchw/anaconda3/envs/psi4env/share/psi4/basis/def2-svp.gbs 


    Psi4 stopped on: Saturday, 11 April 2020 05:21PM
    Psi4 wall time for execution: 0:08:06.13

*** Psi4 exiting successfully. Buy a developer a beer!
