
    -----------------------------------------------------------------------
          Psi4: An Open-Source Ab Initio Electronic Structure Package
                               Psi4 1.4a2.dev224 

                         Git: Rev {master} e453b16 


    R. M. Parrish, L. A. Burns, D. G. A. Smith, A. C. Simmonett,
    A. E. DePrince III, E. G. Hohenstein, U. Bozkaya, A. Yu. Sokolov,
    R. Di Remigio, R. M. Richard, J. F. Gonthier, A. M. James,
    H. R. McAlexander, A. Kumar, M. Saitow, X. Wang, B. P. Pritchard,
    P. Verma, H. F. Schaefer III, K. Patkowski, R. A. King, E. F. Valeev,
    F. A. Evangelista, J. M. Turney, T. D. Crawford, and C. D. Sherrill,
    J. Chem. Theory Comput. 13(7) pp 3185--3197 (2017).
    (doi: 10.1021/acs.jctc.7b00174)


                         Additional Contributions by
    P. Kraus, H. Kruse, M. H. Lechner, M. C. Schieber, R. A. Shaw,
    A. Alenaizan, R. Galvelis, Z. L. Glick, S. Lehtola, and J. P. Misiewicz

    -----------------------------------------------------------------------


    Psi4 started on: Saturday, 11 April 2020 05:59PM

    Process ID: 43882
    Host:       node43.bme.utexas.edu
    PSIDATADIR: /home/liuchw/anaconda3/envs/psi4env/share/psi4
    Memory:     500.0 MiB
    Threads:    6
    
  ==> Input File <==

--------------------------------------------------------------------------
#Generated by lconvert.py for cbs job

memory 40 GB

molecule  {
0 1
  N       -2.6330390    -1.7510900    -0.9001150
  C       -2.2578060     1.4032050     0.7336210
  C       -3.5331660     1.9396200     0.6732940
  C       -4.5941960     1.2394070     0.0637350
  C       -4.3993280    -0.0127580    -0.4979920
  C       -3.1117410    -0.5537930    -0.4368320
  C       -2.0263250     0.1352780     0.1734480
  C       -0.8827400    -0.7079510     0.0508040
  C       -1.2955870    -1.8442010    -0.6078240
  H       -1.4520190     1.9513540     1.2045360
  H       -3.7236730     2.9146940     1.1009290
  H       -5.5779950     1.6879270     0.0341470
  H       -5.2133710    -0.5506910    -0.9660040
  H        0.1166300    -0.5107330     0.3993830
  H       -3.1776140    -2.4541930    -1.3807030
  H       -0.7350890    -2.7187200    -0.8929720
--
0 1
  O       -4.0509540    -3.5451470    -2.1336370
  H       -4.6027550    -4.2237510    -1.7391940
  H       -4.2672280    -3.5752410    -3.0679250
units angstrom
no_reorient
symmetry c1
}

set {
scf_type DF
mp2_type DF
e_convergence 7
reference rhf
}

energy('mp2/aug-cc-pv[tq]z', bsse_type='cp')
--------------------------------------------------------------------------

  Memory set to  37.253 GiB by Python driver.

Scratch directory: /scratch//


   ===> N-Body Interaction Abacus <===
        BSSE Treatment:                     cp
        Number of 1-body computations:     4
        Number of 2-body computations:     1

   ==> N-Body: Now computing 1-body complexes <==


       N-Body: Computing complex (1/4) with fragments (2,) in the basis of fragments (2,).


Scratch directory: /scratch//

  //>>>>>>>>>>>>>>>>>>>>>>>>>>>>>>>>>>>//
  //   CBS Setup: mp2/aug-cc-pv[tq]z   //
  //<<<<<<<<<<<<<<<<<<<<<<<<<<<<<<<<<<<//

    Naive listing of computations required.
             hf / aug-cc-pvqz              for  HF TOTAL ENERGY
            mp2 / aug-cc-pvtz              for  MP2 TOTAL ENERGY
            mp2 / aug-cc-pvqz              for  MP2 TOTAL ENERGY
             hf / aug-cc-pvtz              for  HF TOTAL ENERGY
             hf / aug-cc-pvqz              for  HF TOTAL ENERGY

    Enlightened listing of computations required.
            mp2 / aug-cc-pvtz              for  MP2 TOTAL ENERGY
            mp2 / aug-cc-pvqz              for  MP2 TOTAL ENERGY

    Full listing of computations to be obtained (required and bonus).
             hf / aug-cc-pvtz              for  HF TOTAL ENERGY
            mp2 / aug-cc-pvtz              for  MP2 TOTAL ENERGY
             hf / aug-cc-pvqz              for  HF TOTAL ENERGY
            mp2 / aug-cc-pvqz              for  MP2 TOTAL ENERGY

  //>>>>>>>>>>>>>>>>>>>>>>>>>>>>>>>>>>>>//
  // CBS Computation: MP2 / AUG-CC-PVTZ //
  //<<<<<<<<<<<<<<<<<<<<<<<<<<<<<<<<<<<<//


Scratch directory: /scratch//

*** tstart() called on node43.bme.utexas.edu
*** at Sat Apr 11 17:59:28 2020

   => Loading Basis Set <=

    Name: AUG-CC-PVTZ
    Role: ORBITAL
    Keyword: BASIS
    atoms 1   entry O          line   331 file /home/liuchw/anaconda3/envs/psi4env/share/psi4/basis/aug-cc-pvtz.gbs 
    atoms 2-3 entry H          line    40 file /home/liuchw/anaconda3/envs/psi4env/share/psi4/basis/aug-cc-pvtz.gbs 


         ---------------------------------------------------------
                                   SCF
               by Justin Turney, Rob Parrish, Andy Simmonett
                          and Daniel G. A. Smith
                              RHF Reference
                        6 Threads,  38146 MiB Core
         ---------------------------------------------------------

  ==> Geometry <==

    Molecular point group: c1
    Full point group: C1

    Geometry (in Angstrom), charge = 0, multiplicity = 1:

       Center              X                  Y                   Z               Mass       
    ------------   -----------------  -----------------  -----------------  -----------------
         O           -1.121082175022    -3.030021660129    -1.761573644291    15.994914619570
         H           -1.672883175022    -3.708625660129    -1.367130644291     1.007825032230
         H           -1.337356175022    -3.060115660129    -2.695861644291     1.007825032230

  Running in c1 symmetry.

  Rotational constants: A =     13.42192  B =      0.06675  C =      0.06647 [cm^-1]
  Rotational constants: A = 402378.92165  B =   2001.03299  C =   1992.66434 [MHz]
  Nuclear repulsion =    9.173565700515482

  Charge       = 0
  Multiplicity = 1
  Electrons    = 10
  Nalpha       = 5
  Nbeta        = 5

  ==> Algorithm <==

  SCF Algorithm Type is DF.
  DIIS enabled.
  MOM disabled.
  Fractional occupation disabled.
  Guess Type is SAD.
  Energy threshold   = 1.00e-07
  Density threshold  = 1.00e-08
  Integral threshold = 0.00e+00

  ==> Primary Basis <==

  Basis Set: AUG-CC-PVTZ
    Blend: AUG-CC-PVTZ
    Number of shells: 32
    Number of basis function: 92
    Number of Cartesian functions: 105
    Spherical Harmonics?: true
    Max angular momentum: 3

   => Loading Basis Set <=

    Name: (AUG-CC-PVTZ AUX)
    Role: JKFIT
    Keyword: DF_BASIS_SCF
    atoms 1   entry O          line   286 file /home/liuchw/anaconda3/envs/psi4env/share/psi4/basis/aug-cc-pvtz-jkfit.gbs 
    atoms 2-3 entry H          line    70 file /home/liuchw/anaconda3/envs/psi4env/share/psi4/basis/aug-cc-pvtz-jkfit.gbs 

  ==> Pre-Iterations <==

   -------------------------------------------------------
    Irrep   Nso     Nmo     Nalpha   Nbeta   Ndocc  Nsocc
   -------------------------------------------------------
     A         92      92       0       0       0       0
   -------------------------------------------------------
    Total      92      92       5       5       5       0
   -------------------------------------------------------

  ==> Integral Setup <==

  DFHelper Memory: AOs need 0.015 GiB; user supplied 27.940 GiB. Using in-core AOs.

  ==> MemDFJK: Density-Fitted J/K Matrices <==

    J tasked:                   Yes
    K tasked:                   Yes
    wK tasked:                   No
    OpenMP threads:               6
    Memory [MiB]:             28610
    Algorithm:                 Core
    Schwarz Cutoff:           1E-12
    Mask sparsity (%):       0.0000
    Fitting Condition:        1E-10

   => Auxiliary Basis Set <=

  Basis Set: (AUG-CC-PVTZ AUX)
    Blend: AUG-CC-PVTZ-JKFIT
    Number of shells: 58
    Number of basis function: 196
    Number of Cartesian functions: 241
    Spherical Harmonics?: true
    Max angular momentum: 4

  Minimum eigenvalue in the overlap matrix is 3.8668895977E-04.
  Using Symmetric Orthogonalization.

  SCF Guess: Superposition of Atomic Densities via on-the-fly atomic UHF.

  ==> Iterations <==

                           Total Energy        Delta E     RMS |[F,P]|

   @DF-RHF iter SAD:   -75.47562376095647   -7.54756e+01   0.00000e+00 
   @DF-RHF iter   1:   -75.97609727641495   -5.00474e-01   5.09217e-03 DIIS
   @DF-RHF iter   2:   -76.02859133238876   -5.24941e-02   3.47079e-03 DIIS
   @DF-RHF iter   3:   -76.06002632602190   -3.14350e-02   2.35775e-04 DIIS
   @DF-RHF iter   4:   -76.06041520936171   -3.88883e-04   5.64229e-05 DIIS
   @DF-RHF iter   5:   -76.06043946122426   -2.42519e-05   1.27953e-05 DIIS
   @DF-RHF iter   6:   -76.06044144224643   -1.98102e-06   2.80440e-06 DIIS
   @DF-RHF iter   7:   -76.06044154704205   -1.04796e-07   5.07352e-07 DIIS
   @DF-RHF iter   8:   -76.06044155006144   -3.01939e-09   8.50107e-08 DIIS
   @DF-RHF iter   9:   -76.06044155012781   -6.63647e-11   2.08806e-08 DIIS
   @DF-RHF iter  10:   -76.06044155013167   -3.86535e-12   3.04819e-09 DIIS
  Energy and wave function converged.


  ==> Post-Iterations <==

    Orbital Energies [Eh]
    ---------------------

    Doubly Occupied:                                                      

       1A    -20.567646     2A     -1.352547     3A     -0.716384  
       4A     -0.584765     5A     -0.510214  

    Virtual:                                                              

       6A      0.029402     7A      0.047683     8A      0.135926  
       9A      0.158643    10A      0.175158    11A      0.183003  
      12A      0.227381    13A      0.244973    14A      0.265317  
      15A      0.300398    16A      0.310382    17A      0.365811  
      18A      0.437748    19A      0.466413    20A      0.599483  
      21A      0.658384    22A      0.708283    23A      0.722443  
      24A      0.731687    25A      0.830898    26A      0.846335  
      27A      0.891779    28A      0.912914    29A      0.918525  
      30A      0.922530    31A      0.930756    32A      0.962258  
      33A      1.021679    34A      1.043824    35A      1.082969  
      36A      1.109115    37A      1.176461    38A      1.182090  
      39A      1.260329    40A      1.510938    41A      1.536867  
      42A      1.584526    43A      1.804051    44A      1.819521  
      45A      1.987148    46A      2.118694    47A      2.262942  
      48A      2.316478    49A      2.326213    50A      2.418743  
      51A      2.420920    52A      2.442991    53A      2.479242  
      54A      2.676875    55A      2.698168    56A      2.772168  
      57A      2.818596    58A      2.885081    59A      3.654448  
      60A      3.745573    61A      4.018672    62A      4.085282  
      63A      4.168759    64A      4.248920    65A      4.291801  
      66A      4.376277    67A      4.378359    68A      4.406346  
      69A      4.517447    70A      4.725997    71A      4.845867  
      72A      5.148547    73A      5.154645    74A      5.256654  
      75A      5.329998    76A      5.526055    77A      5.669349  
      78A      6.178738    79A      6.517387    80A      6.715047  
      81A      6.902606    82A      7.138288    83A      7.259631  
      84A      7.311987    85A      7.319007    86A      7.333161  
      87A      7.362437    88A      7.540793    89A      7.908122  
      90A      7.928459    91A      8.812226    92A     15.766095  

    Final Occupation by Irrep:
              A 
    DOCC [     5 ]

  @DF-RHF Final Energy:   -76.06044155013167

   => Energetics <=

    Nuclear Repulsion Energy =              9.1735657005154820
    One-Electron Energy =                -123.0049021656329273
    Two-Electron Energy =                  37.7708949149857744
    Total Energy =                        -76.0604415501316709

Computation Completed


Properties will be evaluated at   0.000000,   0.000000,   0.000000 [a0]

Properties computed using the SCF density matrix

  Nuclear Dipole Moment: [e a0]
     X:   -22.6368      Y:   -58.5984      Z:   -34.3091

  Electronic Dipole Moment: [e a0]
     X:    22.1265      Y:    58.1275      Z:    33.9504

  Dipole Moment: [e a0]
     X:    -0.5103      Y:    -0.4709      Z:    -0.3587     Total:     0.7815

  Dipole Moment: [D]
     X:    -1.2971      Y:    -1.1968      Z:    -0.9117     Total:     1.9865


*** tstop() called on node43.bme.utexas.edu at Sat Apr 11 17:59:29 2020
Module time:
	user time   =       5.22 seconds =       0.09 minutes
	system time =       0.30 seconds =       0.01 minutes
	total time  =          1 seconds =       0.02 minutes
Total time:
	user time   =       5.22 seconds =       0.09 minutes
	system time =       0.30 seconds =       0.01 minutes
	total time  =          1 seconds =       0.02 minutes

*** tstart() called on node43.bme.utexas.edu
*** at Sat Apr 11 17:59:29 2020


  //>>>>>>>>>>>>>>>>>>>>>>>>>>>>>>>>>>>//
  //               DFMP2               //
  //<<<<<<<<<<<<<<<<<<<<<<<<<<<<<<<<<<<//

   => Loading Basis Set <=

    Name: (AUG-CC-PVTZ AUX)
    Role: RIFIT
    Keyword: DF_BASIS_MP2
    atoms 1   entry O          line   264 file /home/liuchw/anaconda3/envs/psi4env/share/psi4/basis/aug-cc-pvtz-ri.gbs 
    atoms 2-3 entry H          line    30 file /home/liuchw/anaconda3/envs/psi4env/share/psi4/basis/aug-cc-pvtz-ri.gbs 

	 --------------------------------------------------------
	                          DF-MP2                         
	      2nd-Order Density-Fitted Moller-Plesset Theory     
	              RMP2 Wavefunction,   6 Threads             
	                                                         
	        Rob Parrish, Justin Turney, Andy Simmonett,      
	           Ed Hohenstein, and C. David Sherrill          
	 --------------------------------------------------------

   => Auxiliary Basis Set <=

  Basis Set: (AUG-CC-PVTZ AUX)
    Blend: AUG-CC-PVTZ-RI
    Number of shells: 56
    Number of basis function: 198
    Number of Cartesian functions: 246
    Spherical Harmonics?: true
    Max angular momentum: 4

	 --------------------------------------------------------
	                 NBF =    92, NAUX =   198
	 --------------------------------------------------------
	   CLASS    FOCC     OCC    AOCC    AVIR     VIR    FVIR
	   PAIRS       0       5       5      87      87       0
	 --------------------------------------------------------

	-----------------------------------------------------------
	 ==================> DF-MP2 Energies <==================== 
	-----------------------------------------------------------
	 Reference Energy          =     -76.0604415501316709 [Eh]
	 Singles Energy            =      -0.0000000000000000 [Eh]
	 Same-Spin Energy          =      -0.0683758638927801 [Eh]
	 Opposite-Spin Energy      =      -0.2152729785883123 [Eh]
	 Correlation Energy        =      -0.2836488424810923 [Eh]
	 Total Energy              =     -76.3440903926127703 [Eh]
	-----------------------------------------------------------
	 ================> DF-SCS-MP2 Energies <================== 
	-----------------------------------------------------------
	 SCS Same-Spin Scale       =       0.3333333333333333 [-]
	 SCS Opposite-Spin Scale   =       1.2000000000000000 [-]
	 SCS Same-Spin Energy      =      -0.0227919546309267 [Eh]
	 SCS Opposite-Spin Energy  =      -0.2583275743059747 [Eh]
	 SCS Correlation Energy    =      -0.2811195289369014 [Eh]
	 SCS Total Energy          =     -76.3415610790685690 [Eh]
	-----------------------------------------------------------


*** tstop() called on node43.bme.utexas.edu at Sat Apr 11 17:59:29 2020
Module time:
	user time   =       2.37 seconds =       0.04 minutes
	system time =       0.15 seconds =       0.00 minutes
	total time  =          0 seconds =       0.00 minutes
Total time:
	user time   =       7.60 seconds =       0.13 minutes
	system time =       0.45 seconds =       0.01 minutes
	total time  =          1 seconds =       0.02 minutes

  //>>>>>>>>>>>>>>>>>>>>>>>>>>>>>>>>>>>>//
  // CBS Computation: MP2 / AUG-CC-PVQZ //
  //<<<<<<<<<<<<<<<<<<<<<<<<<<<<<<<<<<<<//


Scratch directory: /scratch//

*** tstart() called on node43.bme.utexas.edu
*** at Sat Apr 11 17:59:29 2020

   => Loading Basis Set <=

    Name: AUG-CC-PVQZ
    Role: ORBITAL
    Keyword: BASIS
    atoms 1   entry O          line   423 file /home/liuchw/anaconda3/envs/psi4env/share/psi4/basis/aug-cc-pvqz.gbs 
    atoms 2-3 entry H          line    40 file /home/liuchw/anaconda3/envs/psi4env/share/psi4/basis/aug-cc-pvqz.gbs 


         ---------------------------------------------------------
                                   SCF
               by Justin Turney, Rob Parrish, Andy Simmonett
                          and Daniel G. A. Smith
                              RHF Reference
                        6 Threads,  38146 MiB Core
         ---------------------------------------------------------

  ==> Geometry <==

    Molecular point group: c1
    Full point group: C1

    Geometry (in Angstrom), charge = 0, multiplicity = 1:

       Center              X                  Y                   Z               Mass       
    ------------   -----------------  -----------------  -----------------  -----------------
         O           -1.121082175022    -3.030021660129    -1.761573644291    15.994914619570
         H           -1.672883175022    -3.708625660129    -1.367130644291     1.007825032230
         H           -1.337356175022    -3.060115660129    -2.695861644291     1.007825032230

  Running in c1 symmetry.

  Rotational constants: A =     13.42192  B =      0.06675  C =      0.06647 [cm^-1]
  Rotational constants: A = 402378.92165  B =   2001.03299  C =   1992.66434 [MHz]
  Nuclear repulsion =    9.173565700515482

  Charge       = 0
  Multiplicity = 1
  Electrons    = 10
  Nalpha       = 5
  Nbeta        = 5

  ==> Algorithm <==

  SCF Algorithm Type is DF.
  DIIS enabled.
  MOM disabled.
  Fractional occupation disabled.
  Guess Type is SAD.
  Energy threshold   = 1.00e-07
  Density threshold  = 1.00e-08
  Integral threshold = 0.00e+00

  ==> Primary Basis <==

  Basis Set: AUG-CC-PVQZ
    Blend: AUG-CC-PVQZ
    Number of shells: 48
    Number of basis function: 172
    Number of Cartesian functions: 215
    Spherical Harmonics?: true
    Max angular momentum: 4

   => Loading Basis Set <=

    Name: (AUG-CC-PVQZ AUX)
    Role: JKFIT
    Keyword: DF_BASIS_SCF
    atoms 1   entry O          line   318 file /home/liuchw/anaconda3/envs/psi4env/share/psi4/basis/aug-cc-pvqz-jkfit.gbs 
    atoms 2-3 entry H          line    70 file /home/liuchw/anaconda3/envs/psi4env/share/psi4/basis/aug-cc-pvqz-jkfit.gbs 

  ==> Pre-Iterations <==

   -------------------------------------------------------
    Irrep   Nso     Nmo     Nalpha   Nbeta   Ndocc  Nsocc
   -------------------------------------------------------
     A        172     172       0       0       0       0
   -------------------------------------------------------
    Total     172     172       5       5       5       0
   -------------------------------------------------------

  ==> Integral Setup <==

  DFHelper Memory: AOs need 0.074 GiB; user supplied 27.940 GiB. Using in-core AOs.

  ==> MemDFJK: Density-Fitted J/K Matrices <==

    J tasked:                   Yes
    K tasked:                   Yes
    wK tasked:                   No
    OpenMP threads:               6
    Memory [MiB]:             28610
    Algorithm:                 Core
    Schwarz Cutoff:           1E-12
    Mask sparsity (%):       0.0000
    Fitting Condition:        1E-10

   => Auxiliary Basis Set <=

  Basis Set: (AUG-CC-PVQZ AUX)
    Blend: AUG-CC-PVQZ-JKFIT
    Number of shells: 70
    Number of basis function: 294
    Number of Cartesian functions: 400
    Spherical Harmonics?: true
    Max angular momentum: 5

  Minimum eigenvalue in the overlap matrix is 8.7017716754E-05.
  Using Symmetric Orthogonalization.

  SCF Guess: Superposition of Atomic Densities via on-the-fly atomic UHF.

  ==> Iterations <==

                           Total Energy        Delta E     RMS |[F,P]|

   @DF-RHF iter SAD:   -75.48076720361108   -7.54808e+01   0.00000e+00 
   @DF-RHF iter   1:   -75.98117636706013   -5.00409e-01   2.72955e-03 DIIS
   @DF-RHF iter   2:   -76.03377129487609   -5.25949e-02   1.86468e-03 DIIS
   @DF-RHF iter   3:   -76.06540526894497   -3.16340e-02   1.27063e-04 DIIS
   @DF-RHF iter   4:   -76.06579623183154   -3.90963e-04   3.10896e-05 DIIS
   @DF-RHF iter   5:   -76.06582137879549   -2.51470e-05   7.02597e-06 DIIS
   @DF-RHF iter   6:   -76.06582344154532   -2.06275e-06   1.58219e-06 DIIS
   @DF-RHF iter   7:   -76.06582355771499   -1.16170e-07   2.96017e-07 DIIS
   @DF-RHF iter   8:   -76.06582356129316   -3.57817e-09   4.76602e-08 DIIS
   @DF-RHF iter   9:   -76.06582356136840   -7.52465e-11   1.14333e-08 DIIS
   @DF-RHF iter  10:   -76.06582356137227   -3.86535e-12   1.70026e-09 DIIS
  Energy and wave function converged.


  ==> Post-Iterations <==

    Orbital Energies [Eh]
    ---------------------

    Doubly Occupied:                                                      

       1A    -20.565194     2A     -1.351819     3A     -0.716350  
       4A     -0.584814     5A     -0.510345  

    Virtual:                                                              

       6A      0.026916     7A      0.043081     8A      0.114167  
       9A      0.133377    10A      0.151067    11A      0.158607  
      12A      0.185089    13A      0.197101    14A      0.209242  
      15A      0.237813    16A      0.257230    17A      0.291526  
      18A      0.357841    19A      0.390182    20A      0.469979  
      21A      0.508609    22A      0.542210    23A      0.547462  
      24A      0.556086    25A      0.614221    26A      0.632585  
      27A      0.647473    28A      0.663328    29A      0.665764  
      30A      0.685357    31A      0.706301    32A      0.718715  
      33A      0.769762    34A      0.789282    35A      0.802516  
      36A      0.803759    37A      0.843476    38A      0.854299  
      39A      0.967867    40A      1.125362    41A      1.136308  
      42A      1.210169    43A      1.331971    44A      1.437899  
      45A      1.482263    46A      1.509093    47A      1.514516  
      48A      1.526164    49A      1.554257    50A      1.590713  
      51A      1.620766    52A      1.638047    53A      1.663580  
      54A      1.663687    55A      1.688256    56A      1.702837  
      57A      1.734314    58A      1.753466    59A      1.768206  
      60A      1.778107    61A      1.841468    62A      1.864414  
      63A      1.892886    64A      1.913953    65A      1.979304  
      66A      2.009233    67A      2.033201    68A      2.037044  
      69A      2.099505    70A      2.207597    71A      2.218265  
      72A      2.313257    73A      2.443873    74A      2.629582  
      75A      2.633988    76A      2.887839    77A      2.960354  
      78A      2.997308    79A      3.038781    80A      3.057147  
      81A      3.086329    82A      3.274177    83A      3.297273  
      84A      3.305735    85A      3.495122    86A      3.589036  
      87A      3.645305    88A      3.688679    89A      3.723055  
      90A      3.772413    91A      3.922913    92A      4.077361  
      93A      4.166416    94A      4.167131    95A      4.177647  
      96A      4.179221    97A      4.235011    98A      4.331716  
      99A      4.431260   100A      4.579077   101A      4.721820  
     102A      4.747836   103A      4.784588   104A      4.787523  
     105A      4.807039   106A      4.878485   107A      4.996660  
     108A      5.241562   109A      5.314539   110A      5.526521  
     111A      5.531546   112A      5.862783   113A      5.887959  
     114A      6.074570   115A      6.235212   116A      6.830263  
     117A      6.881127   118A      6.882998   119A      6.915864  
     120A      7.728052   121A      7.784553   122A      7.789375  
     123A      7.825629   124A      7.839905   125A      7.904109  
     126A      7.925604   127A      8.022011   128A      8.190555  
     129A      8.205878   130A      8.532588   131A      8.634064  
     132A      8.643137   133A      8.702885   134A      8.790424  
     135A      8.849951   136A      8.985690   137A      9.044083  
     138A      9.211932   139A      9.657803   140A      9.898024  
     141A      9.914359   142A      9.946349   143A      9.994848  
     144A     10.342680   145A     10.458340   146A     10.672911  
     147A     11.014795   148A     11.076493   149A     11.083576  
     150A     11.268096   151A     11.318480   152A     11.417454  
     153A     11.713433   154A     11.796074   155A     11.831799  
     156A     11.992766   157A     12.200406   158A     12.209177  
     159A     12.616230   160A     12.737277   161A     12.837348  
     162A     12.905682   163A     13.183096   164A     14.004265  
     165A     14.019343   166A     14.506313   167A     14.813098  
     168A     14.899131   169A     15.262351   170A     16.853528  
     171A     17.289993   172A     45.502370  

    Final Occupation by Irrep:
              A 
    DOCC [     5 ]

  @DF-RHF Final Energy:   -76.06582356137227

   => Energetics <=

    Nuclear Repulsion Energy =              9.1735657005154820
    One-Electron Energy =                -123.0217359301960869
    Two-Electron Energy =                  37.7823466683083353
    Total Energy =                        -76.0658235613722695

Computation Completed


Properties will be evaluated at   0.000000,   0.000000,   0.000000 [a0]

Properties computed using the SCF density matrix

  Nuclear Dipole Moment: [e a0]
     X:   -22.6368      Y:   -58.5984      Z:   -34.3091

  Electronic Dipole Moment: [e a0]
     X:    22.1271      Y:    58.1280      Z:    33.9508

  Dipole Moment: [e a0]
     X:    -0.5098      Y:    -0.4704      Z:    -0.3583     Total:     0.7807

  Dipole Moment: [D]
     X:    -1.2957      Y:    -1.1955      Z:    -0.9107     Total:     1.9843


*** tstop() called on node43.bme.utexas.edu at Sat Apr 11 17:59:31 2020
Module time:
	user time   =       8.44 seconds =       0.14 minutes
	system time =       0.46 seconds =       0.01 minutes
	total time  =          2 seconds =       0.03 minutes
Total time:
	user time   =      16.07 seconds =       0.27 minutes
	system time =       0.91 seconds =       0.02 minutes
	total time  =          3 seconds =       0.05 minutes

*** tstart() called on node43.bme.utexas.edu
*** at Sat Apr 11 17:59:31 2020


  //>>>>>>>>>>>>>>>>>>>>>>>>>>>>>>>>>>>//
  //               DFMP2               //
  //<<<<<<<<<<<<<<<<<<<<<<<<<<<<<<<<<<<//

   => Loading Basis Set <=

    Name: (AUG-CC-PVQZ AUX)
    Role: RIFIT
    Keyword: DF_BASIS_MP2
    atoms 1   entry O          line   332 file /home/liuchw/anaconda3/envs/psi4env/share/psi4/basis/aug-cc-pvqz-ri.gbs 
    atoms 2-3 entry H          line    30 file /home/liuchw/anaconda3/envs/psi4env/share/psi4/basis/aug-cc-pvqz-ri.gbs 

	 --------------------------------------------------------
	                          DF-MP2                         
	      2nd-Order Density-Fitted Moller-Plesset Theory     
	              RMP2 Wavefunction,   6 Threads             
	                                                         
	        Rob Parrish, Justin Turney, Andy Simmonett,      
	           Ed Hohenstein, and C. David Sherrill          
	 --------------------------------------------------------

   => Auxiliary Basis Set <=

  Basis Set: (AUG-CC-PVQZ AUX)
    Blend: AUG-CC-PVQZ-RI
    Number of shells: 76
    Number of basis function: 328
    Number of Cartesian functions: 447
    Spherical Harmonics?: true
    Max angular momentum: 5

	 --------------------------------------------------------
	                 NBF =   172, NAUX =   328
	 --------------------------------------------------------
	   CLASS    FOCC     OCC    AOCC    AVIR     VIR    FVIR
	   PAIRS       0       5       5     167     167       0
	 --------------------------------------------------------

	-----------------------------------------------------------
	 ==================> DF-MP2 Energies <==================== 
	-----------------------------------------------------------
	 Reference Energy          =     -76.0658235613722695 [Eh]
	 Singles Energy            =      -0.0000000000000000 [Eh]
	 Same-Spin Energy          =      -0.0727042977387237 [Eh]
	 Opposite-Spin Energy      =      -0.2442131454884516 [Eh]
	 Correlation Energy        =      -0.3169174432271753 [Eh]
	 Total Energy              =     -76.3827410045994384 [Eh]
	-----------------------------------------------------------
	 ================> DF-SCS-MP2 Energies <================== 
	-----------------------------------------------------------
	 SCS Same-Spin Scale       =       0.3333333333333333 [-]
	 SCS Opposite-Spin Scale   =       1.2000000000000000 [-]
	 SCS Same-Spin Energy      =      -0.0242347659129079 [Eh]
	 SCS Opposite-Spin Energy  =      -0.2930557745861419 [Eh]
	 SCS Correlation Energy    =      -0.3172905404990498 [Eh]
	 SCS Total Energy          =     -76.3831141018713140 [Eh]
	-----------------------------------------------------------


*** tstop() called on node43.bme.utexas.edu at Sat Apr 11 17:59:32 2020
Module time:
	user time   =       3.29 seconds =       0.05 minutes
	system time =       0.22 seconds =       0.00 minutes
	total time  =          1 seconds =       0.02 minutes
Total time:
	user time   =      19.36 seconds =       0.32 minutes
	system time =       1.13 seconds =       0.02 minutes
	total time  =          4 seconds =       0.07 minutes

  //>>>>>>>>>>>>>>>>>>>>>>>>>>>>>>>>>>>//
  //  CBS Results: mp2/aug-cc-pv[tq]z  //
  //<<<<<<<<<<<<<<<<<<<<<<<<<<<<<<<<<<<//


   ==> HF <==

   HI-zeta (4) Energy:               -76.065823561372


   ==> Helgaker 2-point correlated extrapolation for method: MP2 <==

   LO-zeta (3) Energy:               -76.344090392613
   HI-zeta (4) Energy:               -76.382741004599
   Alpha (exponent) Value:             3.000000000000
   Extrapolated Energy:              -76.410945505238

   @Extrapolated MP2/(T,Q):          -76.410945505238



   ==> Helgaker 2-point correlated extrapolation for method: HF <==

   LO-zeta (3) Energy:               -76.060441550132
   HI-zeta (4) Energy:               -76.065823561372
   Alpha (exponent) Value:             3.000000000000
   Extrapolated Energy:              -76.069750974980

   @Extrapolated HF/(T,Q):           -76.069750974980


   ==> Components <==

  ---------------------------------------------------------------------------------------------------------
                          Method / Basis                      Rqd      Energy [Eh]   Variable
  ---------------------------------------------------------------------------------------------------------
                              hf / aug-cc-pvtz                  *     -76.06044155   HF TOTAL ENERGY
                             mp2 / aug-cc-pvtz                  *     -76.34409039   MP2 TOTAL ENERGY
                              hf / aug-cc-pvqz                  *     -76.06582356   HF TOTAL ENERGY
                             mp2 / aug-cc-pvqz                  *     -76.38274100   MP2 TOTAL ENERGY
  ---------------------------------------------------------------------------------------------------------

   ==> Stages <==

  ---------------------------------------------------------------------------------------------------------
      Stage               Method / Basis                       Wt      Energy [Eh]   Scheme
  ---------------------------------------------------------------------------------------------------------
        scf                   hf / aug-cc-pvqz                  1     -76.06582356   xtpl_highest_1
       corl                  mp2 / aug-cc-pv[tq]z               1     -76.41094551   corl_xtpl_helgaker_2
       corl                   hf / aug-cc-pv[tq]z              -1     -76.06975097   corl_xtpl_helgaker_2
  ---------------------------------------------------------------------------------------------------------

   ==> CBS <==

  ---------------------------------------------------------------------------------------------------------
      Stage               Method / Basis                               Energy [Eh]   Scheme
  ---------------------------------------------------------------------------------------------------------
        scf                   hf / aug-cc-pvqz                        -76.06582356   xtpl_highest_1
       corl                  mp2 / aug-cc-pv[tq]z                      -0.34119453   corl_xtpl_helgaker_2
      total                  CBS                                      -76.40701809   
  ---------------------------------------------------------------------------------------------------------
   => Loading Basis Set <=

    Name: DEF2-SVP
    Role: ORBITAL
    Keyword: BASIS
    atoms 1   entry O          line   130 file /home/liuchw/anaconda3/envs/psi4env/share/psi4/basis/def2-svp.gbs 
    atoms 2-3 entry H          line    15 file /home/liuchw/anaconda3/envs/psi4env/share/psi4/basis/def2-svp.gbs 


       N-Body: Complex Energy (fragments = (2,), basis = (2,):   -76.40701809163036)

       N-Body: Computing complex (2/4) with fragments (2,) in the basis of fragments (1, 2).


Scratch directory: /scratch//

  //>>>>>>>>>>>>>>>>>>>>>>>>>>>>>>>>>>>//
  //   CBS Setup: mp2/aug-cc-pv[tq]z   //
  //<<<<<<<<<<<<<<<<<<<<<<<<<<<<<<<<<<<//

    Naive listing of computations required.
             hf / aug-cc-pvqz              for  HF TOTAL ENERGY
            mp2 / aug-cc-pvtz              for  MP2 TOTAL ENERGY
            mp2 / aug-cc-pvqz              for  MP2 TOTAL ENERGY
             hf / aug-cc-pvtz              for  HF TOTAL ENERGY
             hf / aug-cc-pvqz              for  HF TOTAL ENERGY

    Enlightened listing of computations required.
            mp2 / aug-cc-pvtz              for  MP2 TOTAL ENERGY
            mp2 / aug-cc-pvqz              for  MP2 TOTAL ENERGY

    Full listing of computations to be obtained (required and bonus).
             hf / aug-cc-pvtz              for  HF TOTAL ENERGY
            mp2 / aug-cc-pvtz              for  MP2 TOTAL ENERGY
             hf / aug-cc-pvqz              for  HF TOTAL ENERGY
            mp2 / aug-cc-pvqz              for  MP2 TOTAL ENERGY

  //>>>>>>>>>>>>>>>>>>>>>>>>>>>>>>>>>>>>//
  // CBS Computation: MP2 / AUG-CC-PVTZ //
  //<<<<<<<<<<<<<<<<<<<<<<<<<<<<<<<<<<<<//


Scratch directory: /scratch//

*** tstart() called on node43.bme.utexas.edu
*** at Sat Apr 11 17:59:33 2020

   => Loading Basis Set <=

    Name: AUG-CC-PVTZ
    Role: ORBITAL
    Keyword: BASIS
    atoms 1            entry N          line   285 file /home/liuchw/anaconda3/envs/psi4env/share/psi4/basis/aug-cc-pvtz.gbs 
    atoms 2-9          entry C          line   239 file /home/liuchw/anaconda3/envs/psi4env/share/psi4/basis/aug-cc-pvtz.gbs 
    atoms 10-16, 18-19 entry H          line    40 file /home/liuchw/anaconda3/envs/psi4env/share/psi4/basis/aug-cc-pvtz.gbs 
    atoms 17           entry O          line   331 file /home/liuchw/anaconda3/envs/psi4env/share/psi4/basis/aug-cc-pvtz.gbs 


         ---------------------------------------------------------
                                   SCF
               by Justin Turney, Rob Parrish, Andy Simmonett
                          and Daniel G. A. Smith
                              RHF Reference
                        6 Threads,  38146 MiB Core
         ---------------------------------------------------------

  ==> Geometry <==

    Molecular point group: c1
    Full point group: C1

    Geometry (in Angstrom), charge = 0, multiplicity = 1:

       Center              X                  Y                   Z               Mass       
    ------------   -----------------  -----------------  -----------------  -----------------
      Gh(N)           0.296832824978    -1.235964660129    -0.528051644291    14.003074004430
      Gh(C)           0.672065824978     1.918330339871     1.105684355709    12.000000000000
      Gh(C)          -0.603294175022     2.454745339871     1.045357355709    12.000000000000
      Gh(C)          -1.664324175022     1.754532339871     0.435798355709    12.000000000000
      Gh(C)          -1.469456175022     0.502367339871    -0.125928644291    12.000000000000
      Gh(C)          -0.181869175022    -0.038667660129    -0.064768644291    12.000000000000
      Gh(C)           0.903546824978     0.650403339871     0.545511355709    12.000000000000
      Gh(C)           2.047131824978    -0.192825660129     0.422867355709    12.000000000000
      Gh(C)           1.634284824978    -1.329075660129    -0.235760644291    12.000000000000
      Gh(H)           1.477852824978     2.466479339871     1.576599355709     1.007825032230
      Gh(H)          -0.793801175022     3.429819339871     1.472992355709     1.007825032230
      Gh(H)          -2.648123175022     2.203052339871     0.406210355709     1.007825032230
      Gh(H)          -2.283499175022    -0.035565660129    -0.593940644291     1.007825032230
      Gh(H)           3.046501824978     0.004392339871     0.771446355709     1.007825032230
      Gh(H)          -0.247742175022    -1.939067660129    -1.008639644291     1.007825032230
      Gh(H)           2.194782824978    -2.203594660129    -0.520908644291     1.007825032230
         O           -1.121082175022    -3.030021660129    -1.761573644291    15.994914619570
         H           -1.672883175022    -3.708625660129    -1.367130644291     1.007825032230
         H           -1.337356175022    -3.060115660129    -2.695861644291     1.007825032230

  Running in c1 symmetry.

  Rotational constants: A =      0.07358  B =      0.03360  C =      0.02314 [cm^-1]
  Rotational constants: A =   2205.81456  B =   1007.26729  C =    693.69852 [MHz]
  Nuclear repulsion =    9.173565700515482

  Charge       = 0
  Multiplicity = 1
  Electrons    = 10
  Nalpha       = 5
  Nbeta        = 5

  ==> Algorithm <==

  SCF Algorithm Type is DF.
  DIIS enabled.
  MOM disabled.
  Fractional occupation disabled.
  Guess Type is SAD.
  Energy threshold   = 1.00e-07
  Density threshold  = 1.00e-08
  Integral threshold = 0.00e+00

  ==> Primary Basis <==

  Basis Set: AUG-CC-PVTZ
    Blend: AUG-CC-PVTZ
    Number of shells: 221
    Number of basis function: 667
    Number of Cartesian functions: 775
    Spherical Harmonics?: true
    Max angular momentum: 3

   => Loading Basis Set <=

    Name: (AUG-CC-PVTZ AUX)
    Role: JKFIT
    Keyword: DF_BASIS_SCF
    atoms 1            entry N          line   224 file /home/liuchw/anaconda3/envs/psi4env/share/psi4/basis/aug-cc-pvtz-jkfit.gbs 
    atoms 2-9          entry C          line   162 file /home/liuchw/anaconda3/envs/psi4env/share/psi4/basis/aug-cc-pvtz-jkfit.gbs 
    atoms 10-16, 18-19 entry H          line    70 file /home/liuchw/anaconda3/envs/psi4env/share/psi4/basis/aug-cc-pvtz-jkfit.gbs 
    atoms 17           entry O          line   286 file /home/liuchw/anaconda3/envs/psi4env/share/psi4/basis/aug-cc-pvtz-jkfit.gbs 

  ==> Pre-Iterations <==

   -------------------------------------------------------
    Irrep   Nso     Nmo     Nalpha   Nbeta   Ndocc  Nsocc
   -------------------------------------------------------
     A        667     667       0       0       0       0
   -------------------------------------------------------
    Total     667     667       5       5       5       0
   -------------------------------------------------------

  ==> Integral Setup <==

  DFHelper Memory: AOs need 4.620 GiB; user supplied 27.940 GiB. Using in-core AOs.

  ==> MemDFJK: Density-Fitted J/K Matrices <==

    J tasked:                   Yes
    K tasked:                   Yes
    wK tasked:                   No
    OpenMP threads:               6
    Memory [MiB]:             28610
    Algorithm:                 Core
    Schwarz Cutoff:           1E-12
    Mask sparsity (%):       6.7356
    Fitting Condition:        1E-10

   => Auxiliary Basis Set <=

  Basis Set: (AUG-CC-PVTZ AUX)
    Blend: AUG-CC-PVTZ-JKFIT
    Number of shells: 426
    Number of basis function: 1454
    Number of Cartesian functions: 1805
    Spherical Harmonics?: true
    Max angular momentum: 4

  Minimum eigenvalue in the overlap matrix is 5.4734710246E-07.
  Using Symmetric Orthogonalization.

  SCF Guess: Superposition of Atomic Densities via on-the-fly atomic UHF.

  ==> Iterations <==

                           Total Energy        Delta E     RMS |[F,P]|

   @DF-RHF iter SAD:   -75.47562352050436   -7.54756e+01   0.00000e+00 
   @DF-RHF iter   1:   -75.97621963445279   -5.00596e-01   7.02469e-04 DIIS
   @DF-RHF iter   2:   -76.02873343901447   -5.25138e-02   4.78791e-04 DIIS
   @DF-RHF iter   3:   -76.06016445579559   -3.14310e-02   3.25314e-05 DIIS
   @DF-RHF iter   4:   -76.06055354320912   -3.89087e-04   7.79516e-06 DIIS
   @DF-RHF iter   5:   -76.06057788604083   -2.43428e-05   1.76727e-06 DIIS
   @DF-RHF iter   6:   -76.06057987331016   -1.98727e-06   3.87676e-07 DIIS
   @DF-RHF iter   7:   -76.06057997871358   -1.05403e-07   7.04125e-08 DIIS
   @DF-RHF iter   8:   -76.06057998178382   -3.07024e-09   1.18178e-08 DIIS
   @DF-RHF iter   9:   -76.06057998185028   -6.64642e-11   2.89525e-09 DIIS
  Energy and wave function converged.


  ==> Post-Iterations <==

    Orbital Energies [Eh]
    ---------------------

    Doubly Occupied:                                                      

       1A    -20.567430     2A     -1.352416     3A     -0.716257  
       4A     -0.584683     5A     -0.510152  

    Virtual:                                                              

       6A      0.019056     7A      0.026715     8A      0.030865  
       9A      0.042467    10A      0.045808    11A      0.046207  
      12A      0.055770    13A      0.065678    14A      0.069275  
      15A      0.070721    16A      0.081364    17A      0.087526  
      18A      0.091166    19A      0.098744    20A      0.104942  
      21A      0.108815    22A      0.117697    23A      0.120984  
      24A      0.122870    25A      0.123546    26A      0.130512  
      27A      0.132263    28A      0.134620    29A      0.136034  
      30A      0.152398    31A      0.155185    32A      0.157222  
      33A      0.159801    34A      0.165693    35A      0.169264  
      36A      0.172610    37A      0.176141    38A      0.184582  
      39A      0.186086    40A      0.186416    41A      0.188069  
      42A      0.201656    43A      0.205367    44A      0.216239  
      45A      0.217943    46A      0.226498    47A      0.232562  
      48A      0.240382    49A      0.250209    50A      0.255490  
      51A      0.266245    52A      0.269574    53A      0.277691  
      54A      0.281491    55A      0.284825    56A      0.286703  
      57A      0.294889    58A      0.295460    59A      0.309275  
      60A      0.317317    61A      0.318393    62A      0.324619  
      63A      0.327070    64A      0.329646    65A      0.333287  
      66A      0.336892    67A      0.344026    68A      0.350450  
      69A      0.360686    70A      0.369275    71A      0.372026  
      72A      0.375234    73A      0.376760    74A      0.381095  
      75A      0.384460    76A      0.386226    77A      0.389367  
      78A      0.390825    79A      0.397825    80A      0.404625  
      81A      0.408000    82A      0.409248    83A      0.410746  
      84A      0.417946    85A      0.420838    86A      0.425816  
      87A      0.440423    88A      0.445692    89A      0.451877  
      90A      0.454370    91A      0.454406    92A      0.461076  
      93A      0.464930    94A      0.473260    95A      0.474564  
      96A      0.480730    97A      0.494782    98A      0.495930  
      99A      0.502828   100A      0.507356   101A      0.512156  
     102A      0.518518   103A      0.529380   104A      0.539780  
     105A      0.549896   106A      0.550244   107A      0.560175  
     108A      0.566950   109A      0.574838   110A      0.578592  
     111A      0.588491   112A      0.601691   113A      0.606214  
     114A      0.611822   115A      0.623442   116A      0.625406  
     117A      0.627956   118A      0.644717   119A      0.648261  
     120A      0.654212   121A      0.655331   122A      0.659719  
     123A      0.660653   124A      0.662964   125A      0.673398  
     126A      0.673541   127A      0.698737   128A      0.706501  
     129A      0.710324   130A      0.722094   131A      0.723438  
     132A      0.727627   133A      0.727766   134A      0.734217  
     135A      0.736177   136A      0.753361   137A      0.754246  
     138A      0.759229   139A      0.768981   140A      0.769315  
     141A      0.769391   142A      0.776197   143A      0.780882  
     144A      0.782105   145A      0.788227   146A      0.799826  
     147A      0.802917   148A      0.807730   149A      0.823089  
     150A      0.830148   151A      0.835340   152A      0.842594  
     153A      0.853220   154A      0.859736   155A      0.869280  
     156A      0.869661   157A      0.879150   158A      0.880944  
     159A      0.881842   160A      0.891879   161A      0.910404  
     162A      0.910430   163A      0.914727   164A      0.934363  
     165A      0.941345   166A      0.948438   167A      0.962575  
     168A      0.963336   169A      0.975346   170A      0.978630  
     171A      0.988089   172A      1.002391   173A      1.007216  
     174A      1.009887   175A      1.013844   176A      1.023132  
     177A      1.035078   178A      1.044599   179A      1.049287  
     180A      1.050222   181A      1.055362   182A      1.057043  
     183A      1.064323   184A      1.069645   185A      1.074613  
     186A      1.080375   187A      1.090940   188A      1.093719  
     189A      1.103866   190A      1.115200   191A      1.121462  
     192A      1.128525   193A      1.131947   194A      1.135753  
     195A      1.154323   196A      1.160382   197A      1.160407  
     198A      1.164932   199A      1.169412   200A      1.177175  
     201A      1.187081   202A      1.201560   203A      1.206526  
     204A      1.207579   205A      1.213710   206A      1.221302  
     207A      1.224104   208A      1.235134   209A      1.245812  
     210A      1.246283   211A      1.252044   212A      1.262684  
     213A      1.267478   214A      1.271888   215A      1.281628  
     216A      1.292067   217A      1.294702   218A      1.301580  
     219A      1.303730   220A      1.315409   221A      1.316978  
     222A      1.329094   223A      1.333055   224A      1.339848  
     225A      1.357277   226A      1.358978   227A      1.364062  
     228A      1.381541   229A      1.387324   230A      1.388339  
     231A      1.392647   232A      1.401722   233A      1.411052  
     234A      1.414302   235A      1.430113   236A      1.435066  
     237A      1.440703   238A      1.451384   239A      1.455070  
     240A      1.458191   241A      1.463280   242A      1.468953  
     243A      1.477482   244A      1.493264   245A      1.496516  
     246A      1.497408   247A      1.513102   248A      1.515500  
     249A      1.516444   250A      1.539223   251A      1.541214  
     252A      1.546131   253A      1.551053   254A      1.564191  
     255A      1.580517   256A      1.581115   257A      1.598002  
     258A      1.600527   259A      1.603353   260A      1.604722  
     261A      1.621335   262A      1.627234   263A      1.634812  
     264A      1.648095   265A      1.654549   266A      1.657298  
     267A      1.659267   268A      1.668789   269A      1.678915  
     270A      1.683364   271A      1.685835   272A      1.694290  
     273A      1.706726   274A      1.709454   275A      1.727694  
     276A      1.728383   277A      1.744625   278A      1.757965  
     279A      1.761955   280A      1.778832   281A      1.783278  
     282A      1.797412   283A      1.805563   284A      1.805810  
     285A      1.834698   286A      1.838501   287A      1.870979  
     288A      1.876155   289A      1.890993   290A      1.905744  
     291A      1.914906   292A      1.930382   293A      1.939377  
     294A      1.945970   295A      1.951424   296A      1.965660  
     297A      1.976637   298A      1.990473   299A      1.999938  
     300A      2.012710   301A      2.022397   302A      2.034822  
     303A      2.036486   304A      2.054104   305A      2.075533  
     306A      2.092136   307A      2.111312   308A      2.123702  
     309A      2.126531   310A      2.136770   311A      2.154633  
     312A      2.166793   313A      2.169415   314A      2.181306  
     315A      2.204019   316A      2.217755   317A      2.232610  
     318A      2.235861   319A      2.246857   320A      2.250011  
     321A      2.271112   322A      2.279306   323A      2.285876  
     324A      2.289432   325A      2.302321   326A      2.306493  
     327A      2.311418   328A      2.315503   329A      2.326029  
     330A      2.338057   331A      2.339805   332A      2.346870  
     333A      2.355042   334A      2.361761   335A      2.374406  
     336A      2.376506   337A      2.378772   338A      2.402478  
     339A      2.411190   340A      2.416441   341A      2.429036  
     342A      2.443305   343A      2.462094   344A      2.468950  
     345A      2.485738   346A      2.498860   347A      2.507868  
     348A      2.509670   349A      2.516736   350A      2.534080  
     351A      2.538999   352A      2.544491   353A      2.551780  
     354A      2.554893   355A      2.596529   356A      2.603488  
     357A      2.618426   358A      2.624944   359A      2.668715  
     360A      2.675821   361A      2.683189   362A      2.693703  
     363A      2.700903   364A      2.711964   365A      2.737928  
     366A      2.740330   367A      2.744879   368A      2.748598  
     369A      2.780012   370A      2.787126   371A      2.814081  
     372A      2.814214   373A      2.832280   374A      2.853945  
     375A      2.870358   376A      2.886465   377A      2.888162  
     378A      2.896621   379A      2.909402   380A      2.918507  
     381A      2.941525   382A      2.955548   383A      2.981608  
     384A      2.984803   385A      2.991692   386A      3.019174  
     387A      3.030825   388A      3.044217   389A      3.067402  
     390A      3.074135   391A      3.091321   392A      3.128701  
     393A      3.190736   394A      3.210215   395A      3.228321  
     396A      3.271747   397A      3.289832   398A      3.340261  
     399A      3.363770   400A      3.376348   401A      3.410136  
     402A      3.413344   403A      3.457735   404A      3.518343  
     405A      3.583065   406A      3.621759   407A      3.644522  
     408A      3.724578   409A      3.771127   410A      3.818506  
     411A      3.866930   412A      3.898339   413A      3.916752  
     414A      3.934614   415A      3.939341   416A      3.988741  
     417A      3.989877   418A      3.992432   419A      4.017032  
     420A      4.036108   421A      4.044022   422A      4.052098  
     423A      4.056224   424A      4.080751   425A      4.083116  
     426A      4.099221   427A      4.103808   428A      4.115106  
     429A      4.120581   430A      4.137349   431A      4.145096  
     432A      4.162448   433A      4.172104   434A      4.174187  
     435A      4.182179   436A      4.191609   437A      4.215947  
     438A      4.225655   439A      4.227049   440A      4.260814  
     441A      4.268520   442A      4.283561   443A      4.288400  
     444A      4.305329   445A      4.315289   446A      4.316792  
     447A      4.324701   448A      4.351953   449A      4.362563  
     450A      4.383325   451A      4.389957   452A      4.412249  
     453A      4.424977   454A      4.432692   455A      4.446734  
     456A      4.449369   457A      4.452324   458A      4.485706  
     459A      4.492541   460A      4.497750   461A      4.512386  
     462A      4.519417   463A      4.524245   464A      4.553479  
     465A      4.558878   466A      4.579166   467A      4.590380  
     468A      4.600235   469A      4.625410   470A      4.626828  
     471A      4.633285   472A      4.654842   473A      4.671240  
     474A      4.674095   475A      4.696367   476A      4.700460  
     477A      4.729033   478A      4.742309   479A      4.762319  
     480A      4.782713   481A      4.792151   482A      4.800149  
     483A      4.820378   484A      4.853179   485A      4.880531  
     486A      4.884362   487A      4.893874   488A      4.908749  
     489A      4.933371   490A      4.945135   491A      4.949523  
     492A      4.990670   493A      4.990945   494A      4.992156  
     495A      5.005556   496A      5.017462   497A      5.028069  
     498A      5.042772   499A      5.045537   500A      5.054579  
     501A      5.089050   502A      5.117528   503A      5.127343  
     504A      5.133874   505A      5.147103   506A      5.163575  
     507A      5.173594   508A      5.175033   509A      5.200515  
     510A      5.208261   511A      5.216602   512A      5.241384  
     513A      5.249292   514A      5.269057   515A      5.286142  
     516A      5.291988   517A      5.302492   518A      5.304048  
     519A      5.328160   520A      5.340927   521A      5.362731  
     522A      5.384218   523A      5.405274   524A      5.415531  
     525A      5.421482   526A      5.438436   527A      5.448022  
     528A      5.483200   529A      5.488479   530A      5.488535  
     531A      5.521701   532A      5.533326   533A      5.545619  
     534A      5.557152   535A      5.558175   536A      5.584253  
     537A      5.594786   538A      5.619458   539A      5.640120  
     540A      5.651664   541A      5.656060   542A      5.673961  
     543A      5.676391   544A      5.703935   545A      5.720988  
     546A      5.755541   547A      5.756493   548A      5.770820  
     549A      5.774479   550A      5.782800   551A      5.807884  
     552A      5.879635   553A      5.894481   554A      5.895605  
     555A      5.951613   556A      5.962960   557A      5.988084  
     558A      6.011556   559A      6.034825   560A      6.050936  
     561A      6.088566   562A      6.092660   563A      6.125609  
     564A      6.143159   565A      6.160771   566A      6.163211  
     567A      6.195070   568A      6.233481   569A      6.258966  
     570A      6.280465   571A      6.297001   572A      6.322652  
     573A      6.381003   574A      6.423893   575A      6.429899  
     576A      6.454470   577A      6.467533   578A      6.565947  
     579A      6.595625   580A      6.604252   581A      6.623824  
     582A      6.652473   583A      6.681086   584A      6.780825  
     585A      6.809012   586A      6.809347   587A      6.857997  
     588A      6.907550   589A      6.952922   590A      6.972984  
     591A      6.975172   592A      6.994619   593A      7.127827  
     594A      7.128936   595A      7.146684   596A      7.155031  
     597A      7.199348   598A      7.207722   599A      7.225252  
     600A      7.236768   601A      7.266066   602A      7.284375  
     603A      7.338354   604A      7.340050   605A      7.355458  
     606A      7.369783   607A      7.408255   608A      7.428746  
     609A      7.504446   610A      7.506397   611A      7.513423  
     612A      7.535368   613A      7.651335   614A      7.700654  
     615A      7.716781   616A      7.731664   617A      7.734042  
     618A      7.823228   619A      7.885186   620A      7.925499  
     621A      7.968507   622A      7.974673   623A      7.979079  
     624A      8.036661   625A      8.039051   626A      8.040324  
     627A      8.115271   628A      8.173119   629A      8.314553  
     630A      8.371490   631A      8.384997   632A      8.456470  
     633A      8.606189   634A      8.682783   635A      8.742388  
     636A      8.812519   637A      8.928442   638A      9.118957  
     639A      9.200957   640A      9.381891   641A      9.584363  
     642A      9.605297   643A      9.837737   644A      9.931433  
     645A     10.068226   646A     10.184914   647A     10.363592  
     648A     10.760141   649A     11.021450   650A     11.191420  
     651A     11.411487   652A     11.476875   653A     11.541013  
     654A     11.614258   655A     11.954988   656A     12.362930  
     657A     13.615486   658A     17.221192   659A     50.620516  
     660A     51.076802   661A     52.708115   662A     53.889798  
     663A     56.255673   664A     56.858735   665A     57.304817  
     666A     57.667242   667A     66.255080  

    Final Occupation by Irrep:
              A 
    DOCC [     5 ]

  @DF-RHF Final Energy:   -76.06057998185028

   => Energetics <=

    Nuclear Repulsion Energy =              9.1735657005154820
    One-Electron Energy =                -123.0064117119889460
    Two-Electron Energy =                  37.7722660296231965
    Total Energy =                        -76.0605799818502675

Computation Completed


Properties will be evaluated at   0.000000,   0.000000,   0.000000 [a0]

Properties computed using the SCF density matrix

  Nuclear Dipole Moment: [e a0]
     X:   -22.6368      Y:   -58.5984      Z:   -34.3091

  Electronic Dipole Moment: [e a0]
     X:    22.1273      Y:    58.1281      Z:    33.9509

  Dipole Moment: [e a0]
     X:    -0.5096      Y:    -0.4703      Z:    -0.3582     Total:     0.7805

  Dipole Moment: [D]
     X:    -1.2952      Y:    -1.1953      Z:    -0.9104     Total:     1.9837


*** tstop() called on node43.bme.utexas.edu at Sat Apr 11 17:59:56 2020
Module time:
	user time   =     123.39 seconds =       2.06 minutes
	system time =       2.49 seconds =       0.04 minutes
	total time  =         23 seconds =       0.38 minutes
Total time:
	user time   =     145.12 seconds =       2.42 minutes
	system time =       3.70 seconds =       0.06 minutes
	total time  =         28 seconds =       0.47 minutes

*** tstart() called on node43.bme.utexas.edu
*** at Sat Apr 11 17:59:56 2020


  //>>>>>>>>>>>>>>>>>>>>>>>>>>>>>>>>>>>//
  //               DFMP2               //
  //<<<<<<<<<<<<<<<<<<<<<<<<<<<<<<<<<<<//

   => Loading Basis Set <=

    Name: (AUG-CC-PVTZ AUX)
    Role: RIFIT
    Keyword: DF_BASIS_MP2
    atoms 1            entry N          line   206 file /home/liuchw/anaconda3/envs/psi4env/share/psi4/basis/aug-cc-pvtz-ri.gbs 
    atoms 2-9          entry C          line   148 file /home/liuchw/anaconda3/envs/psi4env/share/psi4/basis/aug-cc-pvtz-ri.gbs 
    atoms 10-16, 18-19 entry H          line    30 file /home/liuchw/anaconda3/envs/psi4env/share/psi4/basis/aug-cc-pvtz-ri.gbs 
    atoms 17           entry O          line   264 file /home/liuchw/anaconda3/envs/psi4env/share/psi4/basis/aug-cc-pvtz-ri.gbs 

	 --------------------------------------------------------
	                          DF-MP2                         
	      2nd-Order Density-Fitted Moller-Plesset Theory     
	              RMP2 Wavefunction,   6 Threads             
	                                                         
	        Rob Parrish, Justin Turney, Andy Simmonett,      
	           Ed Hohenstein, and C. David Sherrill          
	 --------------------------------------------------------

   => Auxiliary Basis Set <=

  Basis Set: (AUG-CC-PVTZ AUX)
    Blend: AUG-CC-PVTZ-RI
    Number of shells: 406
    Number of basis function: 1474
    Number of Cartesian functions: 1855
    Spherical Harmonics?: true
    Max angular momentum: 4

	 --------------------------------------------------------
	                 NBF =   667, NAUX =  1474
	 --------------------------------------------------------
	   CLASS    FOCC     OCC    AOCC    AVIR     VIR    FVIR
	   PAIRS       0       5       5     662     662       0
	 --------------------------------------------------------

	-----------------------------------------------------------
	 ==================> DF-MP2 Energies <==================== 
	-----------------------------------------------------------
	 Reference Energy          =     -76.0605799818502817 [Eh]
	 Singles Energy            =      -0.0000000000000000 [Eh]
	 Same-Spin Energy          =      -0.0684819075165267 [Eh]
	 Opposite-Spin Energy      =      -0.2165081979863815 [Eh]
	 Correlation Energy        =      -0.2849901055029082 [Eh]
	 Total Energy              =     -76.3455700873531953 [Eh]
	-----------------------------------------------------------
	 ================> DF-SCS-MP2 Energies <================== 
	-----------------------------------------------------------
	 SCS Same-Spin Scale       =       0.3333333333333333 [-]
	 SCS Opposite-Spin Scale   =       1.2000000000000000 [-]
	 SCS Same-Spin Energy      =      -0.0228273025055089 [Eh]
	 SCS Opposite-Spin Energy  =      -0.2598098375836578 [Eh]
	 SCS Correlation Energy    =      -0.2826371400891667 [Eh]
	 SCS Total Energy          =     -76.3432171219394462 [Eh]
	-----------------------------------------------------------


*** tstop() called on node43.bme.utexas.edu at Sat Apr 11 18:00:06 2020
Module time:
	user time   =      43.85 seconds =       0.73 minutes
	system time =       1.31 seconds =       0.02 minutes
	total time  =         10 seconds =       0.17 minutes
Total time:
	user time   =     188.98 seconds =       3.15 minutes
	system time =       5.01 seconds =       0.08 minutes
	total time  =         38 seconds =       0.63 minutes

  //>>>>>>>>>>>>>>>>>>>>>>>>>>>>>>>>>>>>//
  // CBS Computation: MP2 / AUG-CC-PVQZ //
  //<<<<<<<<<<<<<<<<<<<<<<<<<<<<<<<<<<<<//


Scratch directory: /scratch//

*** tstart() called on node43.bme.utexas.edu
*** at Sat Apr 11 18:00:06 2020

   => Loading Basis Set <=

    Name: AUG-CC-PVQZ
    Role: ORBITAL
    Keyword: BASIS
    atoms 1            entry N          line   363 file /home/liuchw/anaconda3/envs/psi4env/share/psi4/basis/aug-cc-pvqz.gbs 
    atoms 2-9          entry C          line   303 file /home/liuchw/anaconda3/envs/psi4env/share/psi4/basis/aug-cc-pvqz.gbs 
    atoms 10-16, 18-19 entry H          line    40 file /home/liuchw/anaconda3/envs/psi4env/share/psi4/basis/aug-cc-pvqz.gbs 
    atoms 17           entry O          line   423 file /home/liuchw/anaconda3/envs/psi4env/share/psi4/basis/aug-cc-pvqz.gbs 


         ---------------------------------------------------------
                                   SCF
               by Justin Turney, Rob Parrish, Andy Simmonett
                          and Daniel G. A. Smith
                              RHF Reference
                        6 Threads,  38146 MiB Core
         ---------------------------------------------------------

  ==> Geometry <==

    Molecular point group: c1
    Full point group: C1

    Geometry (in Angstrom), charge = 0, multiplicity = 1:

       Center              X                  Y                   Z               Mass       
    ------------   -----------------  -----------------  -----------------  -----------------
      Gh(N)           0.296832824978    -1.235964660129    -0.528051644291    14.003074004430
      Gh(C)           0.672065824978     1.918330339871     1.105684355709    12.000000000000
      Gh(C)          -0.603294175022     2.454745339871     1.045357355709    12.000000000000
      Gh(C)          -1.664324175022     1.754532339871     0.435798355709    12.000000000000
      Gh(C)          -1.469456175022     0.502367339871    -0.125928644291    12.000000000000
      Gh(C)          -0.181869175022    -0.038667660129    -0.064768644291    12.000000000000
      Gh(C)           0.903546824978     0.650403339871     0.545511355709    12.000000000000
      Gh(C)           2.047131824978    -0.192825660129     0.422867355709    12.000000000000
      Gh(C)           1.634284824978    -1.329075660129    -0.235760644291    12.000000000000
      Gh(H)           1.477852824978     2.466479339871     1.576599355709     1.007825032230
      Gh(H)          -0.793801175022     3.429819339871     1.472992355709     1.007825032230
      Gh(H)          -2.648123175022     2.203052339871     0.406210355709     1.007825032230
      Gh(H)          -2.283499175022    -0.035565660129    -0.593940644291     1.007825032230
      Gh(H)           3.046501824978     0.004392339871     0.771446355709     1.007825032230
      Gh(H)          -0.247742175022    -1.939067660129    -1.008639644291     1.007825032230
      Gh(H)           2.194782824978    -2.203594660129    -0.520908644291     1.007825032230
         O           -1.121082175022    -3.030021660129    -1.761573644291    15.994914619570
         H           -1.672883175022    -3.708625660129    -1.367130644291     1.007825032230
         H           -1.337356175022    -3.060115660129    -2.695861644291     1.007825032230

  Running in c1 symmetry.

  Rotational constants: A =      0.07358  B =      0.03360  C =      0.02314 [cm^-1]
  Rotational constants: A =   2205.81456  B =   1007.26729  C =    693.69852 [MHz]
  Nuclear repulsion =    9.173565700515482

  Charge       = 0
  Multiplicity = 1
  Electrons    = 10
  Nalpha       = 5
  Nbeta        = 5

  ==> Algorithm <==

  SCF Algorithm Type is DF.
  DIIS enabled.
  MOM disabled.
  Fractional occupation disabled.
  Guess Type is SAD.
  Energy threshold   = 1.00e-07
  Density threshold  = 1.00e-08
  Integral threshold = 0.00e+00

  ==> Primary Basis <==

  Basis Set: AUG-CC-PVQZ
    Blend: AUG-CC-PVQZ
    Number of shells: 326
    Number of basis function: 1214
    Number of Cartesian functions: 1545
    Spherical Harmonics?: true
    Max angular momentum: 4

   => Loading Basis Set <=

    Name: (AUG-CC-PVQZ AUX)
    Role: JKFIT
    Keyword: DF_BASIS_SCF
    atoms 1            entry N          line   248 file /home/liuchw/anaconda3/envs/psi4env/share/psi4/basis/aug-cc-pvqz-jkfit.gbs 
    atoms 2-9          entry C          line   178 file /home/liuchw/anaconda3/envs/psi4env/share/psi4/basis/aug-cc-pvqz-jkfit.gbs 
    atoms 10-16, 18-19 entry H          line    70 file /home/liuchw/anaconda3/envs/psi4env/share/psi4/basis/aug-cc-pvqz-jkfit.gbs 
    atoms 17           entry O          line   318 file /home/liuchw/anaconda3/envs/psi4env/share/psi4/basis/aug-cc-pvqz-jkfit.gbs 

  ==> Pre-Iterations <==

   -------------------------------------------------------
    Irrep   Nso     Nmo     Nalpha   Nbeta   Ndocc  Nsocc
   -------------------------------------------------------
     A       1214    1214       0       0       0       0
   -------------------------------------------------------
    Total    1214    1214       5       5       5       0
   -------------------------------------------------------

  ==> Integral Setup <==

  DFHelper Memory: AOs need 20.757 GiB; user supplied 27.940 GiB. Using in-core AOs.

  ==> MemDFJK: Density-Fitted J/K Matrices <==

    J tasked:                   Yes
    K tasked:                   Yes
    wK tasked:                   No
    OpenMP threads:               6
    Memory [MiB]:             28610
    Algorithm:                 Core
    Schwarz Cutoff:           1E-12
    Mask sparsity (%):      12.1509
    Fitting Condition:        1E-10

   => Auxiliary Basis Set <=

  Basis Set: (AUG-CC-PVQZ AUX)
    Blend: AUG-CC-PVQZ-JKFIT
    Number of shells: 502
    Number of basis function: 2104
    Number of Cartesian functions: 2889
    Spherical Harmonics?: true
    Max angular momentum: 5

  Minimum eigenvalue in the overlap matrix is 1.3135030507E-07.
  Using Symmetric Orthogonalization.

  SCF Guess: Superposition of Atomic Densities via on-the-fly atomic UHF.

  ==> Iterations <==

                           Total Energy        Delta E     RMS |[F,P]|

   @DF-RHF iter SAD:   -75.48076714888001   -7.54808e+01   0.00000e+00 
   @DF-RHF iter   1:   -75.98123237212684   -5.00465e-01   3.86743e-04 DIIS
   @DF-RHF iter   2:   -76.03383349040485   -5.26011e-02   2.64218e-04 DIIS
   @DF-RHF iter   3:   -76.06546313789863   -3.16296e-02   1.80071e-05 DIIS
   @DF-RHF iter   4:   -76.06585423369862   -3.91096e-04   4.40605e-06 DIIS
   @DF-RHF iter   5:   -76.06587938680295   -2.51531e-05   9.96566e-07 DIIS
   @DF-RHF iter   6:   -76.06588145379224   -2.06699e-06   2.24465e-07 DIIS
   @DF-RHF iter   7:   -76.06588157034675   -1.16555e-07   4.20810e-08 DIIS
   @DF-RHF iter   8:   -76.06588157395639   -3.60964e-09   6.78760e-09 DIIS
  Energy and wave function converged.


  ==> Post-Iterations <==

    Orbital Energies [Eh]
    ---------------------

    Doubly Occupied:                                                      

       1A    -20.565151     2A     -1.351765     3A     -0.716301  
       4A     -0.584784     5A     -0.510323  

    Virtual:                                                              

       6A      0.016866     7A      0.023883     8A      0.027339  
       9A      0.038132    10A      0.040985    11A      0.041005  
      12A      0.050164    13A      0.059022    14A      0.060951  
      15A      0.061250    16A      0.072510    17A      0.077355  
      18A      0.077587    19A      0.085903    20A      0.090365  
      21A      0.095425    22A      0.104351    23A      0.104983  
      24A      0.106133    25A      0.106378    26A      0.112603  
      27A      0.114511    28A      0.118428    29A      0.118970  
      30A      0.132818    31A      0.134725    32A      0.136962  
      33A      0.137606    34A      0.143746    35A      0.147929  
      36A      0.152141    37A      0.152741    38A      0.158245  
      39A      0.159983    40A      0.160523    41A      0.164226  
      42A      0.168594    43A      0.178124    44A      0.186984  
      45A      0.189321    46A      0.197527    47A      0.200567  
      48A      0.208627    49A      0.214139    50A      0.215274  
      51A      0.218553    52A      0.225883    53A      0.233348  
      54A      0.233771    55A      0.239603    56A      0.240121  
      57A      0.248637    58A      0.254936    59A      0.260682  
      60A      0.263699    61A      0.269661    62A      0.269867  
      63A      0.272102    64A      0.279612    65A      0.281573  
      66A      0.287669    67A      0.289339    68A      0.296186  
      69A      0.300285    70A      0.303356    71A      0.307635  
      72A      0.312002    73A      0.314044    74A      0.317729  
      75A      0.319421    76A      0.320782    77A      0.326829  
      78A      0.327282    79A      0.329547    80A      0.335977  
      81A      0.341824    82A      0.344191    83A      0.348878  
      84A      0.351782    85A      0.352789    86A      0.361126  
      87A      0.365780    88A      0.370461    89A      0.377283  
      90A      0.377689    91A      0.378663    92A      0.384355  
      93A      0.388221    94A      0.389020    95A      0.394994  
      96A      0.399469    97A      0.400213    98A      0.413065  
      99A      0.416965   100A      0.417170   101A      0.426499  
     102A      0.433285   103A      0.439819   104A      0.442501  
     105A      0.443921   106A      0.450504   107A      0.453525  
     108A      0.457100   109A      0.461020   110A      0.467585  
     111A      0.472988   112A      0.475862   113A      0.484609  
     114A      0.485801   115A      0.493965   116A      0.497941  
     117A      0.499219   118A      0.504616   119A      0.509648  
     120A      0.510405   121A      0.513436   122A      0.522960  
     123A      0.527438   124A      0.535381   125A      0.538665  
     126A      0.548229   127A      0.551398   128A      0.553902  
     129A      0.558392   130A      0.561523   131A      0.564869  
     132A      0.570332   133A      0.570396   134A      0.576117  
     135A      0.576969   136A      0.579359   137A      0.582275  
     138A      0.587174   139A      0.597857   140A      0.601526  
     141A      0.601893   142A      0.608667   143A      0.619850  
     144A      0.624751   145A      0.626489   146A      0.631765  
     147A      0.636840   148A      0.638581   149A      0.652950  
     150A      0.654692   151A      0.656844   152A      0.657871  
     153A      0.666647   154A      0.670238   155A      0.674227  
     156A      0.683502   157A      0.689600   158A      0.694381  
     159A      0.706474   160A      0.709487   161A      0.718692  
     162A      0.722015   163A      0.729796   164A      0.736247  
     165A      0.741368   166A      0.741649   167A      0.750622  
     168A      0.753216   169A      0.755762   170A      0.761017  
     171A      0.765018   172A      0.771419   173A      0.771849  
     174A      0.779216   175A      0.786657   176A      0.788173  
     177A      0.791809   178A      0.795925   179A      0.796346  
     180A      0.799103   181A      0.810094   182A      0.810304  
     183A      0.820588   184A      0.823523   185A      0.825908  
     186A      0.838839   187A      0.843252   188A      0.848963  
     189A      0.859141   190A      0.861251   191A      0.866316  
     192A      0.874663   193A      0.878190   194A      0.884638  
     195A      0.885065   196A      0.889283   197A      0.903690  
     198A      0.906525   199A      0.913550   200A      0.914311  
     201A      0.918783   202A      0.924880   203A      0.931795  
     204A      0.933136   205A      0.942708   206A      0.944909  
     207A      0.949523   208A      0.955430   209A      0.960797  
     210A      0.967637   211A      0.970908   212A      0.972291  
     213A      0.974614   214A      0.983917   215A      0.984858  
     216A      0.987261   217A      0.992729   218A      1.001965  
     219A      1.002792   220A      1.006993   221A      1.014249  
     222A      1.014414   223A      1.025586   224A      1.034728  
     225A      1.035806   226A      1.042204   227A      1.043756  
     228A      1.045826   229A      1.051009   230A      1.055824  
     231A      1.068216   232A      1.070952   233A      1.080272  
     234A      1.082496   235A      1.087415   236A      1.091729  
     237A      1.094056   238A      1.099998   239A      1.104728  
     240A      1.117123   241A      1.117911   242A      1.120574  
     243A      1.122998   244A      1.129537   245A      1.132374  
     246A      1.134265   247A      1.145800   248A      1.148052  
     249A      1.158435   250A      1.162414   251A      1.166218  
     252A      1.173735   253A      1.179975   254A      1.187920  
     255A      1.190293   256A      1.194399   257A      1.198635  
     258A      1.201570   259A      1.215261   260A      1.220196  
     261A      1.224820   262A      1.226459   263A      1.228024  
     264A      1.243572   265A      1.244578   266A      1.247737  
     267A      1.258956   268A      1.268797   269A      1.269195  
     270A      1.284212   271A      1.285059   272A      1.301851  
     273A      1.308932   274A      1.316337   275A      1.325647  
     276A      1.330466   277A      1.340620   278A      1.344991  
     279A      1.358871   280A      1.363571   281A      1.372425  
     282A      1.375282   283A      1.381354   284A      1.383475  
     285A      1.392523   286A      1.393448   287A      1.407674  
     288A      1.414256   289A      1.426160   290A      1.439130  
     291A      1.440154   292A      1.449368   293A      1.460250  
     294A      1.462137   295A      1.465813   296A      1.487756  
     297A      1.490148   298A      1.493884   299A      1.502484  
     300A      1.514464   301A      1.524591   302A      1.526145  
     303A      1.541666   304A      1.558388   305A      1.559593  
     306A      1.573060   307A      1.574264   308A      1.577446  
     309A      1.584688   310A      1.587346   311A      1.589644  
     312A      1.594595   313A      1.598030   314A      1.604067  
     315A      1.613972   316A      1.616032   317A      1.627855  
     318A      1.632658   319A      1.634794   320A      1.636919  
     321A      1.649621   322A      1.654038   323A      1.663419  
     324A      1.668195   325A      1.668241   326A      1.670293  
     327A      1.687150   328A      1.696516   329A      1.702459  
     330A      1.712435   331A      1.716727   332A      1.736843  
     333A      1.739331   334A      1.750969   335A      1.752525  
     336A      1.758336   337A      1.765496   338A      1.775656  
     339A      1.780499   340A      1.785765   341A      1.791098  
     342A      1.794738   343A      1.799645   344A      1.800639  
     345A      1.803049   346A      1.807469   347A      1.818462  
     348A      1.827247   349A      1.828833   350A      1.830898  
     351A      1.840631   352A      1.845885   353A      1.848076  
     354A      1.851925   355A      1.858026   356A      1.861064  
     357A      1.874501   358A      1.876353   359A      1.881721  
     360A      1.883543   361A      1.891635   362A      1.892923  
     363A      1.897910   364A      1.902682   365A      1.908179  
     366A      1.912076   367A      1.923915   368A      1.926824  
     369A      1.935204   370A      1.941408   371A      1.951883  
     372A      1.955088   373A      1.961564   374A      1.965417  
     375A      1.968679   376A      1.973780   377A      1.979514  
     378A      1.982256   379A      1.985450   380A      1.997498  
     381A      1.998226   382A      2.013228   383A      2.018478  
     384A      2.019111   385A      2.021086   386A      2.023342  
     387A      2.037720   388A      2.043232   389A      2.047220  
     390A      2.050892   391A      2.059209   392A      2.063295  
     393A      2.068599   394A      2.072981   395A      2.085071  
     396A      2.098329   397A      2.098784   398A      2.100006  
     399A      2.113829   400A      2.126466   401A      2.126755  
     402A      2.130381   403A      2.132941   404A      2.145242  
     405A      2.149970   406A      2.154646   407A      2.156748  
     408A      2.174848   409A      2.177717   410A      2.182637  
     411A      2.184034   412A      2.190929   413A      2.205901  
     414A      2.205999   415A      2.211835   416A      2.212261  
     417A      2.223451   418A      2.233070   419A      2.244131  
     420A      2.255496   421A      2.256491   422A      2.258024  
     423A      2.262600   424A      2.263755   425A      2.269169  
     426A      2.286433   427A      2.297585   428A      2.303706  
     429A      2.304105   430A      2.313735   431A      2.313766  
     432A      2.329958   433A      2.330077   434A      2.341401  
     435A      2.361666   436A      2.362546   437A      2.367197  
     438A      2.374644   439A      2.379642   440A      2.386187  
     441A      2.397512   442A      2.402278   443A      2.408891  
     444A      2.420460   445A      2.421368   446A      2.435326  
     447A      2.442286   448A      2.449589   449A      2.457938  
     450A      2.464702   451A      2.479861   452A      2.481740  
     453A      2.487316   454A      2.488913   455A      2.496642  
     456A      2.507602   457A      2.515773   458A      2.534996  
     459A      2.543764   460A      2.555658   461A      2.555750  
     462A      2.562996   463A      2.566968   464A      2.576676  
     465A      2.582151   466A      2.584094   467A      2.594723  
     468A      2.600293   469A      2.609830   470A      2.618483  
     471A      2.619964   472A      2.633031   473A      2.640353  
     474A      2.648730   475A      2.664630   476A      2.671066  
     477A      2.672275   478A      2.674470   479A      2.674520  
     480A      2.685699   481A      2.701842   482A      2.717866  
     483A      2.723033   484A      2.729691   485A      2.732079  
     486A      2.738301   487A      2.753937   488A      2.760859  
     489A      2.773121   490A      2.779793   491A      2.792279  
     492A      2.801535   493A      2.807027   494A      2.813716  
     495A      2.817607   496A      2.832285   497A      2.850336  
     498A      2.850657   499A      2.859324   500A      2.866103  
     501A      2.871750   502A      2.879700   503A      2.881927  
[...]
     763A      4.967560   764A      4.996716   765A      5.012708  
     766A      5.023053   767A      5.048022   768A      5.075740  
     769A      5.078619   770A      5.083355   771A      5.095050  
     772A      5.114936   773A      5.132106   774A      5.151254  
     775A      5.169520   776A      5.199163   777A      5.224553  
     778A      5.234930   779A      5.245125   780A      5.264406  
     781A      5.273902   782A      5.313020   783A      5.322222  
     784A      5.329265   785A      5.351542   786A      5.356086  
     787A      5.375792   788A      5.420436   789A      5.451848  
     790A      5.456805   791A      5.464697   792A      5.510149  
     793A      5.514900   794A      5.536612   795A      5.549887  
     796A      5.593434   797A      5.616449   798A      5.627154  
     799A      5.706757   800A      5.734501   801A      5.735569  
     802A      5.758132   803A      5.777943   804A      5.810055  
     805A      5.814159   806A      5.836135   807A      5.840009  
     808A      5.880569   809A      5.897334   810A      5.902827  
     811A      5.909113   812A      5.929884   813A      5.951802  
     814A      5.955739   815A      5.975772   816A      6.002798  
     817A      6.048153   818A      6.050955   819A      6.070093  
     820A      6.084742   821A      6.096921   822A      6.106643  
     823A      6.133577   824A      6.150041   825A      6.150381  
     826A      6.156343   827A      6.184268   828A      6.186839  
     829A      6.233840   830A      6.247084   831A      6.255176  
     832A      6.269444   833A      6.298144   834A      6.298501  
     835A      6.315762   836A      6.331961   837A      6.351686  
     838A      6.352255   839A      6.360813   840A      6.373070  
     841A      6.378117   842A      6.387539   843A      6.408952  
     844A      6.410339   845A      6.416984   846A      6.437062  
     847A      6.451999   848A      6.477197   849A      6.490155  
     850A      6.508965   851A      6.531288   852A      6.547671  
     853A      6.568534   854A      6.600194   855A      6.602234  
     856A      6.613240   857A      6.614816   858A      6.638919  
     859A      6.647690   860A      6.662877   861A      6.667079  
     862A      6.676892   863A      6.720146   864A      6.730235  
     865A      6.738807   866A      6.746546   867A      6.760429  
     868A      6.765461   869A      6.773232   870A      6.783915  
     871A      6.806457   872A      6.826052   873A      6.845796  
     874A      6.870011   875A      6.872571   876A      6.878797  
     877A      6.895631   878A      6.895643   879A      6.899788  
     880A      6.903353   881A      6.909158   882A      6.912037  
     883A      6.931074   884A      6.950450   885A      6.953337  
     886A      6.969990   887A      6.981969   888A      6.987908  
     889A      7.003636   890A      7.013963   891A      7.020162  
     892A      7.028078   893A      7.030312   894A      7.053923  
     895A      7.055993   896A      7.061948   897A      7.081444  
     898A      7.095223   899A      7.109333   900A      7.110058  
     901A      7.125481   902A      7.129216   903A      7.141642  
     904A      7.154049   905A      7.160208   906A      7.167410  
     907A      7.182963   908A      7.185406   909A      7.203248  
     910A      7.203517   911A      7.218023   912A      7.230741  
     913A      7.241880   914A      7.261612   915A      7.282876  
     916A      7.289788   917A      7.309984   918A      7.310989  
     919A      7.329859   920A      7.333881   921A      7.334634  
     922A      7.342152   923A      7.367876   924A      7.380785  
     925A      7.383084   926A      7.393447   927A      7.408937  
     928A      7.423285   929A      7.448338   930A      7.460024  
     931A      7.461036   932A      7.467334   933A      7.492997  
     934A      7.500498   935A      7.510396   936A      7.534979  
     937A      7.552847   938A      7.563676   939A      7.582284  
     940A      7.602727   941A      7.615183   942A      7.647505  
     943A      7.669001   944A      7.669298   945A      7.681171  
     946A      7.689781   947A      7.698613   948A      7.706284  
     949A      7.724234   950A      7.728554   951A      7.748939  
     952A      7.780919   953A      7.787310   954A      7.799022  
     955A      7.801618   956A      7.818730   957A      7.838083  
     958A      7.843398   959A      7.854006   960A      7.859154  
     961A      7.869568   962A      7.883883   963A      7.886240  
     964A      7.899773   965A      7.921736   966A      7.935870  
     967A      7.935956   968A      7.937391   969A      7.947556  
     970A      7.966937   971A      7.978865   972A      8.011608  
     973A      8.017560   974A      8.027347   975A      8.028050  
     976A      8.044141   977A      8.060115   978A      8.062929  
     979A      8.073176   980A      8.084934   981A      8.109339  
     982A      8.123801   983A      8.125565   984A      8.165847  
     985A      8.167612   986A      8.182539   987A      8.209681  
     988A      8.227783   989A      8.238706   990A      8.244265  
     991A      8.267634   992A      8.281839   993A      8.298141  
     994A      8.303728   995A      8.306678   996A      8.334046  
     997A      8.337745   998A      8.340075   999A      8.347755  
    1000A      8.400944  1001A      8.403639  1002A      8.440437  
    1003A      8.456235  1004A      8.460928  1005A      8.484698  
    1006A      8.495389  1007A      8.523232  1008A      8.540671  
    1009A      8.558446  1010A      8.610978  1011A      8.619062  
    1012A      8.629427  1013A      8.654683  1014A      8.656426  
    1015A      8.663974  1016A      8.692288  1017A      8.697565  
    1018A      8.704080  1019A      8.734324  1020A      8.735284  
    1021A      8.745003  1022A      8.756221  1023A      8.775731  
    1024A      8.793902  1025A      8.803303  1026A      8.823571  
    1027A      8.829455  1028A      8.832072  1029A      8.845768  
    1030A      8.848742  1031A      8.885599  1032A      8.893473  
    1033A      8.911386  1034A      8.913504  1035A      8.940246  
    1036A      8.941203  1037A      8.974829  1038A      8.991961  
    1039A      9.003260  1040A      9.023116  1041A      9.033058  
    1042A      9.043636  1043A      9.081012  1044A      9.096353  
    1045A      9.123618  1046A      9.130754  1047A      9.141716  
    1048A      9.157201  1049A      9.158651  1050A      9.164549  
    1051A      9.171768  1052A      9.213501  1053A      9.225662  
    1054A      9.245755  1055A      9.249418  1056A      9.257811  
    1057A      9.272128  1058A      9.323122  1059A      9.339460  
    1060A      9.339957  1061A      9.347401  1062A      9.374638  
    1063A      9.376755  1064A      9.398698  1065A      9.414969  
    1066A      9.431124  1067A      9.482792  1068A      9.483241  
    1069A      9.489251  1070A      9.503798  1071A      9.529716  
    1072A      9.549955  1073A      9.583426  1074A      9.586195  
    1075A      9.594072  1076A      9.602247  1077A      9.608545  
    1078A      9.627576  1079A      9.661051  1080A      9.690611  
    1081A      9.709889  1082A      9.710993  1083A      9.729752  
    1084A      9.738573  1085A      9.776059  1086A      9.783020  
    1087A      9.806559  1088A      9.832975  1089A      9.843725  
    1090A      9.848711  1091A      9.892051  1092A      9.933177  
    1093A      9.940464  1094A      9.956236  1095A      9.992500  
    1096A      9.999534  1097A     10.019663  1098A     10.039764  
    1099A     10.068914  1100A     10.082321  1101A     10.098596  
    1102A     10.111342  1103A     10.112053  1104A     10.128252  
    1105A     10.178533  1106A     10.184451  1107A     10.202166  
    1108A     10.206245  1109A     10.268768  1110A     10.272667  
    1111A     10.279465  1112A     10.301531  1113A     10.316978  
    1114A     10.333707  1115A     10.347448  1116A     10.371641  
    1117A     10.381139  1118A     10.409576  1119A     10.415935  
    1120A     10.461109  1121A     10.471748  1122A     10.476822  
    1123A     10.493428  1124A     10.522687  1125A     10.552426  
    1126A     10.592104  1127A     10.603534  1128A     10.680744  
    1129A     10.728514  1130A     10.736285  1131A     10.748258  
    1132A     10.774324  1133A     10.811427  1134A     10.816991  
    1135A     10.843381  1136A     10.851384  1137A     10.856938  
    1138A     10.892728  1139A     10.927633  1140A     10.931377  
    1141A     10.963305  1142A     10.991326  1143A     11.039273  
    1144A     11.053815  1145A     11.132177  1146A     11.157018  
    1147A     11.175052  1148A     11.253142  1149A     11.293728  
    1150A     11.300080  1151A     11.326376  1152A     11.357376  
    1153A     11.376276  1154A     11.385355  1155A     11.390168  
    1156A     11.403053  1157A     11.426561  1158A     11.434316  
    1159A     11.505114  1160A     11.590043  1161A     11.632316  
    1162A     11.640390  1163A     11.686933  1164A     11.731318  
    1165A     11.754790  1166A     11.820410  1167A     11.866641  
    1168A     11.890043  1169A     11.955588  1170A     11.956266  
    1171A     12.003560  1172A     12.086694  1173A     12.157089  
    1174A     12.185454  1175A     12.280857  1176A     12.296569  
    1177A     12.361378  1178A     12.418927  1179A     12.545097  
    1180A     12.625649  1181A     12.630379  1182A     12.709497  
    1183A     12.925509  1184A     12.930155  1185A     12.943263  
    1186A     13.247954  1187A     13.269514  1188A     13.298636  
    1189A     13.368536  1190A     13.456148  1191A     13.473521  
    1192A     13.502773  1193A     13.670274  1194A     13.794276  
    1195A     13.985364  1196A     14.104921  1197A     14.578636  
    1198A     14.763348  1199A     14.770506  1200A     15.031597  
    1201A     15.367555  1202A     16.175744  1203A     17.291236  
    1204A     17.454761  1205A     25.828977  1206A     26.106748  
    1207A     26.513237  1208A     26.724260  1209A     26.861241  
    1210A     27.074866  1211A     27.151065  1212A     27.449523  
    1213A     35.580413  1214A     46.561701  

    Final Occupation by Irrep:
              A 
    DOCC [    36 ]

  @DF-RHF Final Energy:  -437.67465769570617

   => Energetics <=

    Nuclear Repulsion Energy =            487.4974936489546735
    One-Electron Energy =               -1561.9027045782495406
    Two-Electron Energy =                 636.7305532335885800
    Total Energy =                       -437.6746576957061734

Computation Completed


Properties will be evaluated at   0.000000,   0.000000,   0.000000 [a0]

Properties computed using the SCF density matrix

  Nuclear Dipole Moment: [e a0]
     X:    -2.1289      Y:    -2.6764      Z:    -1.8437

  Electronic Dipole Moment: [e a0]
     X:     1.2987      Y:     0.9477      Z:     0.7904

  Dipole Moment: [e a0]
     X:    -0.8302      Y:    -1.7287      Z:    -1.0532     Total:     2.1879

  Dipole Moment: [D]
     X:    -2.1103      Y:    -4.3940      Z:    -2.6770     Total:     5.5612


*** tstop() called on node43.bme.utexas.edu at Sat Apr 11 18:13:50 2020
Module time:
	user time   =     867.03 seconds =      14.45 minutes
	system time =      13.43 seconds =       0.22 minutes
	total time  =        152 seconds =       2.53 minutes
Total time:
	user time   =    4579.82 seconds =      76.33 minutes
	system time =      86.54 seconds =       1.44 minutes
	total time  =        862 seconds =      14.37 minutes

*** tstart() called on node43.bme.utexas.edu
*** at Sat Apr 11 18:13:50 2020


  //>>>>>>>>>>>>>>>>>>>>>>>>>>>>>>>>>>>//
  //               DFMP2               //
  //<<<<<<<<<<<<<<<<<<<<<<<<<<<<<<<<<<<//

   => Loading Basis Set <=

    Name: (AUG-CC-PVQZ AUX)
    Role: RIFIT
    Keyword: DF_BASIS_MP2
    atoms 1            entry N          line   258 file /home/liuchw/anaconda3/envs/psi4env/share/psi4/basis/aug-cc-pvqz-ri.gbs 
    atoms 2-9          entry C          line   184 file /home/liuchw/anaconda3/envs/psi4env/share/psi4/basis/aug-cc-pvqz-ri.gbs 
    atoms 10-16, 18-19 entry H          line    30 file /home/liuchw/anaconda3/envs/psi4env/share/psi4/basis/aug-cc-pvqz-ri.gbs 
    atoms 17           entry O          line   332 file /home/liuchw/anaconda3/envs/psi4env/share/psi4/basis/aug-cc-pvqz-ri.gbs 

	 --------------------------------------------------------
	                          DF-MP2                         
	      2nd-Order Density-Fitted Moller-Plesset Theory     
	              RMP2 Wavefunction,   6 Threads             
	                                                         
	        Rob Parrish, Justin Turney, Andy Simmonett,      
	           Ed Hohenstein, and C. David Sherrill          
	 --------------------------------------------------------

   => Auxiliary Basis Set <=

  Basis Set: (AUG-CC-PVQZ AUX)
    Blend: AUG-CC-PVQZ-RI
    Number of shells: 540
    Number of basis function: 2400
    Number of Cartesian functions: 3315
    Spherical Harmonics?: true
    Max angular momentum: 5

	 --------------------------------------------------------
	                 NBF =  1214, NAUX =  2400
	 --------------------------------------------------------
	   CLASS    FOCC     OCC    AOCC    AVIR     VIR    FVIR
	   PAIRS       0      36      36    1178    1178       0
	 --------------------------------------------------------

	-----------------------------------------------------------
	 ==================> DF-MP2 Energies <==================== 
	-----------------------------------------------------------
	 Reference Energy          =    -437.6746576957061734 [Eh]
	 Singles Energy            =      -0.0000000000000000 [Eh]
	 Same-Spin Energy          =      -0.5074160008783279 [Eh]
	 Opposite-Spin Energy      =      -1.6452412520491726 [Eh]
	 Correlation Energy        =      -2.1526572529275008 [Eh]
	 Total Energy              =    -439.8273149486336706 [Eh]
	-----------------------------------------------------------
	 ================> DF-SCS-MP2 Energies <================== 
	-----------------------------------------------------------
	 SCS Same-Spin Scale       =       0.3333333333333333 [-]
	 SCS Opposite-Spin Scale   =       1.2000000000000000 [-]
	 SCS Same-Spin Energy      =      -0.1691386669594426 [Eh]
	 SCS Opposite-Spin Energy  =      -1.9742895024590070 [Eh]
	 SCS Correlation Energy    =      -2.1434281694184496 [Eh]
	 SCS Total Energy          =    -439.8180858651246012 [Eh]
	-----------------------------------------------------------


*** tstop() called on node43.bme.utexas.edu at Sat Apr 11 18:15:20 2020
Module time:
	user time   =     447.94 seconds =       7.47 minutes
	system time =       7.37 seconds =       0.12 minutes
	total time  =         90 seconds =       1.50 minutes
Total time:
	user time   =    5027.76 seconds =      83.80 minutes
	system time =      93.91 seconds =       1.57 minutes
	total time  =        952 seconds =      15.87 minutes

  //>>>>>>>>>>>>>>>>>>>>>>>>>>>>>>>>>>>//
  //  CBS Results: mp2/aug-cc-pv[tq]z  //
  //<<<<<<<<<<<<<<<<<<<<<<<<<<<<<<<<<<<//


   ==> HF <==

   HI-zeta (4) Energy:               -437.674657695706


   ==> Helgaker 2-point correlated extrapolation for method: MP2 <==

   LO-zeta (3) Energy:               -439.596945350067
   HI-zeta (4) Energy:               -439.827314948634
   Alpha (exponent) Value:             3.000000000000
   Extrapolated Energy:              -439.995422493534

   @Extrapolated MP2/(T,Q):          -439.995422493534



   ==> Helgaker 2-point correlated extrapolation for method: HF <==

   LO-zeta (3) Energy:               -437.648886725692
   HI-zeta (4) Energy:               -437.674657695706
   Alpha (exponent) Value:             3.000000000000
   Extrapolated Energy:              -437.693463538690

   @Extrapolated HF/(T,Q):           -437.693463538690


   ==> Components <==

  ---------------------------------------------------------------------------------------------------------
                          Method / Basis                      Rqd      Energy [Eh]   Variable
  ---------------------------------------------------------------------------------------------------------
                              hf / aug-cc-pvtz                  *    -437.64888673   HF TOTAL ENERGY
                             mp2 / aug-cc-pvtz                  *    -439.59694535   MP2 TOTAL ENERGY
                              hf / aug-cc-pvqz                  *    -437.67465770   HF TOTAL ENERGY
                             mp2 / aug-cc-pvqz                  *    -439.82731495   MP2 TOTAL ENERGY
  ---------------------------------------------------------------------------------------------------------

   ==> Stages <==

  ---------------------------------------------------------------------------------------------------------
      Stage               Method / Basis                       Wt      Energy [Eh]   Scheme
  ---------------------------------------------------------------------------------------------------------
        scf                   hf / aug-cc-pvqz                  1    -437.67465770   xtpl_highest_1
       corl                  mp2 / aug-cc-pv[tq]z               1    -439.99542249   corl_xtpl_helgaker_2
       corl                   hf / aug-cc-pv[tq]z              -1    -437.69346354   corl_xtpl_helgaker_2
  ---------------------------------------------------------------------------------------------------------

   ==> CBS <==

  ---------------------------------------------------------------------------------------------------------
      Stage               Method / Basis                               Energy [Eh]   Scheme
  ---------------------------------------------------------------------------------------------------------
        scf                   hf / aug-cc-pvqz                       -437.67465770   xtpl_highest_1
       corl                  mp2 / aug-cc-pv[tq]z                      -2.30195895   corl_xtpl_helgaker_2
      total                  CBS                                     -439.97661665   
  ---------------------------------------------------------------------------------------------------------
   => Loading Basis Set <=

    Name: DEF2-SVP
    Role: ORBITAL
    Keyword: BASIS
    atoms 1            entry N          line   110 file /home/liuchw/anaconda3/envs/psi4env/share/psi4/basis/def2-svp.gbs 
    atoms 2-9          entry C          line    90 file /home/liuchw/anaconda3/envs/psi4env/share/psi4/basis/def2-svp.gbs 
    atoms 10-16, 18-19 entry H          line    15 file /home/liuchw/anaconda3/envs/psi4env/share/psi4/basis/def2-svp.gbs 
    atoms 17           entry O          line   130 file /home/liuchw/anaconda3/envs/psi4env/share/psi4/basis/def2-svp.gbs 


       N-Body: Complex Energy (fragments = (1, 2), basis = (1, 2):  -439.97661665055017)

   ==> N-Body: Counterpoise Corrected (CP) energies <==

   n-Body     Total Energy [Eh]       I.E. [kcal/mol]      Delta [kcal/mol]
        1     -439.972362602165        0.000000000000        0.000000000000
        2     -439.976914638440       -2.856445887444       -2.856445887444

   => Loading Basis Set <=

    Name: DEF2-SVP
    Role: ORBITAL
    Keyword: BASIS
    atoms 1            entry N          line   110 file /home/liuchw/anaconda3/envs/psi4env/share/psi4/basis/def2-svp.gbs 
    atoms 2-9          entry C          line    90 file /home/liuchw/anaconda3/envs/psi4env/share/psi4/basis/def2-svp.gbs 
    atoms 10-16, 18-19 entry H          line    15 file /home/liuchw/anaconda3/envs/psi4env/share/psi4/basis/def2-svp.gbs 
    atoms 17           entry O          line   130 file /home/liuchw/anaconda3/envs/psi4env/share/psi4/basis/def2-svp.gbs 


    Psi4 stopped on: Saturday, 11 April 2020 06:15PM
    Psi4 wall time for execution: 0:15:53.50

*** Psi4 exiting successfully. Buy a developer a beer!
