
    -----------------------------------------------------------------------
          Psi4: An Open-Source Ab Initio Electronic Structure Package
                               Psi4 1.4a2.dev224 

                         Git: Rev {master} e453b16 


    R. M. Parrish, L. A. Burns, D. G. A. Smith, A. C. Simmonett,
    A. E. DePrince III, E. G. Hohenstein, U. Bozkaya, A. Yu. Sokolov,
    R. Di Remigio, R. M. Richard, J. F. Gonthier, A. M. James,
    H. R. McAlexander, A. Kumar, M. Saitow, X. Wang, B. P. Pritchard,
    P. Verma, H. F. Schaefer III, K. Patkowski, R. A. King, E. F. Valeev,
    F. A. Evangelista, J. M. Turney, T. D. Crawford, and C. D. Sherrill,
    J. Chem. Theory Comput. 13(7) pp 3185--3197 (2017).
    (doi: 10.1021/acs.jctc.7b00174)


                         Additional Contributions by
    P. Kraus, H. Kruse, M. H. Lechner, M. C. Schieber, R. A. Shaw,
    A. Alenaizan, R. Galvelis, Z. L. Glick, S. Lehtola, and J. P. Misiewicz

    -----------------------------------------------------------------------


    Psi4 started on: Thursday, 23 April 2020 11:56AM

    Process ID: 59742
    Host:       node87.bme.utexas.edu
    PSIDATADIR: /home/liuchw/anaconda3/envs/psi4env/share/psi4
    Memory:     500.0 MiB
    Threads:    8
    
  ==> Input File <==

--------------------------------------------------------------------------
#Generated by lconvert.py for cbs job

memory 20 GB

molecule  {
0 1
  C       1.952940   -0.000020    0.000020
  H       2.317650   -0.471620    0.907560
  H       2.317720   -0.550420   -0.861990
  H       2.320030    1.020920   -0.045480
  H       0.867410    0.001600   -0.000090
--
0 1
  O      -2.646200   -0.000070   -0.000120
  H      -3.241820    0.751800    0.000380
  H      -3.237360   -0.755450    0.000370
units angstrom
no_reorient
symmetry c1
}

set {
scf_type DF
mp2_type DF
e_convergence 7
reference rhf
}

energy('mp2/aug-cc-pv[tq]z', bsse_type='cp')
--------------------------------------------------------------------------

  Memory set to  18.626 GiB by Python driver.

Scratch directory: /scratch/liuchw/


   ===> N-Body Interaction Abacus <===
        BSSE Treatment:                     cp
        Number of 1-body computations:     4
        Number of 2-body computations:     1

   ==> N-Body: Now computing 1-body complexes <==


       N-Body: Computing complex (1/4) with fragments (2,) in the basis of fragments (2,).


Scratch directory: /scratch/liuchw/

  //>>>>>>>>>>>>>>>>>>>>>>>>>>>>>>>>>>>//
  //   CBS Setup: mp2/aug-cc-pv[tq]z   //
  //<<<<<<<<<<<<<<<<<<<<<<<<<<<<<<<<<<<//

    Naive listing of computations required.
             hf / aug-cc-pvqz              for  HF TOTAL ENERGY
            mp2 / aug-cc-pvtz              for  MP2 TOTAL ENERGY
            mp2 / aug-cc-pvqz              for  MP2 TOTAL ENERGY
             hf / aug-cc-pvtz              for  HF TOTAL ENERGY
             hf / aug-cc-pvqz              for  HF TOTAL ENERGY

    Enlightened listing of computations required.
            mp2 / aug-cc-pvtz              for  MP2 TOTAL ENERGY
            mp2 / aug-cc-pvqz              for  MP2 TOTAL ENERGY

    Full listing of computations to be obtained (required and bonus).
             hf / aug-cc-pvtz              for  HF TOTAL ENERGY
            mp2 / aug-cc-pvtz              for  MP2 TOTAL ENERGY
             hf / aug-cc-pvqz              for  HF TOTAL ENERGY
            mp2 / aug-cc-pvqz              for  MP2 TOTAL ENERGY

  //>>>>>>>>>>>>>>>>>>>>>>>>>>>>>>>>>>>>//
  // CBS Computation: MP2 / AUG-CC-PVTZ //
  //<<<<<<<<<<<<<<<<<<<<<<<<<<<<<<<<<<<<//


Scratch directory: /scratch/liuchw/

*** tstart() called on node87.bme.utexas.edu
*** at Thu Apr 23 11:56:09 2020

   => Loading Basis Set <=

    Name: AUG-CC-PVTZ
    Role: ORBITAL
    Keyword: BASIS
    atoms 1   entry O          line   331 file /home/liuchw/anaconda3/envs/psi4env/share/psi4/basis/aug-cc-pvtz.gbs 
    atoms 2-3 entry H          line    40 file /home/liuchw/anaconda3/envs/psi4env/share/psi4/basis/aug-cc-pvtz.gbs 


         ---------------------------------------------------------
                                   SCF
               by Justin Turney, Rob Parrish, Andy Simmonett
                          and Daniel G. A. Smith
                              RHF Reference
                        8 Threads,  19073 MiB Core
         ---------------------------------------------------------

  ==> Geometry <==

    Molecular point group: c1
    Full point group: C1

    Geometry (in Angstrom), charge = 0, multiplicity = 1:

       Center              X                  Y                   Z               Mass       
    ------------   -----------------  -----------------  -----------------  -----------------
         O           -2.131060209198     0.000063789656    -0.000092871023    15.994914619570
         H           -2.726680209198     0.751933789656     0.000407128977     1.007825032230
         H           -2.722220209198    -0.755316210344     0.000397128977     1.007825032230

  Running in c1 symmetry.

  Rotational constants: A =     14.72545  B =      0.19244  C =      0.18995 [cm^-1]
  Rotational constants: A = 441457.75044  B =   5769.09958  C =   5694.67989 [MHz]
  Nuclear repulsion =    9.178033599634274

  Charge       = 0
  Multiplicity = 1
  Electrons    = 10
  Nalpha       = 5
  Nbeta        = 5

  ==> Algorithm <==

  SCF Algorithm Type is DF.
  DIIS enabled.
  MOM disabled.
  Fractional occupation disabled.
  Guess Type is SAD.
  Energy threshold   = 1.00e-07
  Density threshold  = 1.00e-08
  Integral threshold = 0.00e+00

  ==> Primary Basis <==

  Basis Set: AUG-CC-PVTZ
    Blend: AUG-CC-PVTZ
    Number of shells: 32
    Number of basis function: 92
    Number of Cartesian functions: 105
    Spherical Harmonics?: true
    Max angular momentum: 3

   => Loading Basis Set <=

    Name: (AUG-CC-PVTZ AUX)
    Role: JKFIT
    Keyword: DF_BASIS_SCF
    atoms 1   entry O          line   286 file /home/liuchw/anaconda3/envs/psi4env/share/psi4/basis/aug-cc-pvtz-jkfit.gbs 
    atoms 2-3 entry H          line    70 file /home/liuchw/anaconda3/envs/psi4env/share/psi4/basis/aug-cc-pvtz-jkfit.gbs 

  ==> Pre-Iterations <==

   -------------------------------------------------------
    Irrep   Nso     Nmo     Nalpha   Nbeta   Ndocc  Nsocc
   -------------------------------------------------------
     A         92      92       0       0       0       0
   -------------------------------------------------------
    Total      92      92       5       5       5       0
   -------------------------------------------------------

  ==> Integral Setup <==

  DFHelper Memory: AOs need 0.015 GiB; user supplied 13.970 GiB. Using in-core AOs.

  ==> MemDFJK: Density-Fitted J/K Matrices <==

    J tasked:                   Yes
    K tasked:                   Yes
    wK tasked:                   No
    OpenMP threads:               8
    Memory [MiB]:             14305
    Algorithm:                 Core
    Schwarz Cutoff:           1E-12
    Mask sparsity (%):       0.0000
    Fitting Condition:        1E-10

   => Auxiliary Basis Set <=

  Basis Set: (AUG-CC-PVTZ AUX)
    Blend: AUG-CC-PVTZ-JKFIT
    Number of shells: 58
    Number of basis function: 196
    Number of Cartesian functions: 241
    Spherical Harmonics?: true
    Max angular momentum: 4

  Minimum eigenvalue in the overlap matrix is 3.8782585581E-04.
  Using Symmetric Orthogonalization.

  SCF Guess: Superposition of Atomic Densities via on-the-fly atomic UHF.

  ==> Iterations <==

                           Total Energy        Delta E     RMS |[F,P]|

   @DF-RHF iter SAD:   -75.47677684116904   -7.54768e+01   0.00000e+00 
   @DF-RHF iter   1:   -75.97596464856862   -4.99188e-01   5.09273e-03 DIIS
   @DF-RHF iter   2:   -76.02849440643416   -5.25298e-02   3.47294e-03 DIIS
   @DF-RHF iter   3:   -76.05997312618878   -3.14787e-02   2.35829e-04 DIIS
   @DF-RHF iter   4:   -76.06036085522265   -3.87729e-04   5.64121e-05 DIIS
   @DF-RHF iter   5:   -76.06038506354170   -2.42083e-05   1.28156e-05 DIIS
   @DF-RHF iter   6:   -76.06038704260297   -1.97906e-06   2.80043e-06 DIIS
   @DF-RHF iter   7:   -76.06038714644062   -1.03838e-07   5.01911e-07 DIIS
   @DF-RHF iter   8:   -76.06038714937205   -2.93143e-09   8.40528e-08 DIIS
   @DF-RHF iter   9:   -76.06038714943594   -6.38920e-11   2.04965e-08 DIIS
   @DF-RHF iter  10:   -76.06038714943958   -3.63798e-12   3.04198e-09 DIIS
  Energy and wave function converged.


  ==> Post-Iterations <==

    Orbital Energies [Eh]
    ---------------------

    Doubly Occupied:                                                      

       1A    -20.567957     2A     -1.353276     3A     -0.714924  
       4A     -0.586426     5A     -0.510476  

    Virtual:                                                              

       6A      0.029352     7A      0.047735     8A      0.135806  
       9A      0.158765    10A      0.175344    11A      0.183204  
      12A      0.227141    13A      0.245102    14A      0.265628  
      15A      0.299564    16A      0.309873    17A      0.365968  
      18A      0.437787    19A      0.466437    20A      0.598976  
      21A      0.659263    22A      0.707668    23A      0.723095  
      24A      0.731609    25A      0.831788    26A      0.847126  
      27A      0.892096    28A      0.912995    29A      0.917375  
      30A      0.922940    31A      0.931529    32A      0.960593  
      33A      1.021666    34A      1.043721    35A      1.082631  
      36A      1.108503    37A      1.177312    38A      1.183373  
      39A      1.260383    40A      1.510714    41A      1.530988  
      42A      1.582571    43A      1.805154    44A      1.826848  
      45A      1.984922    46A      2.120288    47A      2.263615  
      48A      2.316329    49A      2.327124    50A      2.419071  
      51A      2.422085    52A      2.443736    53A      2.481035  
      54A      2.674750    55A      2.697357    56A      2.774738  
      57A      2.811126    58A      2.885450    59A      3.657362  
      60A      3.739809    61A      4.022657    62A      4.084918  
      63A      4.158393    64A      4.253904    65A      4.281909  
      66A      4.370575    67A      4.378270    68A      4.407873  
      69A      4.522735    70A      4.730254    71A      4.852289  
      72A      5.153083    73A      5.158740    74A      5.248388  
      75A      5.331014    76A      5.530626    77A      5.659991  
      78A      6.186664    79A      6.513680    80A      6.715192  
      81A      6.913330    82A      7.137388    83A      7.260482  
      84A      7.298402    85A      7.321905    86A      7.340607  
      87A      7.360921    88A      7.539621    89A      7.897186  
      90A      7.936202    91A      8.820233    92A     15.770625  

    Final Occupation by Irrep:
              A 
    DOCC [     5 ]

  @DF-RHF Final Energy:   -76.06038714943958

   => Energetics <=

    Nuclear Repulsion Energy =              9.1780335996342739
    One-Electron Energy =                -123.0107227835333958
    Two-Electron Energy =                  37.7723020344595426
    Total Energy =                        -76.0603871494395776

Computation Completed


Properties will be evaluated at   0.000000,   0.000000,   0.000000 [a0]

Properties computed using the SCF density matrix

  Nuclear Dipole Moment: [e a0]
     X:   -42.5139      Y:    -0.0054      Z:     0.0001

  Electronic Dipole Moment: [e a0]
     X:    41.7271      Y:     0.0031      Z:     0.0005

  Dipole Moment: [e a0]
     X:    -0.7868      Y:    -0.0023      Z:     0.0007     Total:     0.7868

  Dipole Moment: [D]
     X:    -1.9997      Y:    -0.0059      Z:     0.0017     Total:     1.9997


*** tstop() called on node87.bme.utexas.edu at Thu Apr 23 11:56:10 2020
Module time:
	user time   =       7.60 seconds =       0.13 minutes
	system time =       0.24 seconds =       0.00 minutes
	total time  =          1 seconds =       0.02 minutes
Total time:
	user time   =       7.60 seconds =       0.13 minutes
	system time =       0.24 seconds =       0.00 minutes
	total time  =          1 seconds =       0.02 minutes

*** tstart() called on node87.bme.utexas.edu
*** at Thu Apr 23 11:56:10 2020


  //>>>>>>>>>>>>>>>>>>>>>>>>>>>>>>>>>>>//
  //               DFMP2               //
  //<<<<<<<<<<<<<<<<<<<<<<<<<<<<<<<<<<<//

   => Loading Basis Set <=

    Name: (AUG-CC-PVTZ AUX)
    Role: RIFIT
    Keyword: DF_BASIS_MP2
    atoms 1   entry O          line   264 file /home/liuchw/anaconda3/envs/psi4env/share/psi4/basis/aug-cc-pvtz-ri.gbs 
    atoms 2-3 entry H          line    30 file /home/liuchw/anaconda3/envs/psi4env/share/psi4/basis/aug-cc-pvtz-ri.gbs 

	 --------------------------------------------------------
	                          DF-MP2                         
	      2nd-Order Density-Fitted Moller-Plesset Theory     
	              RMP2 Wavefunction,   8 Threads             
	                                                         
	        Rob Parrish, Justin Turney, Andy Simmonett,      
	           Ed Hohenstein, and C. David Sherrill          
	 --------------------------------------------------------

   => Auxiliary Basis Set <=

  Basis Set: (AUG-CC-PVTZ AUX)
    Blend: AUG-CC-PVTZ-RI
    Number of shells: 56
    Number of basis function: 198
    Number of Cartesian functions: 246
    Spherical Harmonics?: true
    Max angular momentum: 4

	 --------------------------------------------------------
	                 NBF =    92, NAUX =   198
	 --------------------------------------------------------
	   CLASS    FOCC     OCC    AOCC    AVIR     VIR    FVIR
	   PAIRS       0       5       5      87      87       0
	 --------------------------------------------------------

	-----------------------------------------------------------
	 ==================> DF-MP2 Energies <==================== 
	-----------------------------------------------------------
	 Reference Energy          =     -76.0603871494395776 [Eh]
	 Singles Energy            =      -0.0000000000000000 [Eh]
	 Same-Spin Energy          =      -0.0683880490805516 [Eh]
	 Opposite-Spin Energy      =      -0.2153051283227225 [Eh]
	 Correlation Energy        =      -0.2836931774032740 [Eh]
	 Total Energy              =     -76.3440803268428567 [Eh]
	-----------------------------------------------------------
	 ================> DF-SCS-MP2 Energies <================== 
	-----------------------------------------------------------
	 SCS Same-Spin Scale       =       0.3333333333333333 [-]
	 SCS Opposite-Spin Scale   =       1.2000000000000000 [-]
	 SCS Same-Spin Energy      =      -0.0227960163601839 [Eh]
	 SCS Opposite-Spin Energy  =      -0.2583661539872670 [Eh]
	 SCS Correlation Energy    =      -0.2811621703474508 [Eh]
	 SCS Total Energy          =     -76.3415493197870347 [Eh]
	-----------------------------------------------------------


*** tstop() called on node87.bme.utexas.edu at Thu Apr 23 11:56:11 2020
Module time:
	user time   =       3.58 seconds =       0.06 minutes
	system time =       0.12 seconds =       0.00 minutes
	total time  =          1 seconds =       0.02 minutes
Total time:
	user time   =      11.18 seconds =       0.19 minutes
	system time =       0.36 seconds =       0.01 minutes
	total time  =          2 seconds =       0.03 minutes

  //>>>>>>>>>>>>>>>>>>>>>>>>>>>>>>>>>>>>//
  // CBS Computation: MP2 / AUG-CC-PVQZ //
  //<<<<<<<<<<<<<<<<<<<<<<<<<<<<<<<<<<<<//


Scratch directory: /scratch/liuchw/

*** tstart() called on node87.bme.utexas.edu
*** at Thu Apr 23 11:56:11 2020

   => Loading Basis Set <=

    Name: AUG-CC-PVQZ
    Role: ORBITAL
    Keyword: BASIS
    atoms 1   entry O          line   423 file /home/liuchw/anaconda3/envs/psi4env/share/psi4/basis/aug-cc-pvqz.gbs 
    atoms 2-3 entry H          line    40 file /home/liuchw/anaconda3/envs/psi4env/share/psi4/basis/aug-cc-pvqz.gbs 


         ---------------------------------------------------------
                                   SCF
               by Justin Turney, Rob Parrish, Andy Simmonett
                          and Daniel G. A. Smith
                              RHF Reference
                        8 Threads,  19073 MiB Core
         ---------------------------------------------------------

  ==> Geometry <==

    Molecular point group: c1
    Full point group: C1

    Geometry (in Angstrom), charge = 0, multiplicity = 1:

       Center              X                  Y                   Z               Mass       
    ------------   -----------------  -----------------  -----------------  -----------------
         O           -2.131060209198     0.000063789656    -0.000092871023    15.994914619570
         H           -2.726680209198     0.751933789656     0.000407128977     1.007825032230
         H           -2.722220209198    -0.755316210344     0.000397128977     1.007825032230

  Running in c1 symmetry.

  Rotational constants: A =     14.72545  B =      0.19244  C =      0.18995 [cm^-1]
  Rotational constants: A = 441457.75044  B =   5769.09958  C =   5694.67989 [MHz]
  Nuclear repulsion =    9.178033599634274

  Charge       = 0
  Multiplicity = 1
  Electrons    = 10
  Nalpha       = 5
  Nbeta        = 5

  ==> Algorithm <==

  SCF Algorithm Type is DF.
  DIIS enabled.
  MOM disabled.
  Fractional occupation disabled.
  Guess Type is SAD.
  Energy threshold   = 1.00e-07
  Density threshold  = 1.00e-08
  Integral threshold = 0.00e+00

  ==> Primary Basis <==

  Basis Set: AUG-CC-PVQZ
    Blend: AUG-CC-PVQZ
    Number of shells: 48
    Number of basis function: 172
    Number of Cartesian functions: 215
    Spherical Harmonics?: true
    Max angular momentum: 4

   => Loading Basis Set <=

    Name: (AUG-CC-PVQZ AUX)
    Role: JKFIT
    Keyword: DF_BASIS_SCF
    atoms 1   entry O          line   318 file /home/liuchw/anaconda3/envs/psi4env/share/psi4/basis/aug-cc-pvqz-jkfit.gbs 
    atoms 2-3 entry H          line    70 file /home/liuchw/anaconda3/envs/psi4env/share/psi4/basis/aug-cc-pvqz-jkfit.gbs 

  ==> Pre-Iterations <==

   -------------------------------------------------------
    Irrep   Nso     Nmo     Nalpha   Nbeta   Ndocc  Nsocc
   -------------------------------------------------------
     A        172     172       0       0       0       0
   -------------------------------------------------------
    Total     172     172       5       5       5       0
   -------------------------------------------------------

  ==> Integral Setup <==

  DFHelper Memory: AOs need 0.074 GiB; user supplied 13.970 GiB. Using in-core AOs.

  ==> MemDFJK: Density-Fitted J/K Matrices <==

    J tasked:                   Yes
    K tasked:                   Yes
    wK tasked:                   No
    OpenMP threads:               8
    Memory [MiB]:             14305
    Algorithm:                 Core
    Schwarz Cutoff:           1E-12
    Mask sparsity (%):       0.0000
    Fitting Condition:        1E-10

   => Auxiliary Basis Set <=

  Basis Set: (AUG-CC-PVQZ AUX)
    Blend: AUG-CC-PVQZ-JKFIT
    Number of shells: 70
    Number of basis function: 294
    Number of Cartesian functions: 400
    Spherical Harmonics?: true
    Max angular momentum: 5

  Minimum eigenvalue in the overlap matrix is 8.7103440017E-05.
  Using Symmetric Orthogonalization.

  SCF Guess: Superposition of Atomic Densities via on-the-fly atomic UHF.

  ==> Iterations <==

                           Total Energy        Delta E     RMS |[F,P]|

   @DF-RHF iter SAD:   -75.48191864431431   -7.54819e+01   0.00000e+00 
   @DF-RHF iter   1:   -75.98104632623837   -4.99128e-01   2.72985e-03 DIIS
   @DF-RHF iter   2:   -76.03367654045880   -5.26302e-02   1.86583e-03 DIIS
   @DF-RHF iter   3:   -76.06535443682608   -3.16779e-02   1.27097e-04 DIIS
   @DF-RHF iter   4:   -76.06574424201315   -3.89805e-04   3.10793e-05 DIIS
   @DF-RHF iter   5:   -76.06576933955441   -2.50975e-05   7.03672e-06 DIIS
   @DF-RHF iter   6:   -76.06577139992302   -2.06037e-06   1.58008e-06 DIIS
   @DF-RHF iter   7:   -76.06577151511438   -1.15191e-07   2.93013e-07 DIIS
   @DF-RHF iter   8:   -76.06577151859277   -3.47839e-09   4.71057e-08 DIIS
   @DF-RHF iter   9:   -76.06577151866492   -7.21485e-11   1.12286e-08 DIIS
   @DF-RHF iter  10:   -76.06577151866864   -3.72324e-12   1.69723e-09 DIIS
  Energy and wave function converged.


  ==> Post-Iterations <==

    Orbital Energies [Eh]
    ---------------------

    Doubly Occupied:                                                      

       1A    -20.565507     2A     -1.352547     3A     -0.714890  
       4A     -0.586474     5A     -0.510608  

    Virtual:                                                              

       6A      0.026873     7A      0.043127     8A      0.114053  
       9A      0.133499    10A      0.151212    11A      0.158763  
      12A      0.184935    13A      0.197122    14A      0.209454  
      15A      0.237149    16A      0.256904    17A      0.291782  
      18A      0.357869    19A      0.390210    20A      0.469676  
      21A      0.509021    22A      0.541992    23A      0.547881  
      24A      0.556373    25A      0.614539    26A      0.632236  
      27A      0.647147    28A      0.663375    29A      0.665577  
      30A      0.684386    31A      0.706531    32A      0.719596  
      33A      0.769895    34A      0.789698    35A      0.802290  
      36A      0.802961    37A      0.842981    38A      0.853889  
      39A      0.967943    40A      1.122053    41A      1.137065  
      42A      1.209149    43A      1.332627    44A      1.441925  
      45A      1.482984    46A      1.509675    47A      1.513440  
      48A      1.526308    49A      1.553999    50A      1.589420  
      51A      1.621345    52A      1.638506    53A      1.662009  
      54A      1.664398    55A      1.688486    56A      1.702833  
      57A      1.737251    58A      1.751508    59A      1.766086  
      60A      1.775361    61A      1.844714    62A      1.864572  
      63A      1.895295    64A      1.916998    65A      1.984973  
      66A      2.007518    67A      2.033959    68A      2.040359  
      69A      2.099339    70A      2.205881    71A      2.215979  
      72A      2.314701    73A      2.435352    74A      2.627383  
      75A      2.633072    76A      2.888476    77A      2.960072  
      78A      2.994992    79A      3.041793    80A      3.056434  
      81A      3.086783    82A      3.267051    83A      3.308288  
      84A      3.311450    85A      3.488755    86A      3.588306  
      87A      3.643178    88A      3.687871    89A      3.720363  
      90A      3.783759    91A      3.923246    92A      4.078944  
      93A      4.165979    94A      4.167566    95A      4.178349  
      96A      4.178645    97A      4.231371    98A      4.329755  
      99A      4.433011   100A      4.582616   101A      4.732204  
     102A      4.745712   103A      4.777489   104A      4.780695  
     105A      4.811174   106A      4.879671   107A      4.995701  
     108A      5.235331   109A      5.313731   110A      5.524149  
     111A      5.538466   112A      5.859540   113A      5.891242  
     114A      6.075180   115A      6.237186   116A      6.823421  
     117A      6.888125   118A      6.893083   119A      6.906459  
     120A      7.733841   121A      7.778211   122A      7.785716  
     123A      7.822616   124A      7.841151   125A      7.899963  
     126A      7.925121   127A      8.022800   128A      8.163207  
     129A      8.201356   130A      8.533786   131A      8.624612  
     132A      8.656166   133A      8.691730   134A      8.791000  
     135A      8.847852   136A      8.986136   137A      9.042362  
     138A      9.226827   139A      9.675779   140A      9.906981  
     141A      9.925043   142A      9.946313   143A      9.994053  
     144A     10.326209   145A     10.451509   146A     10.676772  
     147A     11.019774   148A     11.071525   149A     11.094897  
     150A     11.269834   151A     11.308864   152A     11.413735  
     153A     11.718184   154A     11.796897   155A     11.830417  
     156A     11.990170   157A     12.205565   158A     12.208521  
     159A     12.631149   160A     12.744966   161A     12.832933  
     162A     12.910153   163A     13.173748   164A     14.006610  
     165A     14.018182   166A     14.514908   167A     14.811798  
     168A     14.912576   169A     15.263494   170A     16.843846  
     171A     17.300518   172A     45.510276  

    Final Occupation by Irrep:
              A 
    DOCC [     5 ]

  @DF-RHF Final Energy:   -76.06577151866864

   => Energetics <=

    Nuclear Repulsion Energy =              9.1780335996342739
    One-Electron Energy =                -123.0275584754124765
    Two-Electron Energy =                  37.7837533571095676
    Total Energy =                        -76.0657715186686403

Computation Completed


Properties will be evaluated at   0.000000,   0.000000,   0.000000 [a0]

Properties computed using the SCF density matrix

  Nuclear Dipole Moment: [e a0]
     X:   -42.5139      Y:    -0.0054      Z:     0.0001

  Electronic Dipole Moment: [e a0]
     X:    41.7280      Y:     0.0031      Z:     0.0005

  Dipole Moment: [e a0]
     X:    -0.7859      Y:    -0.0023      Z:     0.0007     Total:     0.7859

  Dipole Moment: [D]
     X:    -1.9976      Y:    -0.0059      Z:     0.0017     Total:     1.9976


*** tstop() called on node87.bme.utexas.edu at Thu Apr 23 11:56:13 2020
Module time:
	user time   =      11.43 seconds =       0.19 minutes
	system time =       0.38 seconds =       0.01 minutes
	total time  =          2 seconds =       0.03 minutes
Total time:
	user time   =      22.65 seconds =       0.38 minutes
	system time =       0.74 seconds =       0.01 minutes
	total time  =          4 seconds =       0.07 minutes

*** tstart() called on node87.bme.utexas.edu
*** at Thu Apr 23 11:56:13 2020


  //>>>>>>>>>>>>>>>>>>>>>>>>>>>>>>>>>>>//
  //               DFMP2               //
  //<<<<<<<<<<<<<<<<<<<<<<<<<<<<<<<<<<<//

   => Loading Basis Set <=

    Name: (AUG-CC-PVQZ AUX)
    Role: RIFIT
    Keyword: DF_BASIS_MP2
    atoms 1   entry O          line   332 file /home/liuchw/anaconda3/envs/psi4env/share/psi4/basis/aug-cc-pvqz-ri.gbs 
    atoms 2-3 entry H          line    30 file /home/liuchw/anaconda3/envs/psi4env/share/psi4/basis/aug-cc-pvqz-ri.gbs 

	 --------------------------------------------------------
	                          DF-MP2                         
	      2nd-Order Density-Fitted Moller-Plesset Theory     
	              RMP2 Wavefunction,   8 Threads             
	                                                         
	        Rob Parrish, Justin Turney, Andy Simmonett,      
	           Ed Hohenstein, and C. David Sherrill          
	 --------------------------------------------------------

   => Auxiliary Basis Set <=

  Basis Set: (AUG-CC-PVQZ AUX)
    Blend: AUG-CC-PVQZ-RI
    Number of shells: 76
    Number of basis function: 328
    Number of Cartesian functions: 447
    Spherical Harmonics?: true
    Max angular momentum: 5

	 --------------------------------------------------------
	                 NBF =   172, NAUX =   328
	 --------------------------------------------------------
	   CLASS    FOCC     OCC    AOCC    AVIR     VIR    FVIR
	   PAIRS       0       5       5     167     167       0
	 --------------------------------------------------------

	-----------------------------------------------------------
	 ==================> DF-MP2 Energies <==================== 
	-----------------------------------------------------------
	 Reference Energy          =     -76.0657715186686403 [Eh]
	 Singles Energy            =      -0.0000000000000000 [Eh]
	 Same-Spin Energy          =      -0.0727159581569956 [Eh]
	 Opposite-Spin Energy      =      -0.2442420895957322 [Eh]
	 Correlation Energy        =      -0.3169580477527278 [Eh]
	 Total Energy              =     -76.3827295664213750 [Eh]
	-----------------------------------------------------------
	 ================> DF-SCS-MP2 Energies <================== 
	-----------------------------------------------------------
	 SCS Same-Spin Scale       =       0.3333333333333333 [-]
	 SCS Opposite-Spin Scale   =       1.2000000000000000 [-]
	 SCS Same-Spin Energy      =      -0.0242386527189985 [Eh]
	 SCS Opposite-Spin Energy  =      -0.2930905075148787 [Eh]
	 SCS Correlation Energy    =      -0.3173291602338772 [Eh]
	 SCS Total Energy          =     -76.3831006789025224 [Eh]
	-----------------------------------------------------------


*** tstop() called on node87.bme.utexas.edu at Thu Apr 23 11:56:13 2020
Module time:
	user time   =       4.48 seconds =       0.07 minutes
	system time =       0.15 seconds =       0.00 minutes
	total time  =          0 seconds =       0.00 minutes
Total time:
	user time   =      27.14 seconds =       0.45 minutes
	system time =       0.89 seconds =       0.01 minutes
	total time  =          4 seconds =       0.07 minutes

  //>>>>>>>>>>>>>>>>>>>>>>>>>>>>>>>>>>>//
  //  CBS Results: mp2/aug-cc-pv[tq]z  //
  //<<<<<<<<<<<<<<<<<<<<<<<<<<<<<<<<<<<//


   ==> HF <==

   HI-zeta (4) Energy:               -76.065771518669


   ==> Helgaker 2-point correlated extrapolation for method: MP2 <==

   LO-zeta (3) Energy:               -76.344080326843
   HI-zeta (4) Energy:               -76.382729566421
   Alpha (exponent) Value:             3.000000000000
   Extrapolated Energy:              -76.410933065573

   @Extrapolated MP2/(T,Q):          -76.410933065573



   ==> Helgaker 2-point correlated extrapolation for method: HF <==

   LO-zeta (3) Energy:               -76.060387149440
   HI-zeta (4) Energy:               -76.065771518669
   Alpha (exponent) Value:             3.000000000000
   Extrapolated Energy:              -76.069700652971

   @Extrapolated HF/(T,Q):           -76.069700652971


   ==> Components <==

  ---------------------------------------------------------------------------------------------------------
                          Method / Basis                      Rqd      Energy [Eh]   Variable
  ---------------------------------------------------------------------------------------------------------
                              hf / aug-cc-pvtz                  *     -76.06038715   HF TOTAL ENERGY
                             mp2 / aug-cc-pvtz                  *     -76.34408033   MP2 TOTAL ENERGY
                              hf / aug-cc-pvqz                  *     -76.06577152   HF TOTAL ENERGY
                             mp2 / aug-cc-pvqz                  *     -76.38272957   MP2 TOTAL ENERGY
  ---------------------------------------------------------------------------------------------------------

   ==> Stages <==

  ---------------------------------------------------------------------------------------------------------
      Stage               Method / Basis                       Wt      Energy [Eh]   Scheme
  ---------------------------------------------------------------------------------------------------------
        scf                   hf / aug-cc-pvqz                  1     -76.06577152   xtpl_highest_1
       corl                  mp2 / aug-cc-pv[tq]z               1     -76.41093307   corl_xtpl_helgaker_2
       corl                   hf / aug-cc-pv[tq]z              -1     -76.06970065   corl_xtpl_helgaker_2
  ---------------------------------------------------------------------------------------------------------

   ==> CBS <==

  ---------------------------------------------------------------------------------------------------------
      Stage               Method / Basis                               Energy [Eh]   Scheme
  ---------------------------------------------------------------------------------------------------------
        scf                   hf / aug-cc-pvqz                        -76.06577152   xtpl_highest_1
       corl                  mp2 / aug-cc-pv[tq]z                      -0.34123241   corl_xtpl_helgaker_2
      total                  CBS                                      -76.40700393   
  ---------------------------------------------------------------------------------------------------------
   => Loading Basis Set <=

    Name: DEF2-SVP
    Role: ORBITAL
    Keyword: BASIS
    atoms 1   entry O          line   130 file /home/liuchw/anaconda3/envs/psi4env/share/psi4/basis/def2-svp.gbs 
    atoms 2-3 entry H          line    15 file /home/liuchw/anaconda3/envs/psi4env/share/psi4/basis/def2-svp.gbs 


       N-Body: Complex Energy (fragments = (2,), basis = (2,):   -76.40700393127099)

       N-Body: Computing complex (2/4) with fragments (2,) in the basis of fragments (1, 2).


Scratch directory: /scratch/liuchw/

  //>>>>>>>>>>>>>>>>>>>>>>>>>>>>>>>>>>>//
  //   CBS Setup: mp2/aug-cc-pv[tq]z   //
  //<<<<<<<<<<<<<<<<<<<<<<<<<<<<<<<<<<<//

    Naive listing of computations required.
             hf / aug-cc-pvqz              for  HF TOTAL ENERGY
            mp2 / aug-cc-pvtz              for  MP2 TOTAL ENERGY
            mp2 / aug-cc-pvqz              for  MP2 TOTAL ENERGY
             hf / aug-cc-pvtz              for  HF TOTAL ENERGY
             hf / aug-cc-pvqz              for  HF TOTAL ENERGY

    Enlightened listing of computations required.
            mp2 / aug-cc-pvtz              for  MP2 TOTAL ENERGY
            mp2 / aug-cc-pvqz              for  MP2 TOTAL ENERGY

    Full listing of computations to be obtained (required and bonus).
             hf / aug-cc-pvtz              for  HF TOTAL ENERGY
            mp2 / aug-cc-pvtz              for  MP2 TOTAL ENERGY
             hf / aug-cc-pvqz              for  HF TOTAL ENERGY
            mp2 / aug-cc-pvqz              for  MP2 TOTAL ENERGY

  //>>>>>>>>>>>>>>>>>>>>>>>>>>>>>>>>>>>>//
  // CBS Computation: MP2 / AUG-CC-PVTZ //
  //<<<<<<<<<<<<<<<<<<<<<<<<<<<<<<<<<<<<//


Scratch directory: /scratch/liuchw/

*** tstart() called on node87.bme.utexas.edu
*** at Thu Apr 23 11:56:14 2020

   => Loading Basis Set <=

    Name: AUG-CC-PVTZ
    Role: ORBITAL
    Keyword: BASIS
    atoms 1        entry C          line   239 file /home/liuchw/anaconda3/envs/psi4env/share/psi4/basis/aug-cc-pvtz.gbs 
    atoms 2-5, 7-8 entry H          line    40 file /home/liuchw/anaconda3/envs/psi4env/share/psi4/basis/aug-cc-pvtz.gbs 
    atoms 6        entry O          line   331 file /home/liuchw/anaconda3/envs/psi4env/share/psi4/basis/aug-cc-pvtz.gbs 


         ---------------------------------------------------------
                                   SCF
               by Justin Turney, Rob Parrish, Andy Simmonett
                          and Daniel G. A. Smith
                              RHF Reference
                        8 Threads,  19073 MiB Core
         ---------------------------------------------------------

  ==> Geometry <==

    Molecular point group: c1
    Full point group: C1

    Geometry (in Angstrom), charge = 0, multiplicity = 1:

       Center              X                  Y                   Z               Mass       
    ------------   -----------------  -----------------  -----------------  -----------------
      Gh(C)           2.468079790802     0.000113789656     0.000047128977    12.000000000000
      Gh(H)           2.832789790802    -0.471486210344     0.907587128977     1.007825032230
      Gh(H)           2.832859790802    -0.550286210344    -0.861962871023     1.007825032230
      Gh(H)           2.835169790802     1.021053789656    -0.045452871023     1.007825032230
      Gh(H)           1.382549790802     0.001733789656    -0.000062871023     1.007825032230
         O           -2.131060209198     0.000063789656    -0.000092871023    15.994914619570
         H           -2.726680209198     0.751933789656     0.000407128977     1.007825032230
         H           -2.722220209198    -0.755316210344     0.000397128977     1.007825032230

  Running in c1 symmetry.

  Rotational constants: A =      3.91513  B =      0.08944  C =      0.08890 [cm^-1]
  Rotational constants: A = 117372.59525  B =   2681.31262  C =   2665.14076 [MHz]
  Nuclear repulsion =    9.178033599634274

  Charge       = 0
  Multiplicity = 1
  Electrons    = 10
  Nalpha       = 5
  Nbeta        = 5

  ==> Algorithm <==

  SCF Algorithm Type is DF.
  DIIS enabled.
  MOM disabled.
  Fractional occupation disabled.
  Guess Type is SAD.
  Energy threshold   = 1.00e-07
  Density threshold  = 1.00e-08
  Integral threshold = 0.00e+00

  ==> Primary Basis <==

  Basis Set: AUG-CC-PVTZ
    Blend: AUG-CC-PVTZ
    Number of shells: 82
    Number of basis function: 230
    Number of Cartesian functions: 260
    Spherical Harmonics?: true
    Max angular momentum: 3

   => Loading Basis Set <=

    Name: (AUG-CC-PVTZ AUX)
    Role: JKFIT
    Keyword: DF_BASIS_SCF
    atoms 1        entry C          line   162 file /home/liuchw/anaconda3/envs/psi4env/share/psi4/basis/aug-cc-pvtz-jkfit.gbs 
    atoms 2-5, 7-8 entry H          line    70 file /home/liuchw/anaconda3/envs/psi4env/share/psi4/basis/aug-cc-pvtz-jkfit.gbs 
    atoms 6        entry O          line   286 file /home/liuchw/anaconda3/envs/psi4env/share/psi4/basis/aug-cc-pvtz-jkfit.gbs 

  ==> Pre-Iterations <==

   -------------------------------------------------------
    Irrep   Nso     Nmo     Nalpha   Nbeta   Ndocc  Nsocc
   -------------------------------------------------------
     A        230     230       0       0       0       0
   -------------------------------------------------------
    Total     230     230       5       5       5       0
   -------------------------------------------------------

  ==> Integral Setup <==

  DFHelper Memory: AOs need 0.188 GiB; user supplied 13.970 GiB. Using in-core AOs.

  ==> MemDFJK: Density-Fitted J/K Matrices <==

    J tasked:                   Yes
    K tasked:                   Yes
    wK tasked:                   No
    OpenMP threads:               8
    Memory [MiB]:             14305
    Algorithm:                 Core
    Schwarz Cutoff:           1E-12
    Mask sparsity (%):       9.6522
    Fitting Condition:        1E-10

   => Auxiliary Basis Set <=

  Basis Set: (AUG-CC-PVTZ AUX)
    Blend: AUG-CC-PVTZ-JKFIT
    Number of shells: 144
    Number of basis function: 484
    Number of Cartesian functions: 592
    Spherical Harmonics?: true
    Max angular momentum: 4

  Minimum eigenvalue in the overlap matrix is 5.6875235585E-05.
  Using Symmetric Orthogonalization.

  SCF Guess: Superposition of Atomic Densities via on-the-fly atomic UHF.

  ==> Iterations <==

                           Total Energy        Delta E     RMS |[F,P]|

   @DF-RHF iter SAD:   -75.47677682590160   -7.54768e+01   0.00000e+00 
   @DF-RHF iter   1:   -75.97596678484651   -4.99190e-01   2.03712e-03 DIIS
   @DF-RHF iter   2:   -76.02849758955459   -5.25308e-02   1.38926e-03 DIIS
   @DF-RHF iter   3:   -76.05997941229077   -3.14818e-02   9.43323e-05 DIIS
   @DF-RHF iter   4:   -76.06036713799091   -3.87726e-04   2.25662e-05 DIIS
   @DF-RHF iter   5:   -76.06039135100215   -2.42130e-05   5.12709e-06 DIIS
   @DF-RHF iter   6:   -76.06039333034416   -1.97934e-06   1.11986e-06 DIIS
   @DF-RHF iter   7:   -76.06039343414497   -1.03801e-07   2.00795e-07 DIIS
   @DF-RHF iter   8:   -76.06039343708082   -2.93585e-09   3.36709e-08 DIIS
   @DF-RHF iter   9:   -76.06039343714470   -6.38778e-11   8.20647e-09 DIIS
  Energy and wave function converged.


  ==> Post-Iterations <==

    Orbital Energies [Eh]
    ---------------------

    Doubly Occupied:                                                      

       1A    -20.567967     2A     -1.353280     3A     -0.714929  
       4A     -0.586428     5A     -0.510478  

    Virtual:                                                              

       6A      0.024678     7A      0.035768     8A      0.044223  
       9A      0.051830    10A      0.057716    11A      0.068822  
      12A      0.109535    13A      0.122291    14A      0.122967  
      15A      0.138718    16A      0.154777    17A      0.164583  
      18A      0.183187    19A      0.203142    20A      0.219806  
      21A      0.242527    22A      0.243198    23A      0.249541  
      24A      0.253292    25A      0.265356    26A      0.278754  
      27A      0.283923    28A      0.307668    29A      0.315130  
      30A      0.315401    31A      0.324324    32A      0.335533  
      33A      0.366570    34A      0.366913    35A      0.373957  
      36A      0.396574    37A      0.404095    38A      0.409534  
      39A      0.425601    40A      0.437854    41A      0.440391  
      42A      0.455429    43A      0.467332    44A      0.485071  
      45A      0.489972    46A      0.545375    47A      0.575705  
      48A      0.579870    49A      0.595194    50A      0.613202  
      51A      0.669581    52A      0.675616    53A      0.676541  
      54A      0.696750    55A      0.723359    56A      0.743936  
      57A      0.780782    58A      0.847302    59A      0.851557  
      60A      0.902829    61A      0.912862    62A      0.922590  
      63A      0.941938    64A      0.943233    65A      0.952320  
      66A      0.953641    67A      0.955434    68A      0.974474  
      69A      1.002456    70A      1.003071    71A      1.015781  
      72A      1.028230    73A      1.046142    74A      1.048768  
      75A      1.051347    76A      1.056152    77A      1.067499  
      78A      1.085490    79A      1.093615    80A      1.095455  
      81A      1.095547    82A      1.114927    83A      1.115668  
      84A      1.121742    85A      1.146773    86A      1.150386  
      87A      1.174130    88A      1.180137    89A      1.190350  
      90A      1.214506    91A      1.235858    92A      1.253707  
      93A      1.260673    94A      1.261452    95A      1.311229  
      96A      1.322561    97A      1.399523    98A      1.399953  
      99A      1.405251   100A      1.415978   101A      1.432001  
     102A      1.493171   103A      1.511338   104A      1.595232  
     105A      1.623904   106A      1.721900   107A      1.728988  
     108A      1.730854   109A      1.831244   110A      1.836885  
     111A      1.859003   112A      1.862039   113A      1.872985  
     114A      1.911497   115A      1.986381   116A      2.053534  
     117A      2.054213   118A      2.069824   119A      2.072103  
     120A      2.082469   121A      2.087275   122A      2.124602  
     123A      2.258071   124A      2.275084   125A      2.282658  
     126A      2.287961   127A      2.317019   128A      2.375241  
     129A      2.425036   130A      2.449044   131A      2.470345  
     132A      2.480276   133A      2.492457   134A      2.508764  
     135A      2.690210   136A      2.691455   137A      2.698011  
     138A      2.710317   139A      2.768413   140A      2.794691  
     141A      2.849557   142A      2.885669   143A      2.885967  
     144A      3.678070   145A      3.696996   146A      3.764125  
     147A      4.022636   148A      4.030190   149A      4.033166  
     150A      4.034858   151A      4.042253   152A      4.050022  
     153A      4.051646   154A      4.087520   155A      4.178751  
     156A      4.185293   157A      4.185955   158A      4.259853  
     159A      4.282181   160A      4.378662   161A      4.409970  
     162A      4.416934   163A      4.419028   164A      4.425257  
     165A      4.427535   166A      4.447644   167A      4.447930  
     168A      4.481482   169A      4.521287   170A      4.537431  
     171A      4.545364   172A      4.640565   173A      4.641712  
     174A      4.664875   175A      4.753953   176A      4.838189  
     177A      4.855402   178A      4.991481   179A      4.992807  
     180A      5.000689   181A      5.153136   182A      5.159472  
     183A      5.201494   184A      5.206198   185A      5.207289  
     186A      5.250734   187A      5.334391   188A      5.377027  
     189A      5.378421   190A      5.384201   191A      5.434982  
     192A      5.440180   193A      5.528866   194A      5.531857  
     195A      5.533187   196A      5.543641   197A      5.603087  
     198A      5.692176   199A      6.199820   200A      6.203924  
     201A      6.220384   202A      6.222076   203A      6.404202  
     204A      6.404909   205A      6.537910   206A      6.715563  
     207A      6.787061   208A      6.788372   209A      6.870151  
     210A      6.921552   211A      7.063992   212A      7.141736  
     213A      7.273499   214A      7.307334   215A      7.321934  
     216A      7.361079   217A      7.406578   218A      7.551323  
     219A      7.787973   220A      7.790385   221A      7.799958  
     222A      7.905816   223A      7.937672   224A      8.136974  
     225A      8.138345   226A      8.160695   227A      8.824813  
     228A     10.510949   229A     15.818768   230A     53.205396  

    Final Occupation by Irrep:
              A 
    DOCC [     5 ]

  @DF-RHF Final Energy:   -76.06039343714470

   => Energetics <=

    Nuclear Repulsion Energy =              9.1780335996342739
    One-Electron Energy =                -123.0106893963585719
    Two-Electron Energy =                  37.7722623595795994
    Total Energy =                        -76.0603934371446968

Computation Completed


Properties will be evaluated at   0.000000,   0.000000,   0.000000 [a0]

Properties computed using the SCF density matrix

  Nuclear Dipole Moment: [e a0]
     X:   -42.5139      Y:    -0.0054      Z:     0.0001

  Electronic Dipole Moment: [e a0]
     X:    41.7268      Y:     0.0031      Z:     0.0005

  Dipole Moment: [e a0]
     X:    -0.7870      Y:    -0.0023      Z:     0.0007     Total:     0.7871

  Dipole Moment: [D]
     X:    -2.0005      Y:    -0.0059      Z:     0.0017     Total:     2.0005


*** tstop() called on node87.bme.utexas.edu at Thu Apr 23 11:56:16 2020
Module time:
	user time   =      12.27 seconds =       0.20 minutes
	system time =       0.37 seconds =       0.01 minutes
	total time  =          2 seconds =       0.03 minutes
Total time:
	user time   =      41.28 seconds =       0.69 minutes
	system time =       1.32 seconds =       0.02 minutes
	total time  =          7 seconds =       0.12 minutes

*** tstart() called on node87.bme.utexas.edu
*** at Thu Apr 23 11:56:16 2020


  //>>>>>>>>>>>>>>>>>>>>>>>>>>>>>>>>>>>//
  //               DFMP2               //
  //<<<<<<<<<<<<<<<<<<<<<<<<<<<<<<<<<<<//

   => Loading Basis Set <=

    Name: (AUG-CC-PVTZ AUX)
    Role: RIFIT
    Keyword: DF_BASIS_MP2
    atoms 1        entry C          line   148 file /home/liuchw/anaconda3/envs/psi4env/share/psi4/basis/aug-cc-pvtz-ri.gbs 
    atoms 2-5, 7-8 entry H          line    30 file /home/liuchw/anaconda3/envs/psi4env/share/psi4/basis/aug-cc-pvtz-ri.gbs 
    atoms 6        entry O          line   264 file /home/liuchw/anaconda3/envs/psi4env/share/psi4/basis/aug-cc-pvtz-ri.gbs 

	 --------------------------------------------------------
	                          DF-MP2                         
	      2nd-Order Density-Fitted Moller-Plesset Theory     
	              RMP2 Wavefunction,   8 Threads             
	                                                         
	        Rob Parrish, Justin Turney, Andy Simmonett,      
	           Ed Hohenstein, and C. David Sherrill          
	 --------------------------------------------------------

   => Auxiliary Basis Set <=

  Basis Set: (AUG-CC-PVTZ AUX)
    Blend: AUG-CC-PVTZ-RI
    Number of shells: 140
    Number of basis function: 488
    Number of Cartesian functions: 602
    Spherical Harmonics?: true
    Max angular momentum: 4

	 --------------------------------------------------------
	                 NBF =   230, NAUX =   488
	 --------------------------------------------------------
	   CLASS    FOCC     OCC    AOCC    AVIR     VIR    FVIR
	   PAIRS       0       5       5     225     225       0
	 --------------------------------------------------------

	-----------------------------------------------------------
	 ==================> DF-MP2 Energies <==================== 
	-----------------------------------------------------------
	 Reference Energy          =     -76.0603934371446968 [Eh]
	 Singles Energy            =      -0.0000000000000000 [Eh]
	 Same-Spin Energy          =      -0.0683952653926117 [Eh]
	 Opposite-Spin Energy      =      -0.2153678344134262 [Eh]
	 Correlation Energy        =      -0.2837630998060380 [Eh]
	 Total Energy              =     -76.3441565369507344 [Eh]
	-----------------------------------------------------------
	 ================> DF-SCS-MP2 Energies <================== 
	-----------------------------------------------------------
	 SCS Same-Spin Scale       =       0.3333333333333333 [-]
	 SCS Opposite-Spin Scale   =       1.2000000000000000 [-]
	 SCS Same-Spin Energy      =      -0.0227984217975372 [Eh]
	 SCS Opposite-Spin Energy  =      -0.2584414012961115 [Eh]
	 SCS Correlation Energy    =      -0.2812398230936487 [Eh]
	 SCS Total Energy          =     -76.3416332602383392 [Eh]
	-----------------------------------------------------------


*** tstop() called on node87.bme.utexas.edu at Thu Apr 23 11:56:17 2020
Module time:
	user time   =       6.12 seconds =       0.10 minutes
	system time =       0.22 seconds =       0.00 minutes
	total time  =          1 seconds =       0.02 minutes
Total time:
	user time   =      47.41 seconds =       0.79 minutes
	system time =       1.54 seconds =       0.03 minutes
	total time  =          8 seconds =       0.13 minutes

  //>>>>>>>>>>>>>>>>>>>>>>>>>>>>>>>>>>>>//
  // CBS Computation: MP2 / AUG-CC-PVQZ //
  //<<<<<<<<<<<<<<<<<<<<<<<<<<<<<<<<<<<<//


Scratch directory: /scratch/liuchw/

*** tstart() called on node87.bme.utexas.edu
*** at Thu Apr 23 11:56:17 2020

   => Loading Basis Set <=

    Name: AUG-CC-PVQZ
    Role: ORBITAL
    Keyword: BASIS
    atoms 1        entry C          line   303 file /home/liuchw/anaconda3/envs/psi4env/share/psi4/basis/aug-cc-pvqz.gbs 
    atoms 2-5, 7-8 entry H          line    40 file /home/liuchw/anaconda3/envs/psi4env/share/psi4/basis/aug-cc-pvqz.gbs 
    atoms 6        entry O          line   423 file /home/liuchw/anaconda3/envs/psi4env/share/psi4/basis/aug-cc-pvqz.gbs 


         ---------------------------------------------------------
                                   SCF
               by Justin Turney, Rob Parrish, Andy Simmonett
                          and Daniel G. A. Smith
                              RHF Reference
                        8 Threads,  19073 MiB Core
         ---------------------------------------------------------

  ==> Geometry <==

    Molecular point group: c1
    Full point group: C1

    Geometry (in Angstrom), charge = 0, multiplicity = 1:

       Center              X                  Y                   Z               Mass       
    ------------   -----------------  -----------------  -----------------  -----------------
      Gh(C)           2.468079790802     0.000113789656     0.000047128977    12.000000000000
      Gh(H)           2.832789790802    -0.471486210344     0.907587128977     1.007825032230
      Gh(H)           2.832859790802    -0.550286210344    -0.861962871023     1.007825032230
      Gh(H)           2.835169790802     1.021053789656    -0.045452871023     1.007825032230
      Gh(H)           1.382549790802     0.001733789656    -0.000062871023     1.007825032230
         O           -2.131060209198     0.000063789656    -0.000092871023    15.994914619570
         H           -2.726680209198     0.751933789656     0.000407128977     1.007825032230
         H           -2.722220209198    -0.755316210344     0.000397128977     1.007825032230

  Running in c1 symmetry.

  Rotational constants: A =      3.91513  B =      0.08944  C =      0.08890 [cm^-1]
  Rotational constants: A = 117372.59525  B =   2681.31262  C =   2665.14076 [MHz]
  Nuclear repulsion =    9.178033599634274

  Charge       = 0
  Multiplicity = 1
  Electrons    = 10
  Nalpha       = 5
  Nbeta        = 5

  ==> Algorithm <==

  SCF Algorithm Type is DF.
  DIIS enabled.
  MOM disabled.
  Fractional occupation disabled.
  Guess Type is SAD.
  Energy threshold   = 1.00e-07
  Density threshold  = 1.00e-08
  Integral threshold = 0.00e+00

  ==> Primary Basis <==

  Basis Set: AUG-CC-PVQZ
    Blend: AUG-CC-PVQZ
    Number of shells: 124
    Number of basis function: 436
    Number of Cartesian functions: 540
    Spherical Harmonics?: true
    Max angular momentum: 4

   => Loading Basis Set <=

    Name: (AUG-CC-PVQZ AUX)
    Role: JKFIT
    Keyword: DF_BASIS_SCF
    atoms 1        entry C          line   178 file /home/liuchw/anaconda3/envs/psi4env/share/psi4/basis/aug-cc-pvqz-jkfit.gbs 
    atoms 2-5, 7-8 entry H          line    70 file /home/liuchw/anaconda3/envs/psi4env/share/psi4/basis/aug-cc-pvqz-jkfit.gbs 
    atoms 6        entry O          line   318 file /home/liuchw/anaconda3/envs/psi4env/share/psi4/basis/aug-cc-pvqz-jkfit.gbs 

  ==> Pre-Iterations <==

   -------------------------------------------------------
    Irrep   Nso     Nmo     Nalpha   Nbeta   Ndocc  Nsocc
   -------------------------------------------------------
     A        436     436       0       0       0       0
   -------------------------------------------------------
    Total     436     436       5       5       5       0
   -------------------------------------------------------

  ==> Integral Setup <==

  DFHelper Memory: AOs need 0.957 GiB; user supplied 13.970 GiB. Using in-core AOs.

  ==> MemDFJK: Density-Fitted J/K Matrices <==

    J tasked:                   Yes
    K tasked:                   Yes
    wK tasked:                   No
    OpenMP threads:               8
    Memory [MiB]:             14305
    Algorithm:                 Core
    Schwarz Cutoff:           1E-12
    Mask sparsity (%):      14.6158
    Fitting Condition:        1E-10

   => Auxiliary Basis Set <=

  Basis Set: (AUG-CC-PVQZ AUX)
    Blend: AUG-CC-PVQZ-JKFIT
    Number of shells: 176
    Number of basis function: 740
    Number of Cartesian functions: 1002
    Spherical Harmonics?: true
    Max angular momentum: 5

  Minimum eigenvalue in the overlap matrix is 1.5434846942E-05.
  Using Symmetric Orthogonalization.

  SCF Guess: Superposition of Atomic Densities via on-the-fly atomic UHF.

  ==> Iterations <==

                           Total Energy        Delta E     RMS |[F,P]|

   @DF-RHF iter SAD:   -75.48191863979849   -7.54819e+01   0.00000e+00 
   @DF-RHF iter   1:   -75.98104884029107   -4.99130e-01   1.07692e-03 DIIS
   @DF-RHF iter   2:   -76.03367985779217   -5.26310e-02   7.36091e-04 DIIS
   @DF-RHF iter   3:   -76.06535934542049   -3.16795e-02   5.01403e-05 DIIS
   @DF-RHF iter   4:   -76.06574915756498   -3.89812e-04   1.22605e-05 DIIS
   @DF-RHF iter   5:   -76.06577425432820   -2.50968e-05   2.77612e-06 DIIS
   @DF-RHF iter   6:   -76.06577631477339   -2.06045e-06   6.23254e-07 DIIS
   @DF-RHF iter   7:   -76.06577642992546   -1.15152e-07   1.15606e-07 DIIS
   @DF-RHF iter   8:   -76.06577643340566   -3.48020e-09   1.85904e-08 DIIS
   @DF-RHF iter   9:   -76.06577643347879   -7.31291e-11   4.43285e-09 DIIS
  Energy and wave function converged.


  ==> Post-Iterations <==

    Orbital Energies [Eh]
    ---------------------

    Doubly Occupied:                                                      

       1A    -20.565503     2A     -1.352544     3A     -0.714888  
       4A     -0.586475     5A     -0.510603  

    Virtual:                                                              

       6A      0.022266     7A      0.032790     8A      0.039763  
       9A      0.046840    10A      0.052729    11A      0.062382  
      12A      0.097690    13A      0.106660    14A      0.108099  
      15A      0.121981    16A      0.135244    17A      0.139963  
      18A      0.158979    19A      0.175416    20A      0.181806  
      21A      0.192607    22A      0.198416    23A      0.205860  
      24A      0.208456    25A      0.224824    26A      0.241573  
      27A      0.248080    28A      0.251333    29A      0.264675  
      30A      0.265347    31A      0.270409    32A      0.284302  
      33A      0.288921    34A      0.290808    35A      0.297396  
      36A      0.302624    37A      0.311010    38A      0.322312  
      39A      0.338167    40A      0.353097    41A      0.366841  
      42A      0.368428    43A      0.391204    44A      0.406582  
      45A      0.409897    46A      0.416377    47A      0.417524  
      48A      0.471886    49A      0.492830    50A      0.497247  
      51A      0.520669    52A      0.544817    53A      0.549215  
      54A      0.552028    55A      0.580946    56A      0.586620  
      57A      0.611028    58A      0.639967    59A      0.644433  
      60A      0.645816    61A      0.669851    62A      0.674746  
      63A      0.675199    64A      0.679872    65A      0.698254  
      66A      0.713519    67A      0.717574    68A      0.721950  
      69A      0.734679    70A      0.749874    71A      0.756624  
      72A      0.760288    73A      0.772626    74A      0.774578  
      75A      0.783293    76A      0.793977    77A      0.798097  
      78A      0.807270    79A      0.811194    80A      0.813112  
      81A      0.815162    82A      0.826701    83A      0.841569  
      84A      0.847439    85A      0.860674    86A      0.865570  
      87A      0.884619    88A      0.886362    89A      0.914730  
      90A      0.920121    91A      0.932297    92A      0.935119  
      93A      0.949583    94A      0.952531    95A      0.988406  
      96A      1.011841    97A      1.077949    98A      1.079755  
      99A      1.090806   100A      1.096891   101A      1.099767  
     102A      1.121019   103A      1.132260   104A      1.148955  
     105A      1.155563   106A      1.162529   107A      1.210555  
     108A      1.227733   109A      1.267654   110A      1.272855  
     111A      1.279612   112A      1.378209   113A      1.393669  
     114A      1.455756   115A      1.470694   116A      1.479512  
     117A      1.486068   118A      1.506464   119A      1.525420  
     120A      1.527338   121A      1.554728   122A      1.562056  
     123A      1.588869   124A      1.602109   125A      1.607193  
     126A      1.624182   127A      1.632049   128A      1.641346  
     129A      1.645835   130A      1.656826   131A      1.669461  
     132A      1.670812   133A      1.682950   134A      1.702265  
     135A      1.717775   136A      1.748753   137A      1.750242  
     138A      1.758010   139A      1.799532   140A      1.804751  
     141A      1.824054   142A      1.835712   143A      1.841942  
     144A      1.857442   145A      1.864193   146A      1.882715  
     147A      1.884603   148A      1.905330   149A      1.907194  
     150A      1.915647   151A      1.928488   152A      1.933683  
     153A      1.940431   154A      1.950019   155A      1.961688  
     156A      1.963271   157A      1.982655   158A      1.985597  
     159A      2.011886   160A      2.047873   161A      2.048673  
     162A      2.072223   163A      2.073413   164A      2.088424  
     165A      2.092440   166A      2.117250   167A      2.136894  
     168A      2.139458   169A      2.152516   170A      2.186038  
     171A      2.189301   172A      2.199206   173A      2.200923  
     174A      2.216127   175A      2.224452   176A      2.225782  
     177A      2.255234   178A      2.276874   179A      2.284859  
     180A      2.292563   181A      2.297258   182A      2.356521  
     183A      2.366763   184A      2.370710   185A      2.382405  
     186A      2.462196   187A      2.534758   188A      2.543335  
     189A      2.553598   190A      2.638537   191A      2.641073  
     192A      2.644434   193A      2.770522   194A      2.778062  
     195A      2.779989   196A      2.867295   197A      2.872115  
     198A      2.894222   199A      2.934939   200A      2.964153  
     201A      2.994099   202A      3.004941   203A      3.010199  
     204A      3.012791   205A      3.030306   206A      3.036677  
     207A      3.054248   208A      3.096235   209A      3.102665  
     210A      3.147633   211A      3.150567   212A      3.152449  
     213A      3.229077   214A      3.238921   215A      3.239976  
     216A      3.289027   217A      3.294257   218A      3.309373  
     219A      3.313624   220A      3.313844   221A      3.321720  
     222A      3.354947   223A      3.423936   224A      3.424317  
     225A      3.503647   226A      3.519905   227A      3.604392  
     228A      3.610597   229A      3.641058   230A      3.644275  
     231A      3.736499   232A      3.802475   233A      3.807564  
     234A      3.857152   235A      3.868053   236A      3.875139  
     237A      3.916173   238A      3.919482   239A      3.938770  
     240A      3.947794   241A      4.059129   242A      4.066487  
     243A      4.068824   244A      4.087798   245A      4.131143  
     246A      4.167138   247A      4.174598   248A      4.190983  
     249A      4.213504   250A      4.239866   251A      4.322554  
     252A      4.325345   253A      4.327467   254A      4.400580  
     255A      4.407322   256A      4.409119   257A      4.486301  
     258A      4.597657   259A      4.652387   260A      4.658383  
     261A      4.660424   262A      4.685112   263A      4.733722  
     264A      4.778113   265A      4.779687   266A      4.792912  
     267A      4.812820   268A      4.840024   269A      4.843945  
     270A      4.880734   271A      5.025981   272A      5.035440  
     273A      5.039402   274A      5.094555   275A      5.212646  
     276A      5.228790   277A      5.231522   278A      5.254157  
     279A      5.324867   280A      5.460950   281A      5.463557  
     282A      5.471763   283A      5.474244   284A      5.534312  
     285A      5.581316   286A      5.892948   287A      5.894829  
     288A      6.092515   289A      6.272791   290A      6.627838  
     291A      6.629822   292A      6.779795   293A      6.783242  
     294A      6.802638   295A      6.835283   296A      6.850255  
     297A      6.850688   298A      6.856260   299A      6.888347  
     300A      6.891054   301A      6.896498   302A      6.932203  
     303A      6.950861   304A      7.121864   305A      7.122183  
     306A      7.124811   307A      7.384059   308A      7.385800  
     309A      7.388068   310A      7.522462   311A      7.529752  
     312A      7.537049   313A      7.660819   314A      7.662283  
     315A      7.682677   316A      7.739386   317A      7.778367  
     318A      7.796804   319A      7.807265   320A      7.824873  
     321A      7.842659   322A      7.908267   323A      7.915588  
     324A      7.918985   325A      7.941350   326A      7.943372  
     327A      8.038523   328A      8.111158   329A      8.195446  
     330A      8.202546   331A      8.210949   332A      8.211761  
     333A      8.216672   334A      8.504355   335A      8.504426  
     336A      8.508452   337A      8.538770   338A      8.573496  
     339A      8.625722   340A      8.634000   341A      8.634556  
     342A      8.656348   343A      8.698615   344A      8.805749  
     345A      8.854113   346A      8.927880   347A      8.929086  
     348A      8.941693   349A      8.943557   350A      8.949390  
     351A      8.986975   352A      9.047541   353A      9.275331  
     354A      9.324460   355A      9.326029   356A      9.418638  
     357A      9.631976   358A      9.645617   359A      9.645786  
     360A      9.678618   361A      9.720512   362A      9.722527  
     363A      9.726776   364A      9.731876   365A      9.732467  
     366A      9.874827   367A      9.875330   368A      9.876290  
     369A      9.922753   370A      9.949551   371A      9.953855  
     372A      9.994569   373A     10.062123   374A     10.064472  
     375A     10.086999   376A     10.153041   377A     10.159769  
     378A     10.162932   379A     10.338131   380A     10.472076  
     381A     10.534976   382A     10.537723   383A     10.720927  
     384A     10.721953   385A     10.736520   386A     10.802700  
     387A     10.813116   388A     10.814725   389A     10.818180  
     390A     10.911304   391A     10.914842   392A     11.029962  
     393A     11.096679   394A     11.107797   395A     11.279546  
     396A     11.309915   397A     11.327627   398A     11.329035  
     399A     11.336340   400A     11.443218   401A     11.718917  
     402A     11.819316   403A     11.832363   404A     12.006624  
     405A     12.110122   406A     12.112992   407A     12.130163  
     408A     12.208100   409A     12.218340   410A     12.266478  
     411A     12.360480   412A     12.375689   413A     12.378935  
     414A     12.643521   415A     12.763339   416A     12.835661  
     417A     12.911229   418A     13.181231   419A     13.230585  
     420A     13.232288   421A     13.248903   422A     14.008651  
     423A     14.034210   424A     14.516561   425A     14.812135  
     426A     14.919582   427A     15.267001   428A     15.322045  
     429A     16.286052   430A     16.922670   431A     17.299505  
     432A     17.308130   433A     17.329966   434A     17.356740  
     435A     45.648206   436A     73.066765  

    Final Occupation by Irrep:
              A 
    DOCC [     5 ]

  @DF-RHF Final Energy:   -76.06577643347879

   => Energetics <=

    Nuclear Repulsion Energy =              9.1780335996342739
    One-Electron Energy =                -123.0275914831245245
    Two-Electron Energy =                  37.7837814500114604
    Total Energy =                        -76.0657764334787885

Computation Completed


Properties will be evaluated at   0.000000,   0.000000,   0.000000 [a0]

Properties computed using the SCF density matrix

  Nuclear Dipole Moment: [e a0]
     X:   -42.5139      Y:    -0.0054      Z:     0.0001

  Electronic Dipole Moment: [e a0]
     X:    41.7279      Y:     0.0031      Z:     0.0005

  Dipole Moment: [e a0]
     X:    -0.7860      Y:    -0.0023      Z:     0.0007     Total:     0.7860

  Dipole Moment: [D]
     X:    -1.9977      Y:    -0.0059      Z:     0.0017     Total:     1.9977


*** tstop() called on node87.bme.utexas.edu at Thu Apr 23 11:56:22 2020
Module time:
	user time   =      34.94 seconds =       0.58 minutes
	system time =       0.91 seconds =       0.02 minutes
	total time  =          5 seconds =       0.08 minutes
Total time:
	user time   =      82.40 seconds =       1.37 minutes
	system time =       2.46 seconds =       0.04 minutes
	total time  =         13 seconds =       0.22 minutes

*** tstart() called on node87.bme.utexas.edu
*** at Thu Apr 23 11:56:22 2020


  //>>>>>>>>>>>>>>>>>>>>>>>>>>>>>>>>>>>//
  //               DFMP2               //
  //<<<<<<<<<<<<<<<<<<<<<<<<<<<<<<<<<<<//

   => Loading Basis Set <=

    Name: (AUG-CC-PVQZ AUX)
    Role: RIFIT
    Keyword: DF_BASIS_MP2
    atoms 1        entry C          line   184 file /home/liuchw/anaconda3/envs/psi4env/share/psi4/basis/aug-cc-pvqz-ri.gbs 
    atoms 2-5, 7-8 entry H          line    30 file /home/liuchw/anaconda3/envs/psi4env/share/psi4/basis/aug-cc-pvqz-ri.gbs 
    atoms 6        entry O          line   332 file /home/liuchw/anaconda3/envs/psi4env/share/psi4/basis/aug-cc-pvqz-ri.gbs 

	 --------------------------------------------------------
	                          DF-MP2                         
	      2nd-Order Density-Fitted Moller-Plesset Theory     
	              RMP2 Wavefunction,   8 Threads             
	                                                         
	        Rob Parrish, Justin Turney, Andy Simmonett,      
	           Ed Hohenstein, and C. David Sherrill          
	 --------------------------------------------------------

   => Auxiliary Basis Set <=

  Basis Set: (AUG-CC-PVQZ AUX)
    Blend: AUG-CC-PVQZ-RI
    Number of shells: 192
    Number of basis function: 816
    Number of Cartesian functions: 1104
    Spherical Harmonics?: true
    Max angular momentum: 5

	 --------------------------------------------------------
	                 NBF =   436, NAUX =   816
	 --------------------------------------------------------
	   CLASS    FOCC     OCC    AOCC    AVIR     VIR    FVIR
	   PAIRS       0       5       5     431     431       0
	 --------------------------------------------------------

	-----------------------------------------------------------
	 ==================> DF-MP2 Energies <==================== 
	-----------------------------------------------------------
	 Reference Energy          =     -76.0657764334787885 [Eh]
	 Singles Energy            =      -0.0000000000000000 [Eh]
	 Same-Spin Energy          =      -0.0727208192713122 [Eh]
	 Opposite-Spin Energy      =      -0.2442737399199914 [Eh]
	 Correlation Energy        =      -0.3169945591913036 [Eh]
	 Total Energy              =     -76.3827709926700891 [Eh]
	-----------------------------------------------------------
	 ================> DF-SCS-MP2 Energies <================== 
	-----------------------------------------------------------
	 SCS Same-Spin Scale       =       0.3333333333333333 [-]
	 SCS Opposite-Spin Scale   =       1.2000000000000000 [-]
	 SCS Same-Spin Energy      =      -0.0242402730904374 [Eh]
	 SCS Opposite-Spin Energy  =      -0.2931284879039897 [Eh]
	 SCS Correlation Energy    =      -0.3173687609944271 [Eh]
	 SCS Total Energy          =     -76.3831451944732152 [Eh]
	-----------------------------------------------------------


*** tstop() called on node87.bme.utexas.edu at Thu Apr 23 11:56:26 2020
Module time:
	user time   =      16.30 seconds =       0.27 minutes
	system time =       0.49 seconds =       0.01 minutes
	total time  =          4 seconds =       0.07 minutes
Total time:
	user time   =      98.71 seconds =       1.65 minutes
	system time =       2.95 seconds =       0.05 minutes
	total time  =         17 seconds =       0.28 minutes

  //>>>>>>>>>>>>>>>>>>>>>>>>>>>>>>>>>>>//
  //  CBS Results: mp2/aug-cc-pv[tq]z  //
  //<<<<<<<<<<<<<<<<<<<<<<<<<<<<<<<<<<<//


   ==> HF <==

   HI-zeta (4) Energy:               -76.065776433479


   ==> Helgaker 2-point correlated extrapolation for method: MP2 <==

   LO-zeta (3) Energy:               -76.344156536951
   HI-zeta (4) Energy:               -76.382770992670
   Alpha (exponent) Value:             3.000000000000
   Extrapolated Energy:              -76.410949109006

   @Extrapolated MP2/(T,Q):          -76.410949109006



   ==> Helgaker 2-point correlated extrapolation for method: HF <==

   LO-zeta (3) Energy:               -76.060393437145
   HI-zeta (4) Energy:               -76.065776433479
   Alpha (exponent) Value:             3.000000000000
   Extrapolated Energy:              -76.069704565939

   @Extrapolated HF/(T,Q):           -76.069704565939


   ==> Components <==

  ---------------------------------------------------------------------------------------------------------
                          Method / Basis                      Rqd      Energy [Eh]   Variable
  ---------------------------------------------------------------------------------------------------------
                              hf / aug-cc-pvtz                  *     -76.06039344   HF TOTAL ENERGY
                             mp2 / aug-cc-pvtz                  *     -76.34415654   MP2 TOTAL ENERGY
                              hf / aug-cc-pvqz                  *     -76.06577643   HF TOTAL ENERGY
                             mp2 / aug-cc-pvqz                  *     -76.38277099   MP2 TOTAL ENERGY
  ---------------------------------------------------------------------------------------------------------

   ==> Stages <==

  ---------------------------------------------------------------------------------------------------------
      Stage               Method / Basis                       Wt      Energy [Eh]   Scheme
  ---------------------------------------------------------------------------------------------------------
        scf                   hf / aug-cc-pvqz                  1     -76.06577643   xtpl_highest_1
       corl                  mp2 / aug-cc-pv[tq]z               1     -76.41094911   corl_xtpl_helgaker_2
       corl                   hf / aug-cc-pv[tq]z              -1     -76.06970457   corl_xtpl_helgaker_2
  ---------------------------------------------------------------------------------------------------------

   ==> CBS <==

  ---------------------------------------------------------------------------------------------------------
      Stage               Method / Basis                               Energy [Eh]   Scheme
  ---------------------------------------------------------------------------------------------------------
        scf                   hf / aug-cc-pvqz                        -76.06577643   xtpl_highest_1
       corl                  mp2 / aug-cc-pv[tq]z                      -0.34124454   corl_xtpl_helgaker_2
      total                  CBS                                      -76.40702098   
  ---------------------------------------------------------------------------------------------------------
   => Loading Basis Set <=

    Name: DEF2-SVP
    Role: ORBITAL
    Keyword: BASIS
    atoms 1        entry C          line    90 file /home/liuchw/anaconda3/envs/psi4env/share/psi4/basis/def2-svp.gbs 
    atoms 2-5, 7-8 entry H          line    15 file /home/liuchw/anaconda3/envs/psi4env/share/psi4/basis/def2-svp.gbs 
    atoms 6        entry O          line   130 file /home/liuchw/anaconda3/envs/psi4env/share/psi4/basis/def2-svp.gbs 


       N-Body: Complex Energy (fragments = (2,), basis = (1, 2):   -76.40702097654584)

       N-Body: Computing complex (3/4) with fragments (1,) in the basis of fragments (1, 2).


Scratch directory: /scratch/liuchw/

  //>>>>>>>>>>>>>>>>>>>>>>>>>>>>>>>>>>>//
  //   CBS Setup: mp2/aug-cc-pv[tq]z   //
  //<<<<<<<<<<<<<<<<<<<<<<<<<<<<<<<<<<<//

    Naive listing of computations required.
             hf / aug-cc-pvqz              for  HF TOTAL ENERGY
            mp2 / aug-cc-pvtz              for  MP2 TOTAL ENERGY
            mp2 / aug-cc-pvqz              for  MP2 TOTAL ENERGY
             hf / aug-cc-pvtz              for  HF TOTAL ENERGY
             hf / aug-cc-pvqz              for  HF TOTAL ENERGY

    Enlightened listing of computations required.
            mp2 / aug-cc-pvtz              for  MP2 TOTAL ENERGY
            mp2 / aug-cc-pvqz              for  MP2 TOTAL ENERGY

    Full listing of computations to be obtained (required and bonus).
             hf / aug-cc-pvtz              for  HF TOTAL ENERGY
            mp2 / aug-cc-pvtz              for  MP2 TOTAL ENERGY
             hf / aug-cc-pvqz              for  HF TOTAL ENERGY
            mp2 / aug-cc-pvqz              for  MP2 TOTAL ENERGY

  //>>>>>>>>>>>>>>>>>>>>>>>>>>>>>>>>>>>>//
  // CBS Computation: MP2 / AUG-CC-PVTZ //
  //<<<<<<<<<<<<<<<<<<<<<<<<<<<<<<<<<<<<//


Scratch directory: /scratch/liuchw/

*** tstart() called on node87.bme.utexas.edu
*** at Thu Apr 23 11:56:26 2020

   => Loading Basis Set <=

    Name: AUG-CC-PVTZ
    Role: ORBITAL
    Keyword: BASIS
    atoms 1        entry C          line   239 file /home/liuchw/anaconda3/envs/psi4env/share/psi4/basis/aug-cc-pvtz.gbs 
    atoms 2-5, 7-8 entry H          line    40 file /home/liuchw/anaconda3/envs/psi4env/share/psi4/basis/aug-cc-pvtz.gbs 
    atoms 6        entry O          line   331 file /home/liuchw/anaconda3/envs/psi4env/share/psi4/basis/aug-cc-pvtz.gbs 


         ---------------------------------------------------------
                                   SCF
               by Justin Turney, Rob Parrish, Andy Simmonett
                          and Daniel G. A. Smith
                              RHF Reference
                        8 Threads,  19073 MiB Core
         ---------------------------------------------------------

  ==> Geometry <==

    Molecular point group: c1
    Full point group: C1

    Geometry (in Angstrom), charge = 0, multiplicity = 1:

       Center              X                  Y                   Z               Mass       
    ------------   -----------------  -----------------  -----------------  -----------------
         C            2.468079790802     0.000113789656     0.000047128977    12.000000000000
         H            2.832789790802    -0.471486210344     0.907587128977     1.007825032230
         H            2.832859790802    -0.550286210344    -0.861962871023     1.007825032230
         H            2.835169790802     1.021053789656    -0.045452871023     1.007825032230
         H            1.382549790802     0.001733789656    -0.000062871023     1.007825032230
      Gh(O)          -2.131060209198     0.000063789656    -0.000092871023    15.994914619570
      Gh(H)          -2.726680209198     0.751933789656     0.000407128977     1.007825032230
      Gh(H)          -2.722220209198    -0.755316210344     0.000397128977     1.007825032230

  Running in c1 symmetry.

  Rotational constants: A =      3.91513  B =      0.08944  C =      0.08890 [cm^-1]
  Rotational constants: A = 117372.59525  B =   2681.31262  C =   2665.14076 [MHz]
  Nuclear repulsion =   13.487669099021458

  Charge       = 0
  Multiplicity = 1
  Electrons    = 10
  Nalpha       = 5
  Nbeta        = 5

  ==> Algorithm <==

  SCF Algorithm Type is DF.
  DIIS enabled.
  MOM disabled.
  Fractional occupation disabled.
  Guess Type is SAD.
  Energy threshold   = 1.00e-07
  Density threshold  = 1.00e-08
  Integral threshold = 0.00e+00

  ==> Primary Basis <==

  Basis Set: AUG-CC-PVTZ
    Blend: AUG-CC-PVTZ
    Number of shells: 82
    Number of basis function: 230
    Number of Cartesian functions: 260
    Spherical Harmonics?: true
    Max angular momentum: 3

   => Loading Basis Set <=

    Name: (AUG-CC-PVTZ AUX)
    Role: JKFIT
    Keyword: DF_BASIS_SCF
    atoms 1        entry C          line   162 file /home/liuchw/anaconda3/envs/psi4env/share/psi4/basis/aug-cc-pvtz-jkfit.gbs 
    atoms 2-5, 7-8 entry H          line    70 file /home/liuchw/anaconda3/envs/psi4env/share/psi4/basis/aug-cc-pvtz-jkfit.gbs 
    atoms 6        entry O          line   286 file /home/liuchw/anaconda3/envs/psi4env/share/psi4/basis/aug-cc-pvtz-jkfit.gbs 

  ==> Pre-Iterations <==

   -------------------------------------------------------
    Irrep   Nso     Nmo     Nalpha   Nbeta   Ndocc  Nsocc
   -------------------------------------------------------
     A        230     230       0       0       0       0
   -------------------------------------------------------
    Total     230     230       5       5       5       0
   -------------------------------------------------------

  ==> Integral Setup <==

  DFHelper Memory: AOs need 0.188 GiB; user supplied 13.970 GiB. Using in-core AOs.

  ==> MemDFJK: Density-Fitted J/K Matrices <==

    J tasked:                   Yes
    K tasked:                   Yes
    wK tasked:                   No
    OpenMP threads:               8
    Memory [MiB]:             14305
    Algorithm:                 Core
    Schwarz Cutoff:           1E-12
    Mask sparsity (%):       9.6522
    Fitting Condition:        1E-10

   => Auxiliary Basis Set <=

  Basis Set: (AUG-CC-PVTZ AUX)
    Blend: AUG-CC-PVTZ-JKFIT
    Number of shells: 144
    Number of basis function: 484
    Number of Cartesian functions: 592
    Spherical Harmonics?: true
    Max angular momentum: 4

  Minimum eigenvalue in the overlap matrix is 5.6875235585E-05.
  Using Symmetric Orthogonalization.

  SCF Guess: Superposition of Atomic Densities via on-the-fly atomic UHF.

  ==> Iterations <==

                           Total Energy        Delta E     RMS |[F,P]|

   @DF-RHF iter SAD:   -39.63338092639792   -3.96334e+01   0.00000e+00 
   @DF-RHF iter   1:   -40.13700922730920   -5.03628e-01   1.60578e-03 DIIS
   @DF-RHF iter   2:   -40.20136894216248   -6.43597e-02   6.69022e-04 DIIS
[...]
   @DF-RHF iter   3:  -116.28073789327173   -4.25706e-02   9.90001e-05 DIIS
   @DF-RHF iter   4:  -116.28209560168519   -1.35771e-03   3.77618e-05 DIIS
   @DF-RHF iter   5:  -116.28229682737046   -2.01226e-04   6.14631e-06 DIIS
   @DF-RHF iter   6:  -116.28230413226179   -7.30489e-06   1.08819e-06 DIIS
   @DF-RHF iter   7:  -116.28230444137499   -3.09113e-07   3.22264e-07 DIIS
   @DF-RHF iter   8:  -116.28230447046172   -2.90867e-08   7.41611e-08 DIIS
   @DF-RHF iter   9:  -116.28230447195996   -1.49824e-09   9.22876e-09 DIIS
  Energy and wave function converged.


  ==> Post-Iterations <==

    Orbital Energies [Eh]
    ---------------------

    Doubly Occupied:                                                      

       1A    -20.566586     2A    -11.193770     3A     -1.353661  
       4A     -0.933771     5A     -0.715985     6A     -0.587923  
       7A     -0.535693     8A     -0.535616     9A     -0.534945  
      10A     -0.511743  

    Virtual:                                                              

      11A      0.023793    12A      0.036800    13A      0.040395  
      14A      0.048833    15A      0.053807    16A      0.065437  
      17A      0.110233    18A      0.113443    19A      0.118311  
      20A      0.129157    21A      0.142193    22A      0.142656  
      23A      0.158358    24A      0.181580    25A      0.182773  
      26A      0.192805    27A      0.196224    28A      0.207226  
      29A      0.207422    30A      0.216893    31A      0.241195  
      32A      0.251595    33A      0.266339    34A      0.277684  
      35A      0.281315    36A      0.281417    37A      0.286511  
      38A      0.288351    39A      0.298145    40A      0.302138  
      41A      0.310113    42A      0.320503    43A      0.331524  
      44A      0.339824    45A      0.345205    46A      0.366642  
      47A      0.368672    48A      0.390408    49A      0.400109  
      50A      0.400893    51A      0.405496    52A      0.407258  
      53A      0.467833    54A      0.479367    55A      0.532933  
      56A      0.534064    57A      0.546818    58A      0.569508  
      59A      0.571434    60A      0.573879    61A      0.580061  
      62A      0.598253    63A      0.607152    64A      0.633066  
      65A      0.643191    66A      0.660841    67A      0.666499  
      68A      0.686511    69A      0.691614    70A      0.691814  
      71A      0.695160    72A      0.705399    73A      0.710015  
      74A      0.738691    75A      0.740125    76A      0.741517  
      77A      0.746311    78A      0.748267    79A      0.759286  
      80A      0.763147    81A      0.777302    82A      0.782732  
      83A      0.784317    84A      0.786194    85A      0.802205  
      86A      0.804657    87A      0.805179    88A      0.806567  
      89A      0.822077    90A      0.843391    91A      0.847732  
      92A      0.880314    93A      0.884468    94A      0.907622  
      95A      0.914735    96A      0.918172    97A      0.935472  
      98A      0.936898    99A      0.966884   100A      0.985138  
     101A      1.005167   102A      1.041207   103A      1.076669  
     104A      1.086607   105A      1.101584   106A      1.116883  
     107A      1.138040   108A      1.138928   109A      1.159712  
     110A      1.166975   111A      1.173996   112A      1.195950  
     113A      1.221570   114A      1.263370   115A      1.265021  
     116A      1.267196   117A      1.373454   118A      1.377173  
     119A      1.389755   120A      1.398427   121A      1.457318  
     122A      1.501688   123A      1.505481   124A      1.507677  
     125A      1.519190   126A      1.523257   127A      1.525136  
     128A      1.553336   129A      1.556756   130A      1.568459  
     131A      1.573813   132A      1.586752   133A      1.597216  
     134A      1.619258   135A      1.629113   136A      1.652403  
     137A      1.657001   138A      1.673165   139A      1.696333  
     140A      1.706011   141A      1.745824   142A      1.769925  
     143A      1.789095   144A      1.800225   145A      1.830878  
     146A      1.834551   147A      1.845953   148A      1.852796  
     149A      1.856820   150A      1.861408   151A      1.865968  
     152A      1.885105   153A      1.889720   154A      1.893358  
     155A      1.896536   156A      1.911671   157A      1.920574  
     158A      1.930069   159A      1.932215   160A      1.933529  
     161A      1.962105   162A      1.976836   163A      1.983614  
     164A      2.010632   165A      2.010869   166A      2.021943  
     167A      2.024535   168A      2.043000   169A      2.045665  
     170A      2.063906   171A      2.069701   172A      2.092883  
     173A      2.108826   174A      2.112185   175A      2.119596  
     176A      2.122436   177A      2.137108   178A      2.152770  
     179A      2.166805   180A      2.201186   181A      2.213350  
     182A      2.223730   183A      2.248245   184A      2.261008  
     185A      2.263379   186A      2.300023   187A      2.303195  
     188A      2.312342   189A      2.353938   190A      2.358220  
     191A      2.420668   192A      2.423838   193A      2.436083  
     194A      2.486420   195A      2.632429   196A      2.636580  
     197A      2.659949   198A      2.670416   199A      2.673774  
     200A      2.706203   201A      2.708619   202A      2.804935  
     203A      2.808138   204A      2.810725   205A      2.811455  
     206A      2.815607   207A      2.822340   208A      2.893778  
     209A      2.914205   210A      2.990638   211A      2.993455  
     212A      3.008738   213A      3.021995   214A      3.039273  
     215A      3.045223   216A      3.054650   217A      3.059226  
     218A      3.095047   219A      3.100108   220A      3.161652  
     221A      3.165182   222A      3.182075   223A      3.262971  
     224A      3.281628   225A      3.308670   226A      3.366606  
     227A      3.395290   228A      3.395960   229A      3.503795  
     230A      3.624118   231A      3.642484   232A      3.698138  
     233A      3.700004   234A      3.701263   235A      3.708558  
     236A      3.713112   237A      3.713624   238A      3.735520  
     239A      3.799370   240A      3.805895   241A      3.887050  
     242A      3.893189   243A      3.900479   244A      3.905190  
     245A      3.936125   246A      4.020848   247A      4.023036  
     248A      4.046952   249A      4.117050   250A      4.140256  
     251A      4.143124   252A      4.146909   253A      4.165957  
     254A      4.175618   255A      4.186482   256A      4.192859  
     257A      4.235260   258A      4.237860   259A      4.277942  
     260A      4.280991   261A      4.314804   262A      4.316061  
     263A      4.334945   264A      4.341382   265A      4.364193  
     266A      4.443860   267A      4.502742   268A      4.596716  
     269A      4.730047   270A      4.739183   271A      4.746579  
     272A      4.747347   273A      4.778587   274A      4.780790  
     275A      4.792980   276A      4.812434   277A      4.879517  
     278A      4.932899   279A      4.948090   280A      4.951218  
     281A      5.028938   282A      5.197403   283A      5.253831  
     284A      5.323449   285A      5.530478   286A      5.577399  
     287A      5.887299   288A      5.891809   289A      6.090399  
     290A      6.114865   291A      6.116887   292A      6.157152  
     293A      6.162719   294A      6.167379   295A      6.239006  
     296A      6.245826   297A      6.258459   298A      6.274051  
     299A      6.542152   300A      6.737351   301A      6.812059  
     302A      6.816011   303A      6.827333   304A      6.841642  
     305A      6.885028   306A      6.885792   307A      6.886081  
     308A      6.891818   309A      6.895797   310A      6.915189  
     311A      6.917231   312A      6.922593   313A      6.929806  
     314A      7.006186   315A      7.007626   316A      7.018817  
     317A      7.219689   318A      7.222904   319A      7.225522  
     320A      7.409592   321A      7.552879   322A      7.603406  
     323A      7.607276   324A      7.628913   325A      7.737859  
     326A      7.777308   327A      7.787852   328A      7.792319  
     329A      7.797045   330A      7.824756   331A      7.841924  
     332A      7.862987   333A      7.878536   334A      7.879773  
     335A      7.894376   336A      7.894975   337A      7.909724  
     338A      7.935188   339A      7.941060   340A      8.038282  
     341A      8.097529   342A      8.104122   343A      8.201891  
     344A      8.209284   345A      8.501962   346A      8.502443  
     347A      8.511937   348A      8.541518   349A      8.549811  
     350A      8.575443   351A      8.577435   352A      8.625950  
     353A      8.654075   354A      8.658106   355A      8.658200  
     356A      8.698110   357A      8.728027   358A      8.805823  
     359A      8.854428   360A      8.985954   361A      9.046235  
     362A      9.112472   363A      9.120310   364A      9.120730  
     365A      9.211920   366A      9.213320   367A      9.217424  
     368A      9.282448   369A      9.293388   370A      9.296926  
     371A      9.298320   372A      9.447914   373A      9.449679  
     374A      9.462163   375A      9.607850   376A      9.608949  
     377A      9.677941   378A      9.736958   379A      9.921485  
     380A      9.945456   381A      9.952074   382A      9.979931  
     383A      9.985769   384A      9.993742   385A     10.063001  
     386A     10.072348   387A     10.075439   388A     10.269024  
     389A     10.269936   390A     10.276623   391A     10.312650  
     392A     10.316581   393A     10.344942   394A     10.469662  
     395A     10.611125   396A     10.611427   397A     10.624397  
     398A     10.813631   399A     10.966044   400A     10.986627  
     401A     10.989820   402A     11.004973   403A     11.028802  
     404A     11.095401   405A     11.108117   406A     11.278305  
     407A     11.308831   408A     11.441691   409A     11.519457  
     410A     11.532361   411A     11.536269   412A     11.717760  
     413A     11.818053   414A     11.831166   415A     12.007278  
     416A     12.207006   417A     12.217143   418A     12.642183  
     419A     12.761773   420A     12.834501   421A     12.910109  
     422A     13.179820   423A     13.220756   424A     13.228619  
     425A     13.238327   426A     13.862840   427A     14.007557  
     428A     14.034127   429A     14.515453   430A     14.811029  
     431A     14.918521   432A     15.265898   433A     16.923118  
     434A     17.338289   435A     29.749961   436A     45.647088  

    Final Occupation by Irrep:
              A 
    DOCC [    10 ]

  @DF-RHF Final Energy:  -116.28230447195996

   => Energetics <=

    Nuclear Repulsion Energy =             33.9198382694902563
    One-Electron Energy =                -225.4648986721920494
    Two-Electron Energy =                  75.2627559307418181
    Total Energy =                       -116.2823044719599608

Computation Completed


Properties will be evaluated at   0.000000,   0.000000,   0.000000 [a0]

Properties computed using the SCF density matrix

  Nuclear Dipole Moment: [e a0]
     X:     4.1469      Y:    -0.0022      Z:     0.0009

  Electronic Dipole Moment: [e a0]
     X:    -4.9773      Y:    -0.0001      Z:    -0.0002

  Dipole Moment: [e a0]
     X:    -0.8303      Y:    -0.0023      Z:     0.0007     Total:     0.8303

  Dipole Moment: [D]
     X:    -2.1105      Y:    -0.0059      Z:     0.0017     Total:     2.1105


*** tstop() called on node87.bme.utexas.edu at Thu Apr 23 11:56:55 2020
Module time:
	user time   =      37.57 seconds =       0.63 minutes
	system time =       0.94 seconds =       0.02 minutes
	total time  =          6 seconds =       0.10 minutes
Total time:
	user time   =     264.71 seconds =       4.41 minutes
	system time =       7.70 seconds =       0.13 minutes
	total time  =         46 seconds =       0.77 minutes

*** tstart() called on node87.bme.utexas.edu
*** at Thu Apr 23 11:56:55 2020


  //>>>>>>>>>>>>>>>>>>>>>>>>>>>>>>>>>>>//
  //               DFMP2               //
  //<<<<<<<<<<<<<<<<<<<<<<<<<<<<<<<<<<<//

   => Loading Basis Set <=

    Name: (AUG-CC-PVQZ AUX)
    Role: RIFIT
    Keyword: DF_BASIS_MP2
    atoms 1        entry C          line   184 file /home/liuchw/anaconda3/envs/psi4env/share/psi4/basis/aug-cc-pvqz-ri.gbs 
    atoms 2-5, 7-8 entry H          line    30 file /home/liuchw/anaconda3/envs/psi4env/share/psi4/basis/aug-cc-pvqz-ri.gbs 
    atoms 6        entry O          line   332 file /home/liuchw/anaconda3/envs/psi4env/share/psi4/basis/aug-cc-pvqz-ri.gbs 

	 --------------------------------------------------------
	                          DF-MP2                         
	      2nd-Order Density-Fitted Moller-Plesset Theory     
	              RMP2 Wavefunction,   8 Threads             
	                                                         
	        Rob Parrish, Justin Turney, Andy Simmonett,      
	           Ed Hohenstein, and C. David Sherrill          
	 --------------------------------------------------------

   => Auxiliary Basis Set <=

  Basis Set: (AUG-CC-PVQZ AUX)
    Blend: AUG-CC-PVQZ-RI
    Number of shells: 192
    Number of basis function: 816
    Number of Cartesian functions: 1104
    Spherical Harmonics?: true
    Max angular momentum: 5

	 --------------------------------------------------------
	                 NBF =   436, NAUX =   816
	 --------------------------------------------------------
	   CLASS    FOCC     OCC    AOCC    AVIR     VIR    FVIR
	   PAIRS       0      10      10     426     426       0
	 --------------------------------------------------------

	-----------------------------------------------------------
	 ==================> DF-MP2 Energies <==================== 
	-----------------------------------------------------------
	 Reference Energy          =    -116.2823044719599608 [Eh]
	 Singles Energy            =      -0.0000000000000000 [Eh]
	 Same-Spin Energy          =      -0.1144578406543844 [Eh]
	 Opposite-Spin Energy      =      -0.4430612156139064 [Eh]
	 Correlation Energy        =      -0.5575190562682908 [Eh]
	 Total Energy              =    -116.8398235282282513 [Eh]
	-----------------------------------------------------------
	 ================> DF-SCS-MP2 Energies <================== 
	-----------------------------------------------------------
	 SCS Same-Spin Scale       =       0.3333333333333333 [-]
	 SCS Opposite-Spin Scale   =       1.2000000000000000 [-]
	 SCS Same-Spin Energy      =      -0.0381526135514615 [Eh]
	 SCS Opposite-Spin Energy  =      -0.5316734587366877 [Eh]
	 SCS Correlation Energy    =      -0.5698260722881492 [Eh]
	 SCS Total Energy          =    -116.8521305442481122 [Eh]
	-----------------------------------------------------------


*** tstop() called on node87.bme.utexas.edu at Thu Apr 23 11:56:58 2020
Module time:
	user time   =      17.36 seconds =       0.29 minutes
	system time =       0.56 seconds =       0.01 minutes
	total time  =          3 seconds =       0.05 minutes
Total time:
	user time   =     282.07 seconds =       4.70 minutes
	system time =       8.26 seconds =       0.14 minutes
	total time  =         49 seconds =       0.82 minutes

  //>>>>>>>>>>>>>>>>>>>>>>>>>>>>>>>>>>>//
  //  CBS Results: mp2/aug-cc-pv[tq]z  //
  //<<<<<<<<<<<<<<<<<<<<<<<<<<<<<<<<<<<//


   ==> HF <==

   HI-zeta (4) Energy:               -116.282304471960


   ==> Helgaker 2-point correlated extrapolation for method: MP2 <==

   LO-zeta (3) Energy:               -116.777677775721
   HI-zeta (4) Energy:               -116.839823528228
   Alpha (exponent) Value:             3.000000000000
   Extrapolated Energy:              -116.885173131409

   @Extrapolated MP2/(T,Q):          -116.885173131409



   ==> Helgaker 2-point correlated extrapolation for method: HF <==

   LO-zeta (3) Energy:               -116.274294928139
   HI-zeta (4) Energy:               -116.282304471960
   Alpha (exponent) Value:             3.000000000000
   Extrapolated Energy:              -116.288149274208

   @Extrapolated HF/(T,Q):           -116.288149274208


   ==> Components <==

  ---------------------------------------------------------------------------------------------------------
                          Method / Basis                      Rqd      Energy [Eh]   Variable
  ---------------------------------------------------------------------------------------------------------
                              hf / aug-cc-pvtz                  *    -116.27429493   HF TOTAL ENERGY
                             mp2 / aug-cc-pvtz                  *    -116.77767778   MP2 TOTAL ENERGY
                              hf / aug-cc-pvqz                  *    -116.28230447   HF TOTAL ENERGY
                             mp2 / aug-cc-pvqz                  *    -116.83982353   MP2 TOTAL ENERGY
  ---------------------------------------------------------------------------------------------------------

   ==> Stages <==

  ---------------------------------------------------------------------------------------------------------
      Stage               Method / Basis                       Wt      Energy [Eh]   Scheme
  ---------------------------------------------------------------------------------------------------------
        scf                   hf / aug-cc-pvqz                  1    -116.28230447   xtpl_highest_1
       corl                  mp2 / aug-cc-pv[tq]z               1    -116.88517313   corl_xtpl_helgaker_2
       corl                   hf / aug-cc-pv[tq]z              -1    -116.28814927   corl_xtpl_helgaker_2
  ---------------------------------------------------------------------------------------------------------

   ==> CBS <==

  ---------------------------------------------------------------------------------------------------------
      Stage               Method / Basis                               Energy [Eh]   Scheme
  ---------------------------------------------------------------------------------------------------------
        scf                   hf / aug-cc-pvqz                       -116.28230447   xtpl_highest_1
       corl                  mp2 / aug-cc-pv[tq]z                      -0.59702386   corl_xtpl_helgaker_2
      total                  CBS                                     -116.87932833   
  ---------------------------------------------------------------------------------------------------------
   => Loading Basis Set <=

    Name: DEF2-SVP
    Role: ORBITAL
    Keyword: BASIS
    atoms 1        entry C          line    90 file /home/liuchw/anaconda3/envs/psi4env/share/psi4/basis/def2-svp.gbs 
    atoms 2-5, 7-8 entry H          line    15 file /home/liuchw/anaconda3/envs/psi4env/share/psi4/basis/def2-svp.gbs 
    atoms 6        entry O          line   130 file /home/liuchw/anaconda3/envs/psi4env/share/psi4/basis/def2-svp.gbs 


       N-Body: Complex Energy (fragments = (1, 2), basis = (1, 2):  -116.87932832916159)

   ==> N-Body: Counterpoise Corrected (CP) energies <==

   n-Body     Total Energy [Eh]       I.E. [kcal/mol]      Delta [kcal/mol]
        1     -116.878875244588        0.000000000000        0.000000000000
        2     -116.879349031244       -0.297305615173       -0.297305615173

   => Loading Basis Set <=

    Name: DEF2-SVP
    Role: ORBITAL
    Keyword: BASIS
    atoms 1        entry C          line    90 file /home/liuchw/anaconda3/envs/psi4env/share/psi4/basis/def2-svp.gbs 
    atoms 2-5, 7-8 entry H          line    15 file /home/liuchw/anaconda3/envs/psi4env/share/psi4/basis/def2-svp.gbs 
    atoms 6        entry O          line   130 file /home/liuchw/anaconda3/envs/psi4env/share/psi4/basis/def2-svp.gbs 


    Psi4 stopped on: Thursday, 23 April 2020 11:56AM
    Psi4 wall time for execution: 0:00:50.13

*** Psi4 exiting successfully. Buy a developer a beer!
