
    -----------------------------------------------------------------------
          Psi4: An Open-Source Ab Initio Electronic Structure Package
                               Psi4 1.4a2.dev224 

                         Git: Rev {master} e453b16 


    R. M. Parrish, L. A. Burns, D. G. A. Smith, A. C. Simmonett,
    A. E. DePrince III, E. G. Hohenstein, U. Bozkaya, A. Yu. Sokolov,
    R. Di Remigio, R. M. Richard, J. F. Gonthier, A. M. James,
    H. R. McAlexander, A. Kumar, M. Saitow, X. Wang, B. P. Pritchard,
    P. Verma, H. F. Schaefer III, K. Patkowski, R. A. King, E. F. Valeev,
    F. A. Evangelista, J. M. Turney, T. D. Crawford, and C. D. Sherrill,
    J. Chem. Theory Comput. 13(7) pp 3185--3197 (2017).
    (doi: 10.1021/acs.jctc.7b00174)


                         Additional Contributions by
    P. Kraus, H. Kruse, M. H. Lechner, M. C. Schieber, R. A. Shaw,
    A. Alenaizan, R. Galvelis, Z. L. Glick, S. Lehtola, and J. P. Misiewicz

    -----------------------------------------------------------------------


    Psi4 started on: Saturday, 11 April 2020 04:12PM

    Process ID: 83269
    Host:       node144.bme.utexas.edu
    PSIDATADIR: /home/liuchw/anaconda3/envs/psi4env/share/psi4
    Memory:     500.0 MiB
    Threads:    6
    
  ==> Input File <==

--------------------------------------------------------------------------
#Generated by lconvert.py for cbs job

memory 40 GB

molecule  {
0 1
  C        1.2912560    -0.6669060    -0.0146850
  H        1.5863150    -1.2285460     0.8600950
  H        1.0009540    -1.2286270    -0.8910160
  C        1.2911750     0.6669280    -0.0146940
  H        1.0008000     1.2286000    -0.8910330
  H        1.5861590     1.2286170     0.8600790
--
0 1
  O       -2.3831754    -0.0000190    -0.0683320
  H       -1.4431044     0.0000730     0.1350450
  H       -2.8012344    -0.0000330     0.7944690
units angstrom
no_reorient
symmetry c1
}

set {
scf_type DF
mp2_type DF
e_convergence 7
reference rhf
}

energy('mp2/aug-cc-pv[tq]z', bsse_type='cp')
--------------------------------------------------------------------------

  Memory set to  37.253 GiB by Python driver.

Scratch directory: /scratch//


   ===> N-Body Interaction Abacus <===
        BSSE Treatment:                     cp
        Number of 1-body computations:     4
        Number of 2-body computations:     1

   ==> N-Body: Now computing 1-body complexes <==


       N-Body: Computing complex (1/4) with fragments (2,) in the basis of fragments (2,).


Scratch directory: /scratch//

  //>>>>>>>>>>>>>>>>>>>>>>>>>>>>>>>>>>>//
  //   CBS Setup: mp2/aug-cc-pv[tq]z   //
  //<<<<<<<<<<<<<<<<<<<<<<<<<<<<<<<<<<<//

    Naive listing of computations required.
             hf / aug-cc-pvqz              for  HF TOTAL ENERGY
            mp2 / aug-cc-pvtz              for  MP2 TOTAL ENERGY
            mp2 / aug-cc-pvqz              for  MP2 TOTAL ENERGY
             hf / aug-cc-pvtz              for  HF TOTAL ENERGY
             hf / aug-cc-pvqz              for  HF TOTAL ENERGY

    Enlightened listing of computations required.
            mp2 / aug-cc-pvtz              for  MP2 TOTAL ENERGY
            mp2 / aug-cc-pvqz              for  MP2 TOTAL ENERGY

    Full listing of computations to be obtained (required and bonus).
             hf / aug-cc-pvtz              for  HF TOTAL ENERGY
            mp2 / aug-cc-pvtz              for  MP2 TOTAL ENERGY
             hf / aug-cc-pvqz              for  HF TOTAL ENERGY
            mp2 / aug-cc-pvqz              for  MP2 TOTAL ENERGY

  //>>>>>>>>>>>>>>>>>>>>>>>>>>>>>>>>>>>>//
  // CBS Computation: MP2 / AUG-CC-PVTZ //
  //<<<<<<<<<<<<<<<<<<<<<<<<<<<<<<<<<<<<//


Scratch directory: /scratch//

*** tstart() called on node144.bme.utexas.edu
*** at Sat Apr 11 16:12:44 2020

   => Loading Basis Set <=

    Name: AUG-CC-PVTZ
    Role: ORBITAL
    Keyword: BASIS
    atoms 1   entry O          line   331 file /home/liuchw/anaconda3/envs/psi4env/share/psi4/basis/aug-cc-pvtz.gbs 
    atoms 2-3 entry H          line    40 file /home/liuchw/anaconda3/envs/psi4env/share/psi4/basis/aug-cc-pvtz.gbs 


         ---------------------------------------------------------
                                   SCF
               by Justin Turney, Rob Parrish, Andy Simmonett
                          and Daniel G. A. Smith
                              RHF Reference
                        6 Threads,  38146 MiB Core
         ---------------------------------------------------------

  ==> Geometry <==

    Molecular point group: c1
    Full point group: C1

    Geometry (in Angstrom), charge = 0, multiplicity = 1:

       Center              X                  Y                   Z               Mass       
    ------------   -----------------  -----------------  -----------------  -----------------
         O           -2.248681511478    -0.000019972027    -0.055928414590    15.994914619570
         H           -1.308610511478     0.000072027973     0.147448585410     1.007825032230
         H           -2.666740511478    -0.000033972027     0.806872585410     1.007825032230

  Running in c1 symmetry.

  Rotational constants: A =     23.19770  B =      0.18778  C =      0.18627 [cm^-1]
  Rotational constants: A = 695449.48194  B =   5629.47211  C =   5584.26899 [MHz]
  Nuclear repulsion =    9.167541950754377

  Charge       = 0
  Multiplicity = 1
  Electrons    = 10
  Nalpha       = 5
  Nbeta        = 5

  ==> Algorithm <==

  SCF Algorithm Type is DF.
  DIIS enabled.
  MOM disabled.
  Fractional occupation disabled.
  Guess Type is SAD.
  Energy threshold   = 1.00e-07
  Density threshold  = 1.00e-08
  Integral threshold = 0.00e+00

  ==> Primary Basis <==

  Basis Set: AUG-CC-PVTZ
    Blend: AUG-CC-PVTZ
    Number of shells: 32
    Number of basis function: 92
    Number of Cartesian functions: 105
    Spherical Harmonics?: true
    Max angular momentum: 3

   => Loading Basis Set <=

    Name: (AUG-CC-PVTZ AUX)
    Role: JKFIT
    Keyword: DF_BASIS_SCF
    atoms 1   entry O          line   286 file /home/liuchw/anaconda3/envs/psi4env/share/psi4/basis/aug-cc-pvtz-jkfit.gbs 
    atoms 2-3 entry H          line    70 file /home/liuchw/anaconda3/envs/psi4env/share/psi4/basis/aug-cc-pvtz-jkfit.gbs 

  ==> Pre-Iterations <==

   -------------------------------------------------------
    Irrep   Nso     Nmo     Nalpha   Nbeta   Ndocc  Nsocc
   -------------------------------------------------------
     A         92      92       0       0       0       0
   -------------------------------------------------------
    Total      92      92       5       5       5       0
   -------------------------------------------------------

  ==> Integral Setup <==

  DFHelper Memory: AOs need 0.015 GiB; user supplied 27.940 GiB. Using in-core AOs.

  ==> MemDFJK: Density-Fitted J/K Matrices <==

    J tasked:                   Yes
    K tasked:                   Yes
    wK tasked:                   No
    OpenMP threads:               6
    Memory [MiB]:             28610
    Algorithm:                 Core
    Schwarz Cutoff:           1E-12
    Mask sparsity (%):       0.0000
    Fitting Condition:        1E-10

   => Auxiliary Basis Set <=

  Basis Set: (AUG-CC-PVTZ AUX)
    Blend: AUG-CC-PVTZ-JKFIT
    Number of shells: 58
    Number of basis function: 196
    Number of Cartesian functions: 241
    Spherical Harmonics?: true
    Max angular momentum: 4

  Minimum eigenvalue in the overlap matrix is 3.8855540167E-04.
  Using Symmetric Orthogonalization.

  SCF Guess: Superposition of Atomic Densities via on-the-fly atomic UHF.

  ==> Iterations <==

                           Total Energy        Delta E     RMS |[F,P]|

   @DF-RHF iter SAD:   -75.47544858603872   -7.54754e+01   0.00000e+00 
   @DF-RHF iter   1:   -75.97585271121396   -5.00404e-01   5.09157e-03 DIIS
   @DF-RHF iter   2:   -76.02834300477485   -5.24903e-02   3.47614e-03 DIIS
   @DF-RHF iter   3:   -76.05989626854141   -3.15533e-02   2.36107e-04 DIIS
   @DF-RHF iter   4:   -76.06028557372001   -3.89305e-04   5.66153e-05 DIIS
   @DF-RHF iter   5:   -76.06031001461122   -2.44409e-05   1.28743e-05 DIIS
   @DF-RHF iter   6:   -76.06031201639179   -2.00178e-06   2.81468e-06 DIIS
   @DF-RHF iter   7:   -76.06031212147334   -1.05082e-07   5.04247e-07 DIIS
   @DF-RHF iter   8:   -76.06031212443497   -2.96163e-09   8.45561e-08 DIIS
   @DF-RHF iter   9:   -76.06031212449989   -6.49152e-11   2.06812e-08 DIIS
   @DF-RHF iter  10:   -76.06031212450389   -4.00746e-12   3.06581e-09 DIIS
  Energy and wave function converged.


  ==> Post-Iterations <==

    Orbital Energies [Eh]
    ---------------------

    Doubly Occupied:                                                      

       1A    -20.568116     2A     -1.352664     3A     -0.714488  
       4A     -0.586066     5A     -0.510364  

    Virtual:                                                              

       6A      0.029343     7A      0.047726     8A      0.135813  
       9A      0.158806    10A      0.175291    11A      0.183188  
      12A      0.227064    13A      0.245040    14A      0.265591  
      15A      0.299590    16A      0.309883    17A      0.365912  
      18A      0.437559    19A      0.466238    20A      0.598959  
      21A      0.659074    22A      0.707680    23A      0.723050  
      24A      0.731656    25A      0.831360    26A      0.846937  
      27A      0.892257    28A      0.912760    29A      0.917602  
      30A      0.922777    31A      0.931337    32A      0.960645  
      33A      1.021204    34A      1.043382    35A      1.082518  
      36A      1.108322    37A      1.176975    38A      1.182895  
      39A      1.260769    40A      1.510356    41A      1.531704  
      42A      1.582129    43A      1.805564    44A      1.825263  
      45A      1.983746    46A      2.119156    47A      2.263415  
      48A      2.316077    49A      2.327250    50A      2.418830  
      51A      2.421747    52A      2.443648    53A      2.480884  
      54A      2.675690    55A      2.697686    56A      2.773376  
      57A      2.811579    58A      2.884830    59A      3.655335  
      60A      3.738960    61A      4.021336    62A      4.083754  
      63A      4.158814    64A      4.251765    65A      4.282362  
      66A      4.371057    67A      4.377743    68A      4.406717  
      69A      4.521304    70A      4.728444    71A      4.848564  
      72A      5.150328    73A      5.155740    74A      5.247054  
      75A      5.326810    76A      5.526970    77A      5.659118  
      78A      6.184274    79A      6.514227    80A      6.714820  
      81A      6.910009    82A      7.136321    83A      7.259265  
      84A      7.297045    85A      7.319588    86A      7.339682  
      87A      7.360490    88A      7.536492    89A      7.896395  
      90A      7.932054    91A      8.813933    92A     15.737395  

    Final Occupation by Irrep:
              A 
    DOCC [     5 ]

  @DF-RHF Final Energy:   -76.06031212450389

   => Energetics <=

    Nuclear Repulsion Energy =              9.1675419507543765
    One-Electron Energy =                -122.9923112796339950
    Two-Electron Energy =                  37.7644572043757307
    Total Energy =                        -76.0603121245038949

Computation Completed


Properties will be evaluated at   0.000000,   0.000000,   0.000000 [a0]

Properties computed using the SCF density matrix

  Nuclear Dipole Moment: [e a0]
     X:   -41.5075      Y:    -0.0002      Z:     0.9579

  Electronic Dipole Moment: [e a0]
     X:    41.8529      Y:     0.0003      Z:    -0.2512

  Dipole Moment: [e a0]
     X:     0.3454      Y:     0.0001      Z:     0.7067     Total:     0.7866

  Dipole Moment: [D]
     X:     0.8779      Y:     0.0001      Z:     1.7963     Total:     1.9994


*** tstop() called on node144.bme.utexas.edu at Sat Apr 11 16:12:47 2020
Module time:
	user time   =       9.02 seconds =       0.15 minutes
	system time =       1.02 seconds =       0.02 minutes
	total time  =          3 seconds =       0.05 minutes
Total time:
	user time   =       9.02 seconds =       0.15 minutes
	system time =       1.02 seconds =       0.02 minutes
	total time  =          3 seconds =       0.05 minutes

*** tstart() called on node144.bme.utexas.edu
*** at Sat Apr 11 16:12:47 2020


  //>>>>>>>>>>>>>>>>>>>>>>>>>>>>>>>>>>>//
  //               DFMP2               //
  //<<<<<<<<<<<<<<<<<<<<<<<<<<<<<<<<<<<//

   => Loading Basis Set <=

    Name: (AUG-CC-PVTZ AUX)
    Role: RIFIT
    Keyword: DF_BASIS_MP2
    atoms 1   entry O          line   264 file /home/liuchw/anaconda3/envs/psi4env/share/psi4/basis/aug-cc-pvtz-ri.gbs 
    atoms 2-3 entry H          line    30 file /home/liuchw/anaconda3/envs/psi4env/share/psi4/basis/aug-cc-pvtz-ri.gbs 

	 --------------------------------------------------------
	                          DF-MP2                         
	      2nd-Order Density-Fitted Moller-Plesset Theory     
	              RMP2 Wavefunction,   6 Threads             
	                                                         
	        Rob Parrish, Justin Turney, Andy Simmonett,      
	           Ed Hohenstein, and C. David Sherrill          
	 --------------------------------------------------------

   => Auxiliary Basis Set <=

  Basis Set: (AUG-CC-PVTZ AUX)
    Blend: AUG-CC-PVTZ-RI
    Number of shells: 56
    Number of basis function: 198
    Number of Cartesian functions: 246
    Spherical Harmonics?: true
    Max angular momentum: 4

	 --------------------------------------------------------
	                 NBF =    92, NAUX =   198
	 --------------------------------------------------------
	   CLASS    FOCC     OCC    AOCC    AVIR     VIR    FVIR
	   PAIRS       0       5       5      87      87       0
	 --------------------------------------------------------

	-----------------------------------------------------------
	 ==================> DF-MP2 Energies <==================== 
	-----------------------------------------------------------
	 Reference Energy          =     -76.0603121245038949 [Eh]
	 Singles Energy            =      -0.0000000000000000 [Eh]
	 Same-Spin Energy          =      -0.0684052353309761 [Eh]
	 Opposite-Spin Energy      =      -0.2153582289239370 [Eh]
	 Correlation Energy        =      -0.2837634642549131 [Eh]
	 Total Energy              =     -76.3440755887588125 [Eh]
	-----------------------------------------------------------
	 ================> DF-SCS-MP2 Energies <================== 
	-----------------------------------------------------------
	 SCS Same-Spin Scale       =       0.3333333333333333 [-]
	 SCS Opposite-Spin Scale   =       1.2000000000000000 [-]
	 SCS Same-Spin Energy      =      -0.0228017451103254 [Eh]
	 SCS Opposite-Spin Energy  =      -0.2584298747087244 [Eh]
	 SCS Correlation Energy    =      -0.2812316198190498 [Eh]
	 SCS Total Energy          =     -76.3415437443229479 [Eh]
	-----------------------------------------------------------


*** tstop() called on node144.bme.utexas.edu at Sat Apr 11 16:12:47 2020
Module time:
	user time   =       2.82 seconds =       0.05 minutes
	system time =       0.27 seconds =       0.00 minutes
	total time  =          0 seconds =       0.00 minutes
Total time:
	user time   =      11.85 seconds =       0.20 minutes
	system time =       1.29 seconds =       0.02 minutes
	total time  =          3 seconds =       0.05 minutes

  //>>>>>>>>>>>>>>>>>>>>>>>>>>>>>>>>>>>>//
  // CBS Computation: MP2 / AUG-CC-PVQZ //
  //<<<<<<<<<<<<<<<<<<<<<<<<<<<<<<<<<<<<//


Scratch directory: /scratch//

*** tstart() called on node144.bme.utexas.edu
*** at Sat Apr 11 16:12:47 2020

   => Loading Basis Set <=

    Name: AUG-CC-PVQZ
    Role: ORBITAL
    Keyword: BASIS
    atoms 1   entry O          line   423 file /home/liuchw/anaconda3/envs/psi4env/share/psi4/basis/aug-cc-pvqz.gbs 
    atoms 2-3 entry H          line    40 file /home/liuchw/anaconda3/envs/psi4env/share/psi4/basis/aug-cc-pvqz.gbs 


         ---------------------------------------------------------
                                   SCF
               by Justin Turney, Rob Parrish, Andy Simmonett
                          and Daniel G. A. Smith
                              RHF Reference
                        6 Threads,  38146 MiB Core
         ---------------------------------------------------------

  ==> Geometry <==

    Molecular point group: c1
    Full point group: C1

    Geometry (in Angstrom), charge = 0, multiplicity = 1:

       Center              X                  Y                   Z               Mass       
    ------------   -----------------  -----------------  -----------------  -----------------
         O           -2.248681511478    -0.000019972027    -0.055928414590    15.994914619570
         H           -1.308610511478     0.000072027973     0.147448585410     1.007825032230
         H           -2.666740511478    -0.000033972027     0.806872585410     1.007825032230

  Running in c1 symmetry.

  Rotational constants: A =     23.19770  B =      0.18778  C =      0.18627 [cm^-1]
  Rotational constants: A = 695449.48194  B =   5629.47211  C =   5584.26899 [MHz]
  Nuclear repulsion =    9.167541950754377

  Charge       = 0
  Multiplicity = 1
  Electrons    = 10
  Nalpha       = 5
  Nbeta        = 5

  ==> Algorithm <==

  SCF Algorithm Type is DF.
  DIIS enabled.
  MOM disabled.
  Fractional occupation disabled.
  Guess Type is SAD.
  Energy threshold   = 1.00e-07
  Density threshold  = 1.00e-08
  Integral threshold = 0.00e+00

  ==> Primary Basis <==

  Basis Set: AUG-CC-PVQZ
    Blend: AUG-CC-PVQZ
    Number of shells: 48
    Number of basis function: 172
    Number of Cartesian functions: 215
    Spherical Harmonics?: true
    Max angular momentum: 4

   => Loading Basis Set <=

    Name: (AUG-CC-PVQZ AUX)
    Role: JKFIT
    Keyword: DF_BASIS_SCF
    atoms 1   entry O          line   318 file /home/liuchw/anaconda3/envs/psi4env/share/psi4/basis/aug-cc-pvqz-jkfit.gbs 
    atoms 2-3 entry H          line    70 file /home/liuchw/anaconda3/envs/psi4env/share/psi4/basis/aug-cc-pvqz-jkfit.gbs 

  ==> Pre-Iterations <==

   -------------------------------------------------------
    Irrep   Nso     Nmo     Nalpha   Nbeta   Ndocc  Nsocc
   -------------------------------------------------------
     A        172     172       0       0       0       0
   -------------------------------------------------------
    Total     172     172       5       5       5       0
   -------------------------------------------------------

  ==> Integral Setup <==

  DFHelper Memory: AOs need 0.074 GiB; user supplied 27.940 GiB. Using in-core AOs.

  ==> MemDFJK: Density-Fitted J/K Matrices <==

    J tasked:                   Yes
    K tasked:                   Yes
    wK tasked:                   No
    OpenMP threads:               6
    Memory [MiB]:             28610
    Algorithm:                 Core
    Schwarz Cutoff:           1E-12
    Mask sparsity (%):       0.0000
    Fitting Condition:        1E-10

   => Auxiliary Basis Set <=

  Basis Set: (AUG-CC-PVQZ AUX)
    Blend: AUG-CC-PVQZ-JKFIT
    Number of shells: 70
    Number of basis function: 294
    Number of Cartesian functions: 400
    Spherical Harmonics?: true
    Max angular momentum: 5

  Minimum eigenvalue in the overlap matrix is 8.7406665455E-05.
  Using Symmetric Orthogonalization.

  SCF Guess: Superposition of Atomic Densities via on-the-fly atomic UHF.

  ==> Iterations <==

                           Total Energy        Delta E     RMS |[F,P]|

   @DF-RHF iter SAD:   -75.48058860743143   -7.54806e+01   0.00000e+00 
   @DF-RHF iter   1:   -75.98092933436253   -5.00341e-01   2.72925e-03 DIIS
   @DF-RHF iter   2:   -76.03351957363444   -5.25902e-02   1.86753e-03 DIIS
   @DF-RHF iter   3:   -76.06527197868131   -3.17524e-02   1.27249e-04 DIIS
   @DF-RHF iter   4:   -76.06566337115238   -3.91392e-04   3.11921e-05 DIIS
   @DF-RHF iter   5:   -76.06568870993840   -2.53388e-05   7.06887e-06 DIIS
   @DF-RHF iter   6:   -76.06569079387022   -2.08393e-06   1.58816e-06 DIIS
   @DF-RHF iter   7:   -76.06569091044564   -1.16575e-07   2.94350e-07 DIIS
   @DF-RHF iter   8:   -76.06569091395941   -3.51378e-09   4.73892e-08 DIIS
   @DF-RHF iter   9:   -76.06569091403284   -7.34275e-11   1.13281e-08 DIIS
   @DF-RHF iter  10:   -76.06569091403713   -4.29168e-12   1.71059e-09 DIIS
  Energy and wave function converged.


  ==> Post-Iterations <==

    Orbital Energies [Eh]
    ---------------------

    Doubly Occupied:                                                      

       1A    -20.565663     2A     -1.351935     3A     -0.714454  
       4A     -0.586113     5A     -0.510497  

    Virtual:                                                              

       6A      0.026866     7A      0.043118     8A      0.114059  
       9A      0.133535    10A      0.151175    11A      0.158746  
      12A      0.184900    13A      0.197089    14A      0.209424  
      15A      0.237155    16A      0.256930    17A      0.291716  
      18A      0.357653    19A      0.390001    20A      0.469663  
      21A      0.508933    22A      0.541993    23A      0.547783  
      24A      0.556371    25A      0.614467    26A      0.632348  
      27A      0.647157    28A      0.663404    29A      0.665709  
      30A      0.684458    31A      0.706553    32A      0.719360  
      33A      0.769772    34A      0.789184    35A      0.802386  
      36A      0.802546    37A      0.843063    38A      0.854005  
      39A      0.968116    40A      1.122442    41A      1.136826  
      42A      1.208751    43A      1.332398    44A      1.441080  
      45A      1.482511    46A      1.509575    47A      1.513006  
      48A      1.526502    49A      1.553980    50A      1.589880  
      51A      1.621103    52A      1.637932    53A      1.662116  
      54A      1.664469    55A      1.688697    56A      1.702793  
      57A      1.736995    58A      1.751750    59A      1.766250  
      60A      1.775364    61A      1.844027    62A      1.864754  
      63A      1.894859    64A      1.916506    65A      1.983909  
      66A      2.007909    67A      2.034066    68A      2.040147  
      69A      2.099889    70A      2.205892    71A      2.216271  
      72A      2.314016    73A      2.435472    74A      2.626224  
      75A      2.631821    76A      2.887121    77A      2.958502  
      78A      2.994476    79A      3.041226    80A      3.055695  
      81A      3.085837    82A      3.266737    83A      3.305416  
      84A      3.310398    85A      3.488782    86A      3.588292  
      87A      3.642705    88A      3.687713    89A      3.719561  
      90A      3.780823    91A      3.923484    92A      4.078803  
      93A      4.166386    94A      4.167691    95A      4.178290  
      96A      4.178877    97A      4.232348    98A      4.329266  
      99A      4.433051   100A      4.580869   101A      4.729069  
     102A      4.745219   103A      4.777948   104A      4.780075  
     105A      4.810205   106A      4.878397   107A      4.995323  
     108A      5.235506   109A      5.313566   110A      5.521446  
     111A      5.534878   112A      5.857133   113A      5.888520  
     114A      6.073375   115A      6.233885   116A      6.823108  
     117A      6.885991   118A      6.889811   119A      6.906489  
     120A      7.730177   121A      7.775026   122A      7.785511  
     123A      7.822545   124A      7.837071   125A      7.898301  
     126A      7.924620   127A      8.021587   128A      8.165894  
     129A      8.199524   130A      8.531541   131A      8.624805  
     132A      8.654043   133A      8.693437   134A      8.786337  
     135A      8.845870   136A      8.986698   137A      9.040796  
     138A      9.222342   139A      9.671946   140A      9.903414  
     141A      9.916653   142A      9.940770   143A      9.990364  
     144A     10.323464   145A     10.448928   146A     10.682041  
     147A     11.018480   148A     11.076052   149A     11.092046  
     150A     11.269820   151A     11.308243   152A     11.412553  
     153A     11.715629   154A     11.795063   155A     11.831033  
     156A     11.988585   157A     12.203882   158A     12.204514  
     159A     12.624308   160A     12.739470   161A     12.827739  
     162A     12.906032   163A     13.174865   164A     13.994767  
     165A     14.013650   166A     14.505119   167A     14.803428  
     168A     14.902422   169A     15.252068   170A     16.836072  
     171A     17.290652   172A     45.497600  

    Final Occupation by Irrep:
              A 
    DOCC [     5 ]

  @DF-RHF Final Energy:   -76.06569091403713

   => Energetics <=

    Nuclear Repulsion Energy =              9.1675419507543765
    One-Electron Energy =                -123.0091412657258161
    Two-Electron Energy =                  37.7759084009343056
    Total Energy =                        -76.0656909140371340

Computation Completed


Properties will be evaluated at   0.000000,   0.000000,   0.000000 [a0]

Properties computed using the SCF density matrix

  Nuclear Dipole Moment: [e a0]
     X:   -41.5075      Y:    -0.0002      Z:     0.9579

  Electronic Dipole Moment: [e a0]
     X:    41.8525      Y:     0.0003      Z:    -0.2519

  Dipole Moment: [e a0]
     X:     0.3450      Y:     0.0001      Z:     0.7060     Total:     0.7858

  Dipole Moment: [D]
     X:     0.8770      Y:     0.0001      Z:     1.7944     Total:     1.9972


*** tstop() called on node144.bme.utexas.edu at Sat Apr 11 16:12:51 2020
Module time:
	user time   =      16.17 seconds =       0.27 minutes
	system time =       1.29 seconds =       0.02 minutes
	total time  =          4 seconds =       0.07 minutes
Total time:
	user time   =      28.12 seconds =       0.47 minutes
	system time =       2.59 seconds =       0.04 minutes
	total time  =          7 seconds =       0.12 minutes

*** tstart() called on node144.bme.utexas.edu
*** at Sat Apr 11 16:12:51 2020


  //>>>>>>>>>>>>>>>>>>>>>>>>>>>>>>>>>>>//
  //               DFMP2               //
  //<<<<<<<<<<<<<<<<<<<<<<<<<<<<<<<<<<<//

   => Loading Basis Set <=

    Name: (AUG-CC-PVQZ AUX)
    Role: RIFIT
    Keyword: DF_BASIS_MP2
    atoms 1   entry O          line   332 file /home/liuchw/anaconda3/envs/psi4env/share/psi4/basis/aug-cc-pvqz-ri.gbs 
    atoms 2-3 entry H          line    30 file /home/liuchw/anaconda3/envs/psi4env/share/psi4/basis/aug-cc-pvqz-ri.gbs 

	 --------------------------------------------------------
	                          DF-MP2                         
	      2nd-Order Density-Fitted Moller-Plesset Theory     
	              RMP2 Wavefunction,   6 Threads             
	                                                         
	        Rob Parrish, Justin Turney, Andy Simmonett,      
	           Ed Hohenstein, and C. David Sherrill          
	 --------------------------------------------------------

   => Auxiliary Basis Set <=

  Basis Set: (AUG-CC-PVQZ AUX)
    Blend: AUG-CC-PVQZ-RI
    Number of shells: 76
    Number of basis function: 328
    Number of Cartesian functions: 447
    Spherical Harmonics?: true
    Max angular momentum: 5

	 --------------------------------------------------------
	                 NBF =   172, NAUX =   328
	 --------------------------------------------------------
	   CLASS    FOCC     OCC    AOCC    AVIR     VIR    FVIR
	   PAIRS       0       5       5     167     167       0
	 --------------------------------------------------------

	-----------------------------------------------------------
	 ==================> DF-MP2 Energies <==================== 
	-----------------------------------------------------------
	 Reference Energy          =     -76.0656909140371340 [Eh]
	 Singles Energy            =      -0.0000000000000000 [Eh]
	 Same-Spin Energy          =      -0.0727315598444231 [Eh]
	 Opposite-Spin Energy      =      -0.2442972890289178 [Eh]
	 Correlation Energy        =      -0.3170288488733410 [Eh]
	 Total Energy              =     -76.3827197629104688 [Eh]
	-----------------------------------------------------------
	 ================> DF-SCS-MP2 Energies <================== 
	-----------------------------------------------------------
	 SCS Same-Spin Scale       =       0.3333333333333333 [-]
	 SCS Opposite-Spin Scale   =       1.2000000000000000 [-]
	 SCS Same-Spin Energy      =      -0.0242438532814744 [Eh]
	 SCS Opposite-Spin Energy  =      -0.2931567468347014 [Eh]
	 SCS Correlation Energy    =      -0.3174006001161758 [Eh]
	 SCS Total Energy          =     -76.3830915141533069 [Eh]
	-----------------------------------------------------------


*** tstop() called on node144.bme.utexas.edu at Sat Apr 11 16:12:52 2020
Module time:
	user time   =       5.02 seconds =       0.08 minutes
	system time =       0.38 seconds =       0.01 minutes
	total time  =          1 seconds =       0.02 minutes
Total time:
	user time   =      33.16 seconds =       0.55 minutes
	system time =       2.97 seconds =       0.05 minutes
	total time  =          8 seconds =       0.13 minutes

  //>>>>>>>>>>>>>>>>>>>>>>>>>>>>>>>>>>>//
  //  CBS Results: mp2/aug-cc-pv[tq]z  //
  //<<<<<<<<<<<<<<<<<<<<<<<<<<<<<<<<<<<//


   ==> HF <==

   HI-zeta (4) Energy:               -76.065690914037


   ==> Helgaker 2-point correlated extrapolation for method: MP2 <==

   LO-zeta (3) Energy:               -76.344075588759
   HI-zeta (4) Energy:               -76.382719762910
   Alpha (exponent) Value:             3.000000000000
   Extrapolated Energy:              -76.410919565670

   @Extrapolated MP2/(T,Q):          -76.410919565670



   ==> Helgaker 2-point correlated extrapolation for method: HF <==

   LO-zeta (3) Energy:               -76.060312124504
   HI-zeta (4) Energy:               -76.065690914037
   Alpha (exponent) Value:             3.000000000000
   Extrapolated Energy:              -76.069615976669

   @Extrapolated HF/(T,Q):           -76.069615976669


   ==> Components <==

  ---------------------------------------------------------------------------------------------------------
                          Method / Basis                      Rqd      Energy [Eh]   Variable
  ---------------------------------------------------------------------------------------------------------
                              hf / aug-cc-pvtz                  *     -76.06031212   HF TOTAL ENERGY
                             mp2 / aug-cc-pvtz                  *     -76.34407559   MP2 TOTAL ENERGY
                              hf / aug-cc-pvqz                  *     -76.06569091   HF TOTAL ENERGY
                             mp2 / aug-cc-pvqz                  *     -76.38271976   MP2 TOTAL ENERGY
  ---------------------------------------------------------------------------------------------------------

   ==> Stages <==

  ---------------------------------------------------------------------------------------------------------
      Stage               Method / Basis                       Wt      Energy [Eh]   Scheme
  ---------------------------------------------------------------------------------------------------------
        scf                   hf / aug-cc-pvqz                  1     -76.06569091   xtpl_highest_1
       corl                  mp2 / aug-cc-pv[tq]z               1     -76.41091957   corl_xtpl_helgaker_2
       corl                   hf / aug-cc-pv[tq]z              -1     -76.06961598   corl_xtpl_helgaker_2
  ---------------------------------------------------------------------------------------------------------

   ==> CBS <==

  ---------------------------------------------------------------------------------------------------------
      Stage               Method / Basis                               Energy [Eh]   Scheme
  ---------------------------------------------------------------------------------------------------------
        scf                   hf / aug-cc-pvqz                        -76.06569091   xtpl_highest_1
       corl                  mp2 / aug-cc-pv[tq]z                      -0.34130359   corl_xtpl_helgaker_2
      total                  CBS                                      -76.40699450   
  ---------------------------------------------------------------------------------------------------------
   => Loading Basis Set <=

    Name: DEF2-SVP
    Role: ORBITAL
    Keyword: BASIS
    atoms 1   entry O          line   130 file /home/liuchw/anaconda3/envs/psi4env/share/psi4/basis/def2-svp.gbs 
    atoms 2-3 entry H          line    15 file /home/liuchw/anaconda3/envs/psi4env/share/psi4/basis/def2-svp.gbs 


       N-Body: Complex Energy (fragments = (2,), basis = (2,):   -76.40699450303742)

       N-Body: Computing complex (2/4) with fragments (2,) in the basis of fragments (1, 2).


Scratch directory: /scratch//

  //>>>>>>>>>>>>>>>>>>>>>>>>>>>>>>>>>>>//
  //   CBS Setup: mp2/aug-cc-pv[tq]z   //
  //<<<<<<<<<<<<<<<<<<<<<<<<<<<<<<<<<<<//

    Naive listing of computations required.
             hf / aug-cc-pvqz              for  HF TOTAL ENERGY
            mp2 / aug-cc-pvtz              for  MP2 TOTAL ENERGY
            mp2 / aug-cc-pvqz              for  MP2 TOTAL ENERGY
             hf / aug-cc-pvtz              for  HF TOTAL ENERGY
             hf / aug-cc-pvqz              for  HF TOTAL ENERGY

    Enlightened listing of computations required.
            mp2 / aug-cc-pvtz              for  MP2 TOTAL ENERGY
            mp2 / aug-cc-pvqz              for  MP2 TOTAL ENERGY

    Full listing of computations to be obtained (required and bonus).
             hf / aug-cc-pvtz              for  HF TOTAL ENERGY
            mp2 / aug-cc-pvtz              for  MP2 TOTAL ENERGY
             hf / aug-cc-pvqz              for  HF TOTAL ENERGY
            mp2 / aug-cc-pvqz              for  MP2 TOTAL ENERGY

  //>>>>>>>>>>>>>>>>>>>>>>>>>>>>>>>>>>>>//
  // CBS Computation: MP2 / AUG-CC-PVTZ //
  //<<<<<<<<<<<<<<<<<<<<<<<<<<<<<<<<<<<<//


Scratch directory: /scratch//

*** tstart() called on node144.bme.utexas.edu
*** at Sat Apr 11 16:12:54 2020

   => Loading Basis Set <=

    Name: AUG-CC-PVTZ
    Role: ORBITAL
    Keyword: BASIS
    atoms 1, 4          entry C          line   239 file /home/liuchw/anaconda3/envs/psi4env/share/psi4/basis/aug-cc-pvtz.gbs 
    atoms 2-3, 5-6, 8-9 entry H          line    40 file /home/liuchw/anaconda3/envs/psi4env/share/psi4/basis/aug-cc-pvtz.gbs 
    atoms 7             entry O          line   331 file /home/liuchw/anaconda3/envs/psi4env/share/psi4/basis/aug-cc-pvtz.gbs 


         ---------------------------------------------------------
                                   SCF
               by Justin Turney, Rob Parrish, Andy Simmonett
                          and Daniel G. A. Smith
                              RHF Reference
                        6 Threads,  38146 MiB Core
         ---------------------------------------------------------

  ==> Geometry <==

    Molecular point group: c1
    Full point group: C1

    Geometry (in Angstrom), charge = 0, multiplicity = 1:

       Center              X                  Y                   Z               Mass       
    ------------   -----------------  -----------------  -----------------  -----------------
      Gh(C)           1.425749888522    -0.666906972027    -0.002281414590    12.000000000000
      Gh(H)           1.720808888522    -1.228546972027     0.872498585410     1.007825032230
      Gh(H)           1.135447888522    -1.228627972027    -0.878612414590     1.007825032230
      Gh(C)           1.425668888522     0.666927027973    -0.002290414590    12.000000000000
      Gh(H)           1.135293888522     1.228599027973    -0.878629414590     1.007825032230
      Gh(H)           1.720652888522     1.228616027973     0.872482585410     1.007825032230
         O           -2.248681511478    -0.000019972027    -0.055928414590    15.994914619570
         H           -1.308610511478     0.000072027973     0.147448585410     1.007825032230
         H           -2.666740511478    -0.000033972027     0.806872585410     1.007825032230

  Running in c1 symmetry.

  Rotational constants: A =      0.81929  B =      0.11168  C =      0.10286 [cm^-1]
  Rotational constants: A =  24561.61513  B =   3348.18826  C =   3083.75048 [MHz]
  Nuclear repulsion =    9.167541950754377

  Charge       = 0
  Multiplicity = 1
  Electrons    = 10
  Nalpha       = 5
  Nbeta        = 5

  ==> Algorithm <==

  SCF Algorithm Type is DF.
  DIIS enabled.
  MOM disabled.
  Fractional occupation disabled.
  Guess Type is SAD.
  Energy threshold   = 1.00e-07
  Density threshold  = 1.00e-08
  Integral threshold = 0.00e+00

  ==> Primary Basis <==

  Basis Set: AUG-CC-PVTZ
    Blend: AUG-CC-PVTZ
    Number of shells: 96
    Number of basis function: 276
    Number of Cartesian functions: 315
    Spherical Harmonics?: true
    Max angular momentum: 3

   => Loading Basis Set <=

    Name: (AUG-CC-PVTZ AUX)
    Role: JKFIT
    Keyword: DF_BASIS_SCF
    atoms 1, 4          entry C          line   162 file /home/liuchw/anaconda3/envs/psi4env/share/psi4/basis/aug-cc-pvtz-jkfit.gbs 
    atoms 2-3, 5-6, 8-9 entry H          line    70 file /home/liuchw/anaconda3/envs/psi4env/share/psi4/basis/aug-cc-pvtz-jkfit.gbs 
    atoms 7             entry O          line   286 file /home/liuchw/anaconda3/envs/psi4env/share/psi4/basis/aug-cc-pvtz-jkfit.gbs 

  ==> Pre-Iterations <==

   -------------------------------------------------------
    Irrep   Nso     Nmo     Nalpha   Nbeta   Ndocc  Nsocc
   -------------------------------------------------------
     A        276     276       0       0       0       0
   -------------------------------------------------------
    Total     276     276       5       5       5       0
   -------------------------------------------------------

  ==> Integral Setup <==

  DFHelper Memory: AOs need 0.345 GiB; user supplied 27.940 GiB. Using in-core AOs.

  ==> MemDFJK: Density-Fitted J/K Matrices <==

    J tasked:                   Yes
    K tasked:                   Yes
    wK tasked:                   No
    OpenMP threads:               6
    Memory [MiB]:             28610
    Algorithm:                 Core
    Schwarz Cutoff:           1E-12
    Mask sparsity (%):       3.1033
    Fitting Condition:        1E-10

   => Auxiliary Basis Set <=

  Basis Set: (AUG-CC-PVTZ AUX)
    Blend: AUG-CC-PVTZ-JKFIT
    Number of shells: 174
    Number of basis function: 588
    Number of Cartesian functions: 723
    Spherical Harmonics?: true
    Max angular momentum: 4

  Minimum eigenvalue in the overlap matrix is 4.6652116510E-06.
  Using Symmetric Orthogonalization.

  SCF Guess: Superposition of Atomic Densities via on-the-fly atomic UHF.

  ==> Iterations <==

                           Total Energy        Delta E     RMS |[F,P]|

   @DF-RHF iter SAD:   -75.47544856863628   -7.54754e+01   0.00000e+00 
   @DF-RHF iter   1:   -75.97588286748056   -5.00434e-01   1.69731e-03 DIIS
   @DF-RHF iter   2:   -76.02837965833351   -5.24968e-02   1.15889e-03 DIIS
   @DF-RHF iter   3:   -76.05993672487911   -3.15571e-02   7.87147e-05 DIIS
   @DF-RHF iter   4:   -76.06032617625078   -3.89451e-04   1.88813e-05 DIIS
   @DF-RHF iter   5:   -76.06035064429454   -2.44680e-05   4.29361e-06 DIIS
   @DF-RHF iter   6:   -76.06035264911077   -2.00482e-06   9.39789e-07 DIIS
   @DF-RHF iter   7:   -76.06035275468000   -1.05569e-07   1.68646e-07 DIIS
   @DF-RHF iter   8:   -76.06035275766432   -2.98432e-09   2.82372e-08 DIIS
   @DF-RHF iter   9:   -76.06035275772959   -6.52705e-11   6.90837e-09 DIIS
  Energy and wave function converged.


  ==> Post-Iterations <==

    Orbital Energies [Eh]
    ---------------------

    Doubly Occupied:                                                      

       1A    -20.568098     2A     -1.352638     3A     -0.714463  
       4A     -0.586032     5A     -0.510362  

    Virtual:                                                              

       6A      0.017406     7A      0.038250     8A      0.039083  
       9A      0.041887    10A      0.060657    11A      0.070177  
      12A      0.090103    13A      0.102087    14A      0.104332  
      15A      0.109244    16A      0.111533    17A      0.126398  
      18A      0.149047    19A      0.163142    20A      0.168836  
      21A      0.182484    22A      0.191484    23A      0.195838  
      24A      0.215704    25A      0.241910    26A      0.264414  
      27A      0.265713    28A      0.276538    29A      0.283089  
      30A      0.292374    31A      0.294147    32A      0.301163  
      33A      0.312790    34A      0.322229    35A      0.323219  
      36A      0.326511    37A      0.337485    38A      0.353379  
      39A      0.376702    40A      0.378366    41A      0.384702  
      42A      0.396070    43A      0.413861    44A      0.419739  
      45A      0.424277    46A      0.443479    47A      0.448688  
      48A      0.454777    49A      0.470981    50A      0.489311  
      51A      0.510155    52A      0.533140    53A      0.555952  
      54A      0.583896    55A      0.593149    56A      0.601343  
      57A      0.612714    58A      0.614747    59A      0.621022  
      60A      0.646277    61A      0.651427    62A      0.657274  
      63A      0.688069    64A      0.688299    65A      0.723504  
      66A      0.748009    67A      0.764275    68A      0.768787  
      69A      0.790559    70A      0.793659    71A      0.879111  
      72A      0.894785    73A      0.907500    74A      0.922882  
      75A      0.931763    76A      0.934534    77A      0.943658  
      78A      0.958421    79A      0.959003    80A      0.968094  
      81A      0.989786    82A      0.998748    83A      1.015960  
      84A      1.022809    85A      1.032675    86A      1.042957  
      87A      1.069391    88A      1.076890    89A      1.082504  
      90A      1.090551    91A      1.099676    92A      1.109821  
      93A      1.117284    94A      1.128880    95A      1.148647  
      96A      1.155654    97A      1.173383    98A      1.177130  
      99A      1.183023   100A      1.201471   101A      1.218505  
     102A      1.223916   103A      1.240199   104A      1.255406  
     105A      1.255930   106A      1.273850   107A      1.287959  
     108A      1.326611   109A      1.358047   110A      1.368431  
     111A      1.389771   112A      1.394036   113A      1.432325  
     114A      1.435738   115A      1.453930   116A      1.471849  
     117A      1.487230   118A      1.515242   119A      1.527618  
     120A      1.550504   121A      1.572487   122A      1.577633  
     123A      1.582571   124A      1.620889   125A      1.655384  
     126A      1.708213   127A      1.725559   128A      1.733424  
     129A      1.759079   130A      1.793794   131A      1.836389  
     132A      1.862127   133A      1.870222   134A      1.916564  
     135A      1.952733   136A      1.996841   137A      2.010969  
     138A      2.059014   139A      2.107031   140A      2.141855  
     141A      2.171545   142A      2.183613   143A      2.192275  
     144A      2.227101   145A      2.264826   146A      2.268889  
     147A      2.282651   148A      2.296531   149A      2.302746  
     150A      2.309796   151A      2.344003   152A      2.396061  
     153A      2.425403   154A      2.472802   155A      2.483002  
     156A      2.483473   157A      2.486085   158A      2.500984  
     159A      2.533741   160A      2.624086   161A      2.640665  
     162A      2.675066   163A      2.695919   164A      2.736913  
     165A      2.750085   166A      2.775954   167A      2.835858  
     168A      2.839086   169A      2.916441   170A      3.007103  
     171A      3.239266   172A      3.250131   173A      3.687713  
     174A      3.763656   175A      3.820110   176A      3.879094  
     177A      3.965126   178A      4.009981   179A      4.032312  
     180A      4.051691   181A      4.058471   182A      4.080178  
     183A      4.104100   184A      4.126879   185A      4.160536  
     186A      4.206203   187A      4.214331   188A      4.216032  
     189A      4.231176   190A      4.273185   191A      4.288069  
     192A      4.302216   193A      4.303844   194A      4.332950  
     195A      4.393184   196A      4.404475   197A      4.410203  
     198A      4.419296   199A      4.456673   200A      4.485886  
     201A      4.503039   202A      4.557545   203A      4.570078  
     204A      4.607715   205A      4.640265   206A      4.659779  
     207A      4.728090   208A      4.776428   209A      4.835274  
     210A      4.868784   211A      4.891539   212A      4.916252  
     213A      4.942971   214A      4.974137   215A      4.974362  
     216A      5.018388   217A      5.045935   218A      5.132932  
     219A      5.153343   220A      5.158309   221A      5.228299  
     222A      5.312712   223A      5.347324   224A      5.356286  
     225A      5.401673   226A      5.435825   227A      5.445425  
     228A      5.478392   229A      5.519196   230A      5.523443  
     231A      5.569840   232A      5.609965   233A      5.650411  
     234A      5.659306   235A      5.704600   236A      5.719325  
     237A      5.796950   238A      5.866997   239A      5.874838  
     240A      5.984185   241A      6.067670   242A      6.077079  
     243A      6.198539   244A      6.222199   245A      6.234263  
     246A      6.539503   247A      6.570329   248A      6.603029  
     249A      6.778049   250A      6.941064   251A      6.945920  
     252A      7.074890   253A      7.128046   254A      7.147730  
     255A      7.288637   256A      7.318443   257A      7.337814  
     258A      7.384715   259A      7.484463   260A      7.549622  
     261A      7.602138   262A      7.633221   263A      7.698848  
     264A      7.879267   265A      7.952673   266A      7.969368  
     267A      8.053648   268A      8.294909   269A      8.371995  
     270A      8.834312   271A      8.865400   272A     10.563767  
     273A     10.852738   274A     16.154626   275A     50.781084  
     276A     51.819257  

    Final Occupation by Irrep:
              A 
    DOCC [     5 ]

  @DF-RHF Final Energy:   -76.06035275772959

   => Energetics <=

    Nuclear Repulsion Energy =              9.1675419507543765
    One-Electron Energy =                -122.9926006355055677
    Two-Electron Energy =                  37.7647059270215948
    Total Energy =                        -76.0603527577295893

Computation Completed


Properties will be evaluated at   0.000000,   0.000000,   0.000000 [a0]

Properties computed using the SCF density matrix

  Nuclear Dipole Moment: [e a0]
     X:   -41.5075      Y:    -0.0002      Z:     0.9579

  Electronic Dipole Moment: [e a0]
     X:    41.8531      Y:     0.0003      Z:    -0.2510

  Dipole Moment: [e a0]
     X:     0.3457      Y:     0.0001      Z:     0.7069     Total:     0.7869

  Dipole Moment: [D]
     X:     0.8786      Y:     0.0001      Z:     1.7967     Total:     2.0000


*** tstop() called on node144.bme.utexas.edu at Sat Apr 11 16:13:02 2020
Module time:
	user time   =      35.74 seconds =       0.60 minutes
	system time =       1.75 seconds =       0.03 minutes
	total time  =          8 seconds =       0.13 minutes
Total time:
	user time   =      71.20 seconds =       1.19 minutes
	system time =       4.82 seconds =       0.08 minutes
	total time  =         18 seconds =       0.30 minutes

*** tstart() called on node144.bme.utexas.edu
*** at Sat Apr 11 16:13:02 2020


  //>>>>>>>>>>>>>>>>>>>>>>>>>>>>>>>>>>>//
  //               DFMP2               //
  //<<<<<<<<<<<<<<<<<<<<<<<<<<<<<<<<<<<//

   => Loading Basis Set <=

    Name: (AUG-CC-PVTZ AUX)
    Role: RIFIT
    Keyword: DF_BASIS_MP2
    atoms 1, 4          entry C          line   148 file /home/liuchw/anaconda3/envs/psi4env/share/psi4/basis/aug-cc-pvtz-ri.gbs 
    atoms 2-3, 5-6, 8-9 entry H          line    30 file /home/liuchw/anaconda3/envs/psi4env/share/psi4/basis/aug-cc-pvtz-ri.gbs 
    atoms 7             entry O          line   264 file /home/liuchw/anaconda3/envs/psi4env/share/psi4/basis/aug-cc-pvtz-ri.gbs 

	 --------------------------------------------------------
	                          DF-MP2                         
	      2nd-Order Density-Fitted Moller-Plesset Theory     
	              RMP2 Wavefunction,   6 Threads             
	                                                         
	        Rob Parrish, Justin Turney, Andy Simmonett,      
	           Ed Hohenstein, and C. David Sherrill          
	 --------------------------------------------------------

   => Auxiliary Basis Set <=

  Basis Set: (AUG-CC-PVTZ AUX)
    Blend: AUG-CC-PVTZ-RI
    Number of shells: 168
    Number of basis function: 594
    Number of Cartesian functions: 738
    Spherical Harmonics?: true
    Max angular momentum: 4

	 --------------------------------------------------------
	                 NBF =   276, NAUX =   594
	 --------------------------------------------------------
	   CLASS    FOCC     OCC    AOCC    AVIR     VIR    FVIR
	   PAIRS       0       5       5     271     271       0
	 --------------------------------------------------------

	-----------------------------------------------------------
	 ==================> DF-MP2 Energies <==================== 
	-----------------------------------------------------------
	 Reference Energy          =     -76.0603527577295893 [Eh]
	 Singles Energy            =      -0.0000000000000000 [Eh]
	 Same-Spin Energy          =      -0.0684429803557327 [Eh]
	 Opposite-Spin Energy      =      -0.2157473758502225 [Eh]
	 Correlation Energy        =      -0.2841903562059552 [Eh]
	 Total Energy              =     -76.3445431139355435 [Eh]
	-----------------------------------------------------------
	 ================> DF-SCS-MP2 Energies <================== 
	-----------------------------------------------------------
	 SCS Same-Spin Scale       =       0.3333333333333333 [-]
	 SCS Opposite-Spin Scale   =       1.2000000000000000 [-]
	 SCS Same-Spin Energy      =      -0.0228143267852442 [Eh]
	 SCS Opposite-Spin Energy  =      -0.2588968510202670 [Eh]
	 SCS Correlation Energy    =      -0.2817111778055112 [Eh]
	 SCS Total Energy          =     -76.3420639355350943 [Eh]
	-----------------------------------------------------------


*** tstop() called on node144.bme.utexas.edu at Sat Apr 11 16:13:05 2020
Module time:
	user time   =      13.57 seconds =       0.23 minutes
	system time =       0.65 seconds =       0.01 minutes
	total time  =          3 seconds =       0.05 minutes
Total time:
	user time   =      84.79 seconds =       1.41 minutes
	system time =       5.48 seconds =       0.09 minutes
	total time  =         21 seconds =       0.35 minutes

  //>>>>>>>>>>>>>>>>>>>>>>>>>>>>>>>>>>>>//
  // CBS Computation: MP2 / AUG-CC-PVQZ //
  //<<<<<<<<<<<<<<<<<<<<<<<<<<<<<<<<<<<<//


Scratch directory: /scratch//

*** tstart() called on node144.bme.utexas.edu
*** at Sat Apr 11 16:13:05 2020

   => Loading Basis Set <=

    Name: AUG-CC-PVQZ
    Role: ORBITAL
    Keyword: BASIS
    atoms 1, 4          entry C          line   303 file /home/liuchw/anaconda3/envs/psi4env/share/psi4/basis/aug-cc-pvqz.gbs 
    atoms 2-3, 5-6, 8-9 entry H          line    40 file /home/liuchw/anaconda3/envs/psi4env/share/psi4/basis/aug-cc-pvqz.gbs 
    atoms 7             entry O          line   423 file /home/liuchw/anaconda3/envs/psi4env/share/psi4/basis/aug-cc-pvqz.gbs 


         ---------------------------------------------------------
                                   SCF
               by Justin Turney, Rob Parrish, Andy Simmonett
                          and Daniel G. A. Smith
                              RHF Reference
                        6 Threads,  38146 MiB Core
         ---------------------------------------------------------

  ==> Geometry <==

    Molecular point group: c1
    Full point group: C1

    Geometry (in Angstrom), charge = 0, multiplicity = 1:

       Center              X                  Y                   Z               Mass       
    ------------   -----------------  -----------------  -----------------  -----------------
      Gh(C)           1.425749888522    -0.666906972027    -0.002281414590    12.000000000000
      Gh(H)           1.720808888522    -1.228546972027     0.872498585410     1.007825032230
      Gh(H)           1.135447888522    -1.228627972027    -0.878612414590     1.007825032230
      Gh(C)           1.425668888522     0.666927027973    -0.002290414590    12.000000000000
      Gh(H)           1.135293888522     1.228599027973    -0.878629414590     1.007825032230
      Gh(H)           1.720652888522     1.228616027973     0.872482585410     1.007825032230
         O           -2.248681511478    -0.000019972027    -0.055928414590    15.994914619570
         H           -1.308610511478     0.000072027973     0.147448585410     1.007825032230
         H           -2.666740511478    -0.000033972027     0.806872585410     1.007825032230

  Running in c1 symmetry.

  Rotational constants: A =      0.81929  B =      0.11168  C =      0.10286 [cm^-1]
  Rotational constants: A =  24561.61513  B =   3348.18826  C =   3083.75048 [MHz]
  Nuclear repulsion =    9.167541950754377

  Charge       = 0
  Multiplicity = 1
  Electrons    = 10
  Nalpha       = 5
  Nbeta        = 5

  ==> Algorithm <==

  SCF Algorithm Type is DF.
  DIIS enabled.
  MOM disabled.
  Fractional occupation disabled.
  Guess Type is SAD.
  Energy threshold   = 1.00e-07
  Density threshold  = 1.00e-08
  Integral threshold = 0.00e+00

  ==> Primary Basis <==

  Basis Set: AUG-CC-PVQZ
    Blend: AUG-CC-PVQZ
    Number of shells: 144
    Number of basis function: 516
    Number of Cartesian functions: 645
    Spherical Harmonics?: true
    Max angular momentum: 4

   => Loading Basis Set <=

    Name: (AUG-CC-PVQZ AUX)
    Role: JKFIT
    Keyword: DF_BASIS_SCF
    atoms 1, 4          entry C          line   178 file /home/liuchw/anaconda3/envs/psi4env/share/psi4/basis/aug-cc-pvqz-jkfit.gbs 
    atoms 2-3, 5-6, 8-9 entry H          line    70 file /home/liuchw/anaconda3/envs/psi4env/share/psi4/basis/aug-cc-pvqz-jkfit.gbs 
    atoms 7             entry O          line   318 file /home/liuchw/anaconda3/envs/psi4env/share/psi4/basis/aug-cc-pvqz-jkfit.gbs 

  ==> Pre-Iterations <==

   -------------------------------------------------------
    Irrep   Nso     Nmo     Nalpha   Nbeta   Ndocc  Nsocc
   -------------------------------------------------------
     A        516     516       0       0       0       0
   -------------------------------------------------------
    Total     516     516       5       5       5       0
   -------------------------------------------------------

  ==> Integral Setup <==

  DFHelper Memory: AOs need 1.727 GiB; user supplied 27.940 GiB. Using in-core AOs.

  ==> MemDFJK: Density-Fitted J/K Matrices <==

    J tasked:                   Yes
    K tasked:                   Yes
    wK tasked:                   No
    OpenMP threads:               6
    Memory [MiB]:             28610
    Algorithm:                 Core
    Schwarz Cutoff:           1E-12
    Mask sparsity (%):       6.0573
    Fitting Condition:        1E-10

   => Auxiliary Basis Set <=

  Basis Set: (AUG-CC-PVQZ AUX)
    Blend: AUG-CC-PVQZ-JKFIT
    Number of shells: 210
    Number of basis function: 882
    Number of Cartesian functions: 1200
    Spherical Harmonics?: true
    Max angular momentum: 5

  Minimum eigenvalue in the overlap matrix is 2.0949821656E-06.
  Using Symmetric Orthogonalization.

  SCF Guess: Superposition of Atomic Densities via on-the-fly atomic UHF.

  ==> Iterations <==

                           Total Energy        Delta E     RMS |[F,P]|

   @DF-RHF iter SAD:   -75.48058859602152   -7.54806e+01   0.00000e+00 
   @DF-RHF iter   1:   -75.98094136650600   -5.00353e-01   9.09768e-04 DIIS
   @DF-RHF iter   2:   -76.03353371302074   -5.25923e-02   6.22534e-04 DIIS
   @DF-RHF iter   3:   -76.06528632856453   -3.17526e-02   4.24186e-05 DIIS
   @DF-RHF iter   4:   -76.06567774749746   -3.91419e-04   1.03974e-05 DIIS
   @DF-RHF iter   5:   -76.06570308745344   -2.53400e-05   2.35684e-06 DIIS
   @DF-RHF iter   6:   -76.06570517239200   -2.08494e-06   5.29475e-07 DIIS
   @DF-RHF iter   7:   -76.06570528906374   -1.16672e-07   9.82638e-08 DIIS
   @DF-RHF iter   8:   -76.06570529259335   -3.52961e-09   1.58253e-08 DIIS
   @DF-RHF iter   9:   -76.06570529266689   -7.35412e-11   3.78147e-09 DIIS
  Energy and wave function converged.


  ==> Post-Iterations <==

    Orbital Energies [Eh]
    ---------------------

    Doubly Occupied:                                                      

       1A    -20.565647     2A     -1.351920     3A     -0.714440  
       4A     -0.586097     5A     -0.510493  

    Virtual:                                                              

       6A      0.015746     7A      0.034404     8A      0.035444  
       9A      0.037864    10A      0.053378    11A      0.063931  
      12A      0.080314    13A      0.086834    14A      0.089633  
      15A      0.096831    16A      0.097099    17A      0.112183  
      18A      0.127420    19A      0.138905    20A      0.149978  
      21A      0.156132    22A      0.158415    23A      0.172761  
      24A      0.181035    25A      0.211077    26A      0.216591  
      27A      0.221357    28A      0.227602    29A      0.235957  
      30A      0.246661    31A      0.247994    32A      0.255267  
      33A      0.262363    34A      0.264156    35A      0.270972  
      36A      0.271976    37A      0.289927    38A      0.294914  
      39A      0.310145    40A      0.321450    41A      0.325928  
      42A      0.327477    43A      0.327795    44A      0.342045  
      45A      0.343353    46A      0.359263    47A      0.359768  
      48A      0.371836    49A      0.380445    50A      0.385777  
      51A      0.412603    52A      0.435469    53A      0.445158  
      54A      0.448106    55A      0.462572    56A      0.463903  
      57A      0.481596    58A      0.485512    59A      0.491118  
      60A      0.512114    61A      0.516402    62A      0.526721  
      63A      0.531795    64A      0.549002    65A      0.564359  
      66A      0.583263    67A      0.594084    68A      0.607209  
      69A      0.630514    70A      0.637295    71A      0.653295  
      72A      0.658149    73A      0.665450    74A      0.677344  
      75A      0.685650    76A      0.689847    77A      0.701158  
      78A      0.716840    79A      0.725026    80A      0.733060  
      81A      0.749031    82A      0.757662    83A      0.766987  
      84A      0.769419    85A      0.778497    86A      0.778810  
      87A      0.788760    88A      0.797487    89A      0.809758  
      90A      0.825638    91A      0.835502    92A      0.841396  
      93A      0.852369    94A      0.872985    95A      0.875943  
      96A      0.878541    97A      0.879445    98A      0.906453  
      99A      0.916928   100A      0.923704   101A      0.944385  
     102A      0.946678   103A      0.958483   104A      0.959371  
     105A      0.973986   106A      0.974285   107A      0.981329  
     108A      0.994195   109A      1.024806   110A      1.026350  
     111A      1.033821   112A      1.045223   113A      1.062215  
     114A      1.065567   115A      1.110834   116A      1.119358  
     117A      1.130264   118A      1.138429   119A      1.139803  
     120A      1.145529   121A      1.150004   122A      1.186393  
     123A      1.224641   124A      1.225258   125A      1.236024  
     126A      1.248490   127A      1.265856   128A      1.289962  
     129A      1.302467   130A      1.314412   131A      1.333095  
     132A      1.359864   133A      1.399271   134A      1.418859  
     135A      1.422121   136A      1.471852   137A      1.495425  
     138A      1.505814   139A      1.516130   140A      1.523007  
     141A      1.533994   142A      1.550562   143A      1.561299  
     144A      1.576244   145A      1.594630   146A      1.596017  
     147A      1.629933   148A      1.637771   149A      1.640338  
     150A      1.654555   151A      1.663908   152A      1.671179  
     153A      1.683732   154A      1.688229   155A      1.703799  
     156A      1.704485   157A      1.713846   158A      1.732815  
     159A      1.745626   160A      1.756070   161A      1.758807  
     162A      1.783068   163A      1.787466   164A      1.792409  
     165A      1.803592   166A      1.806123   167A      1.838986  
     168A      1.843960   169A      1.872222   170A      1.879584  
     171A      1.885720   172A      1.887767   173A      1.914185  
     174A      1.920904   175A      1.926133   176A      1.942911  
     177A      1.944550   178A      1.963982   179A      1.966303  
     180A      1.973458   181A      1.983020   182A      2.004220  
     183A      2.009402   184A      2.064293   185A      2.069183  
     186A      2.072059   187A      2.084550   188A      2.106006  
     189A      2.119021   190A      2.121477   191A      2.126043  
     192A      2.152605   193A      2.156578   194A      2.166182  
     195A      2.182646   196A      2.182671   197A      2.191913  
     198A      2.225601   199A      2.226039   200A      2.267343  
     201A      2.268847   202A      2.278456   203A      2.321125  
     204A      2.324573   205A      2.350680   206A      2.376484  
     207A      2.380140   208A      2.394959   209A      2.397610  
     210A      2.426979   211A      2.440287   212A      2.450499  
     213A      2.506367   214A      2.518974   215A      2.527038  
     216A      2.554119   217A      2.578965   218A      2.612665  
     219A      2.615071   220A      2.622707   221A      2.639638  
     222A      2.654889   223A      2.689961   224A      2.709047  
     225A      2.724437   226A      2.735678   227A      2.761666  
     228A      2.766533   229A      2.779338   230A      2.828423  
     231A      2.853386   232A      2.883718   233A      2.916151  
     234A      2.931878   235A      2.969749   236A      2.971721  
     237A      2.997714   238A      3.023637   239A      3.031323  
     240A      3.036622   241A      3.043019   242A      3.069900  
     243A      3.070981   244A      3.094918   245A      3.111238  
     246A      3.118158   247A      3.138200   248A      3.169868  
     249A      3.181549   250A      3.186108   251A      3.195684  
     252A      3.228749   253A      3.228794   254A      3.254880  
     255A      3.268877   256A      3.293477   257A      3.319140  
     258A      3.319651   259A      3.351793   260A      3.372744  
     261A      3.422248   262A      3.442122   263A      3.448242  
     264A      3.545450   265A      3.625831   266A      3.632828  
     267A      3.641471   268A      3.656390   269A      3.667069  
     270A      3.683989   271A      3.699839   272A      3.707757  
     273A      3.730777   274A      3.752643   275A      3.758960  
     276A      3.817203   277A      3.820235   278A      3.824446  
     279A      3.860172   280A      3.903380   281A      3.925783  
     282A      3.934245   283A      3.974177   284A      3.997230  
     285A      4.007768   286A      4.031517   287A      4.047529  
     288A      4.083977   289A      4.128599   290A      4.154141  
     291A      4.180970   292A      4.204098   293A      4.204518  
     294A      4.258259   295A      4.279968   296A      4.319073  
     297A      4.327943   298A      4.333248   299A      4.400183  
     300A      4.404795   301A      4.438277   302A      4.457909  
     303A      4.508032   304A      4.579196   305A      4.594525  
     306A      4.602475   307A      4.633699   308A      4.673769  
     309A      4.711208   310A      4.776997   311A      4.805850  
     312A      4.819169   313A      4.841126   314A      4.844256  
     315A      4.862418   316A      4.929423   317A      4.944354  
     318A      4.961623   319A      4.984212   320A      4.987008  
     321A      5.026638   322A      5.032415   323A      5.090741  
     324A      5.113068   325A      5.117228   326A      5.142451  
     327A      5.200435   328A      5.229955   329A      5.329908  
     330A      5.435119   331A      5.463027   332A      5.496170  
     333A      5.570452   334A      5.595318   335A      5.636906  
     336A      5.667886   337A      5.898485   338A      5.904948  
     339A      5.961233   340A      5.974059   341A      6.121504  
     342A      6.162757   343A      6.293386   344A      6.478032  
     345A      6.500074   346A      6.590354   347A      6.609453  
     348A      6.656510   349A      6.713873   350A      6.744866  
     351A      6.758752   352A      6.847480   353A      6.868051  
     354A      6.917020   355A      6.922197   356A      6.954434  
     357A      6.959496   358A      6.979722   359A      6.987077  
     360A      7.130703   361A      7.139660   362A      7.194142  
     363A      7.204804   364A      7.205434   365A      7.235833  
     366A      7.251696   367A      7.281163   368A      7.288997  
     369A      7.319842   370A      7.325248   371A      7.340867  
     372A      7.355167   373A      7.360354   374A      7.533078  
     375A      7.560371   376A      7.589676   377A      7.622409  
     378A      7.783119   379A      7.798505   380A      7.813878  
     381A      7.816788   382A      7.820185   383A      7.844830  
     384A      7.855564   385A      7.900787   386A      7.930555  
     387A      7.931132   388A      7.941447   389A      7.990971  
     390A      8.066635   391A      8.096857   392A      8.117895  
     393A      8.134888   394A      8.179082   395A      8.203160  
     396A      8.214595   397A      8.303926   398A      8.403276  
     399A      8.474225   400A      8.541441   401A      8.545744  
     402A      8.639624   403A      8.682335   404A      8.694489  
     405A      8.735631   406A      8.740535   407A      8.754973  
     408A      8.850715   409A      8.894234   410A      8.898785  
     411A      8.917214   412A      8.970197   413A      8.974556  
     414A      9.013640   415A      9.029903   416A      9.079138  
     417A      9.096398   418A      9.109155   419A      9.124923  
     420A      9.188836   421A      9.273890   422A      9.284153  
     423A      9.334712   424A      9.346818   425A      9.398123  
     426A      9.417888   427A      9.491450   428A      9.561308  
     429A      9.576514   430A      9.657992   431A      9.660938  
     432A      9.718122   433A      9.732197   434A      9.768677  
     435A      9.774445   436A      9.780602   437A      9.792263  
     438A      9.888076   439A      9.931956   440A      9.978439  
     441A      9.996872   442A     10.001417   443A     10.023382  
     444A     10.048016   445A     10.159575   446A     10.167159  
     447A     10.190249   448A     10.204286   449A     10.229663  
     450A     10.365612   451A     10.389844   452A     10.437974  
     453A     10.442949   454A     10.496032   455A     10.516148  
     456A     10.549050   457A     10.658131   458A     10.671100  
     459A     10.681760   460A     10.830564   461A     10.910612  
     462A     11.005315   463A     11.033432   464A     11.075312  
     465A     11.120574   466A     11.146088   467A     11.192897  
     468A     11.198216   469A     11.226852   470A     11.289510  
     471A     11.344826   472A     11.372750   473A     11.383193  
     474A     11.437781   475A     11.754229   476A     11.792063  
     477A     11.805203   478A     11.833415   479A     11.922943  
     480A     11.947490   481A     12.032899   482A     12.186251  
     483A     12.187646   484A     12.256934   485A     12.304829  
     486A     12.449030   487A     12.550109   488A     12.683501  
     489A     12.767540   490A     12.825275   491A     12.869794  
     492A     12.961815   493A     13.134903   494A     13.201000  
     495A     13.263733   496A     13.404105   497A     13.662091  
     498A     14.009567   499A     14.033646   500A     14.081855  
     501A     14.145732   502A     14.366409   503A     14.531942  
     504A     14.827501   505A     14.930749   506A     15.127831  
     507A     15.279192   508A     16.679929   509A     16.920441  
     510A     17.325729   511A     17.343406   512A     17.393532  
     513A     18.051930   514A     45.629483   515A     69.032029  
     516A     69.557542  

    Final Occupation by Irrep:
              A 
    DOCC [     5 ]

  @DF-RHF Final Energy:   -76.06570529266689

   => Energetics <=

    Nuclear Repulsion Energy =              9.1675419507543765
    One-Electron Energy =                -123.0092984737856909
    Two-Electron Energy =                  37.7760512303644305
    Total Energy =                        -76.0657052926668769

Computation Completed


Properties will be evaluated at   0.000000,   0.000000,   0.000000 [a0]

Properties computed using the SCF density matrix

  Nuclear Dipole Moment: [e a0]
     X:   -41.5075      Y:    -0.0002      Z:     0.9579

  Electronic Dipole Moment: [e a0]
     X:    41.8526      Y:     0.0003      Z:    -0.2519

  Dipole Moment: [e a0]
     X:     0.3451      Y:     0.0001      Z:     0.7060     Total:     0.7858

  Dipole Moment: [D]
     X:     0.8771      Y:     0.0001      Z:     1.7944     Total:     1.9973


*** tstop() called on node144.bme.utexas.edu at Sat Apr 11 16:13:32 2020
Module time:
	user time   =     128.27 seconds =       2.14 minutes
	system time =       4.98 seconds =       0.08 minutes
	total time  =         27 seconds =       0.45 minutes
Total time:
	user time   =     213.16 seconds =       3.55 minutes
	system time =      10.48 seconds =       0.17 minutes
	total time  =         48 seconds =       0.80 minutes

*** tstart() called on node144.bme.utexas.edu
*** at Sat Apr 11 16:13:32 2020


  //>>>>>>>>>>>>>>>>>>>>>>>>>>>>>>>>>>>//
  //               DFMP2               //
  //<<<<<<<<<<<<<<<<<<<<<<<<<<<<<<<<<<<//

   => Loading Basis Set <=

    Name: (AUG-CC-PVQZ AUX)
    Role: RIFIT
    Keyword: DF_BASIS_MP2
    atoms 1, 4          entry C          line   184 file /home/liuchw/anaconda3/envs/psi4env/share/psi4/basis/aug-cc-pvqz-ri.gbs 
    atoms 2-3, 5-6, 8-9 entry H          line    30 file /home/liuchw/anaconda3/envs/psi4env/share/psi4/basis/aug-cc-pvqz-ri.gbs 
    atoms 7             entry O          line   332 file /home/liuchw/anaconda3/envs/psi4env/share/psi4/basis/aug-cc-pvqz-ri.gbs 

	 --------------------------------------------------------
	                          DF-MP2                         
	      2nd-Order Density-Fitted Moller-Plesset Theory     
	              RMP2 Wavefunction,   6 Threads             
	                                                         
	        Rob Parrish, Justin Turney, Andy Simmonett,      
	           Ed Hohenstein, and C. David Sherrill          
	 --------------------------------------------------------

   => Auxiliary Basis Set <=

  Basis Set: (AUG-CC-PVQZ AUX)
    Blend: AUG-CC-PVQZ-RI
    Number of shells: 228
    Number of basis function: 984
    Number of Cartesian functions: 1341
    Spherical Harmonics?: true
    Max angular momentum: 5

	 --------------------------------------------------------
	                 NBF =   516, NAUX =   984
	 --------------------------------------------------------
	   CLASS    FOCC     OCC    AOCC    AVIR     VIR    FVIR
	   PAIRS       0       5       5     511     511       0
	 --------------------------------------------------------

	-----------------------------------------------------------
	 ==================> DF-MP2 Energies <==================== 
	-----------------------------------------------------------
	 Reference Energy          =     -76.0657052926668911 [Eh]
	 Singles Energy            =      -0.0000000000000000 [Eh]
	 Same-Spin Energy          =      -0.0727434500182569 [Eh]
	 Opposite-Spin Energy      =      -0.2444017528441106 [Eh]
	 Correlation Energy        =      -0.3171452028623674 [Eh]
	 Total Energy              =     -76.3828504955292544 [Eh]
	-----------------------------------------------------------
	 ================> DF-SCS-MP2 Energies <================== 
	-----------------------------------------------------------
	 SCS Same-Spin Scale       =       0.3333333333333333 [-]
	 SCS Opposite-Spin Scale   =       1.2000000000000000 [-]
	 SCS Same-Spin Energy      =      -0.0242478166727523 [Eh]
	 SCS Opposite-Spin Energy  =      -0.2932821034129326 [Eh]
	 SCS Correlation Energy    =      -0.3175299200856849 [Eh]
	 SCS Total Energy          =     -76.3832352127525809 [Eh]
	-----------------------------------------------------------


*** tstop() called on node144.bme.utexas.edu at Sat Apr 11 16:13:47 2020
Module time:
	user time   =      63.87 seconds =       1.06 minutes
	system time =       2.24 seconds =       0.04 minutes
	total time  =         15 seconds =       0.25 minutes
Total time:
	user time   =     277.05 seconds =       4.62 minutes
	system time =      12.72 seconds =       0.21 minutes
	total time  =         63 seconds =       1.05 minutes

  //>>>>>>>>>>>>>>>>>>>>>>>>>>>>>>>>>>>//
  //  CBS Results: mp2/aug-cc-pv[tq]z  //
  //<<<<<<<<<<<<<<<<<<<<<<<<<<<<<<<<<<<//


   ==> HF <==

   HI-zeta (4) Energy:               -76.065705292667


   ==> Helgaker 2-point correlated extrapolation for method: MP2 <==

   LO-zeta (3) Energy:               -76.344543113936
   HI-zeta (4) Energy:               -76.382850495529
   Alpha (exponent) Value:             3.000000000000
   Extrapolated Energy:              -76.410804530746

   @Extrapolated MP2/(T,Q):          -76.410804530746



   ==> Helgaker 2-point correlated extrapolation for method: HF <==

   LO-zeta (3) Energy:               -76.060352757730
   HI-zeta (4) Energy:               -76.065705292667
   Alpha (exponent) Value:             3.000000000000
   Extrapolated Energy:              -76.069611196540

   @Extrapolated HF/(T,Q):           -76.069611196540


   ==> Components <==

  ---------------------------------------------------------------------------------------------------------
                          Method / Basis                      Rqd      Energy [Eh]   Variable
  ---------------------------------------------------------------------------------------------------------
                              hf / aug-cc-pvtz                  *     -76.06035276   HF TOTAL ENERGY
                             mp2 / aug-cc-pvtz                  *     -76.34454311   MP2 TOTAL ENERGY
                              hf / aug-cc-pvqz                  *     -76.06570529   HF TOTAL ENERGY
                             mp2 / aug-cc-pvqz                  *     -76.38285050   MP2 TOTAL ENERGY
  ---------------------------------------------------------------------------------------------------------

   ==> Stages <==

  ---------------------------------------------------------------------------------------------------------
      Stage               Method / Basis                       Wt      Energy [Eh]   Scheme
  ---------------------------------------------------------------------------------------------------------
        scf                   hf / aug-cc-pvqz                  1     -76.06570529   xtpl_highest_1
       corl                  mp2 / aug-cc-pv[tq]z               1     -76.41080453   corl_xtpl_helgaker_2
       corl                   hf / aug-cc-pv[tq]z              -1     -76.06961120   corl_xtpl_helgaker_2
  ---------------------------------------------------------------------------------------------------------

   ==> CBS <==

  ---------------------------------------------------------------------------------------------------------
      Stage               Method / Basis                               Energy [Eh]   Scheme
  ---------------------------------------------------------------------------------------------------------
        scf                   hf / aug-cc-pvqz                        -76.06570529   xtpl_highest_1
       corl                  mp2 / aug-cc-pv[tq]z                      -0.34119333   corl_xtpl_helgaker_2
      total                  CBS                                      -76.40689863   
  ---------------------------------------------------------------------------------------------------------
   => Loading Basis Set <=

    Name: DEF2-SVP
    Role: ORBITAL
    Keyword: BASIS
    atoms 1, 4          entry C          line    90 file /home/liuchw/anaconda3/envs/psi4env/share/psi4/basis/def2-svp.gbs 
    atoms 2-3, 5-6, 8-9 entry H          line    15 file /home/liuchw/anaconda3/envs/psi4env/share/psi4/basis/def2-svp.gbs 
    atoms 7             entry O          line   130 file /home/liuchw/anaconda3/envs/psi4env/share/psi4/basis/def2-svp.gbs 


       N-Body: Complex Energy (fragments = (2,), basis = (1, 2):   -76.40689862687313)

       N-Body: Computing complex (3/4) with fragments (1,) in the basis of fragments (1, 2).


Scratch directory: /scratch//

  //>>>>>>>>>>>>>>>>>>>>>>>>>>>>>>>>>>>//
  //   CBS Setup: mp2/aug-cc-pv[tq]z   //
  //<<<<<<<<<<<<<<<<<<<<<<<<<<<<<<<<<<<//

    Naive listing of computations required.
             hf / aug-cc-pvqz              for  HF TOTAL ENERGY
            mp2 / aug-cc-pvtz              for  MP2 TOTAL ENERGY
            mp2 / aug-cc-pvqz              for  MP2 TOTAL ENERGY
             hf / aug-cc-pvtz              for  HF TOTAL ENERGY
             hf / aug-cc-pvqz              for  HF TOTAL ENERGY

    Enlightened listing of computations required.
            mp2 / aug-cc-pvtz              for  MP2 TOTAL ENERGY
            mp2 / aug-cc-pvqz              for  MP2 TOTAL ENERGY

    Full listing of computations to be obtained (required and bonus).
             hf / aug-cc-pvtz              for  HF TOTAL ENERGY
            mp2 / aug-cc-pvtz              for  MP2 TOTAL ENERGY
             hf / aug-cc-pvqz              for  HF TOTAL ENERGY
            mp2 / aug-cc-pvqz              for  MP2 TOTAL ENERGY

  //>>>>>>>>>>>>>>>>>>>>>>>>>>>>>>>>>>>>//
  // CBS Computation: MP2 / AUG-CC-PVTZ //
  //<<<<<<<<<<<<<<<<<<<<<<<<<<<<<<<<<<<<//


Scratch directory: /scratch//

*** tstart() called on node144.bme.utexas.edu
*** at Sat Apr 11 16:13:49 2020

   => Loading Basis Set <=

    Name: AUG-CC-PVTZ
    Role: ORBITAL
    Keyword: BASIS
    atoms 1, 4          entry C          line   239 file /home/liuchw/anaconda3/envs/psi4env/share/psi4/basis/aug-cc-pvtz.gbs 
    atoms 2-3, 5-6, 8-9 entry H          line    40 file /home/liuchw/anaconda3/envs/psi4env/share/psi4/basis/aug-cc-pvtz.gbs 
    atoms 7             entry O          line   331 file /home/liuchw/anaconda3/envs/psi4env/share/psi4/basis/aug-cc-pvtz.gbs 


         ---------------------------------------------------------
                                   SCF
               by Justin Turney, Rob Parrish, Andy Simmonett
                          and Daniel G. A. Smith
                              RHF Reference
                        6 Threads,  38146 MiB Core
         ---------------------------------------------------------

  ==> Geometry <==

    Molecular point group: c1
    Full point group: C1

    Geometry (in Angstrom), charge = 0, multiplicity = 1:

       Center              X                  Y                   Z               Mass       
    ------------   -----------------  -----------------  -----------------  -----------------
         C            1.425749888522    -0.666906972027    -0.002281414590    12.000000000000
         H            1.720808888522    -1.228546972027     0.872498585410     1.007825032230
         H            1.135447888522    -1.228627972027    -0.878612414590     1.007825032230
         C            1.425668888522     0.666927027973    -0.002290414590    12.000000000000
         H            1.135293888522     1.228599027973    -0.878629414590     1.007825032230
[...]
      47A      0.313798    48A      0.316610    49A      0.321244  
      50A      0.324695    51A      0.334538    52A      0.344815  
      53A      0.345030    54A      0.350383    55A      0.358865  
      56A      0.366964    57A      0.379857    58A      0.382322  
      59A      0.382687    60A      0.389298    61A      0.409219  
      62A      0.439301    63A      0.442047    64A      0.452634  
      65A      0.477449    66A      0.502827    67A      0.510066  
      68A      0.531245    69A      0.534257    70A      0.546032  
      71A      0.547392    72A      0.561289    73A      0.578794  
      74A      0.579178    75A      0.590310    76A      0.616192  
      77A      0.623960    78A      0.630522    79A      0.633138  
      80A      0.645293    81A      0.647471    82A      0.670880  
      83A      0.688541    84A      0.690767    85A      0.703000  
      86A      0.703354    87A      0.705432    88A      0.707827  
      89A      0.713627    90A      0.725944    91A      0.732268  
      92A      0.743820    93A      0.759244    94A      0.772226  
      95A      0.781473    96A      0.784343    97A      0.794937  
      98A      0.805032    99A      0.811273   100A      0.813805  
     101A      0.833151   102A      0.846265   103A      0.849167  
     104A      0.853593   105A      0.854298   106A      0.861971  
     107A      0.864318   108A      0.888353   109A      0.903994  
     110A      0.918945   111A      0.927504   112A      0.940285  
     113A      0.940974   114A      0.959726   115A      0.971373  
     116A      0.988893   117A      0.991740   118A      1.018683  
     119A      1.021861   120A      1.067512   121A      1.088202  
     122A      1.088630   123A      1.097637   124A      1.115813  
     125A      1.122915   126A      1.131616   127A      1.174232  
     128A      1.174496   129A      1.199154   130A      1.209107  
     131A      1.214267   132A      1.217830   133A      1.222583  
     134A      1.232478   135A      1.235134   136A      1.270863  
     137A      1.273274   138A      1.310824   139A      1.323231  
     140A      1.338732   141A      1.353545   142A      1.361349  
     143A      1.378418   144A      1.384944   145A      1.420119  
     146A      1.436923   147A      1.445988   148A      1.460341  
     149A      1.475929   150A      1.496919   151A      1.519304  
     152A      1.539151   153A      1.550152   154A      1.550350  
     155A      1.565348   156A      1.583565   157A      1.624557  
     158A      1.628868   159A      1.643848   160A      1.647057  
     161A      1.670987   162A      1.693390   163A      1.693538  
     164A      1.703579   165A      1.707183   166A      1.714252  
     167A      1.722942   168A      1.731569   169A      1.748804  
     170A      1.757046   171A      1.775350   172A      1.784244  
     173A      1.795256   174A      1.804040   175A      1.833804  
     176A      1.839445   177A      1.843855   178A      1.851776  
     179A      1.879230   180A      1.881750   181A      1.886566  
     182A      1.896999   183A      1.924477   184A      1.934295  
     185A      1.945753   186A      1.973099   187A      1.974051  
     188A      1.979614   189A      1.995017   190A      2.005991  
     191A      2.029662   192A      2.032898   193A      2.043781  
     194A      2.049110   195A      2.056965   196A      2.068893  
     197A      2.076383   198A      2.104828   199A      2.108042  
     200A      2.120885   201A      2.132786   202A      2.136234  
     203A      2.138739   204A      2.168489   205A      2.169642  
     206A      2.192856   207A      2.194990   208A      2.222788  
     209A      2.229478   210A      2.249632   211A      2.265581  
     212A      2.275177   213A      2.296865   214A      2.322354  
     215A      2.337471   216A      2.359784   217A      2.360150  
     218A      2.369956   219A      2.380849   220A      2.381040  
     221A      2.392300   222A      2.428783   223A      2.439581  
     224A      2.454381   225A      2.467955   226A      2.476993  
     227A      2.503832   228A      2.505833   229A      2.535523  
     230A      2.547559   231A      2.560969   232A      2.570576  
     233A      2.605970   234A      2.622426   235A      2.624153  
     236A      2.629654   237A      2.692481   238A      2.698915  
     239A      2.721912   240A      2.736423   241A      2.749998  
     242A      2.785898   243A      2.791415   244A      2.836281  
     245A      2.877949   246A      2.886155   247A      2.892707  
     248A      2.901958   249A      2.932302   250A      2.962000  
     251A      2.977765   252A      2.982573   253A      2.989753  
     254A      3.035834   255A      3.042157   256A      3.048911  
     257A      3.071045   258A      3.089539   259A      3.089630  
     260A      3.104321   261A      3.135778   262A      3.165907  
     263A      3.200003   264A      3.229598   265A      3.231232  
     266A      3.286483   267A      3.324381   268A      3.347726  
     269A      3.348972   270A      3.403091   271A      3.461127  
     272A      3.492459   273A      3.569508   274A      3.587131  
     275A      3.634711   276A      3.635615   277A      3.656445  
     278A      3.673869   279A      3.684964   280A      3.698394  
     281A      3.715747   282A      3.732126   283A      3.737401  
     284A      3.772356   285A      3.778012   286A      3.810677  
     287A      3.812707   288A      3.872339   289A      3.878794  
     290A      3.885840   291A      3.894037   292A      3.948468  
     293A      3.954374   294A      3.962729   295A      4.001935  
     296A      4.046634   297A      4.051010   298A      4.094107  
     299A      4.136177   300A      4.180359   301A      4.186477  
     302A      4.207895   303A      4.213279   304A      4.252326  
     305A      4.252522   306A      4.272442   307A      4.284606  
     308A      4.294952   309A      4.378191   310A      4.392510  
     311A      4.408641   312A      4.412605   313A      4.463842  
     314A      4.471846   315A      4.517245   316A      4.532428  
     317A      4.555437   318A      4.586774   319A      4.605037  
     320A      4.625573   321A      4.683745   322A      4.707630  
     323A      4.799119   324A      4.801229   325A      4.835754  
     326A      4.855348   327A      4.863650   328A      4.868986  
     329A      4.890789   330A      4.976990   331A      5.072162  
     332A      5.084466   333A      5.109904   334A      5.118704  
     335A      5.204570   336A      5.232996   337A      5.335477  
     338A      5.412386   339A      5.472405   340A      5.595611  
     341A      5.667645   342A      5.858623   343A      5.876890  
     344A      5.925665   345A      5.959488   346A      5.971595  
     347A      6.007195   348A      6.034279   349A      6.058808  
     350A      6.134569   351A      6.158668   352A      6.201388  
     353A      6.268025   354A      6.297961   355A      6.328763  
     356A      6.347128   357A      6.458527   358A      6.484033  
     359A      6.496856   360A      6.520766   361A      6.526050  
     362A      6.577731   363A      6.596588   364A      6.625560  
     365A      6.653446   366A      6.666619   367A      6.703928  
     368A      6.722450   369A      6.729821   370A      6.753323  
     371A      6.832455   372A      6.883116   373A      6.898114  
     374A      6.920577   375A      6.939040   376A      6.940194  
     377A      6.975969   378A      6.979664   379A      7.018751  
     380A      7.022410   381A      7.034365   382A      7.079736  
     383A      7.112084   384A      7.142102   385A      7.189979  
     386A      7.284878   387A      7.288399   388A      7.305973  
     389A      7.343236   390A      7.344101   391A      7.426678  
     392A      7.464397   393A      7.488619   394A      7.649970  
     395A      7.670866   396A      7.741314   397A      7.746562  
     398A      7.761604   399A      7.796462   400A      7.809269  
     401A      7.827258   402A      7.861587   403A      7.891725  
     404A      7.934632   405A      7.941312   406A      7.945963  
     407A      7.994771   408A      8.010934   409A      8.019481  
     410A      8.052349   411A      8.080195   412A      8.170445  
     413A      8.224439   414A      8.281348   415A      8.287821  
     416A      8.310073   417A      8.341528   418A      8.422937  
     419A      8.453014   420A      8.569909   421A      8.577681  
     422A      8.610399   423A      8.682095   424A      8.699715  
     425A      8.733752   426A      8.747402   427A      8.749341  
     428A      8.766603   429A      8.781012   430A      8.829777  
     431A      8.866940   432A      8.875342   433A      8.895117  
     434A      8.920515   435A      8.937971   436A      9.003989  
     437A      9.049025   438A      9.082575   439A      9.101132  
     440A      9.132634   441A      9.148834   442A      9.169522  
     443A      9.227832   444A      9.293274   445A      9.401821  
     446A      9.447375   447A      9.497937   448A      9.534767  
     449A      9.550138   450A      9.649592   451A      9.668267  
     452A      9.734539   453A      9.757714   454A      9.762167  
     455A      9.803036   456A      9.818805   457A      9.946636  
     458A      9.946903   459A      9.975973   460A      9.981619  
     461A     10.011836   462A     10.015148   463A     10.078399  
     464A     10.157778   465A     10.249025   466A     10.255215  
     467A     10.278922   468A     10.303725   469A     10.382040  
     470A     10.500974   471A     10.519684   472A     10.519981  
     473A     10.546016   474A     10.634874   475A     10.683952  
     476A     10.697336   477A     10.826024   478A     10.875958  
     479A     11.079017   480A     11.084533   481A     11.130835  
     482A     11.141320   483A     11.212708   484A     11.355025  
     485A     11.383731   486A     11.448223   487A     11.462636  
     488A     11.465516   489A     11.734979   490A     11.805229  
     491A     11.843174   492A     11.932749   493A     12.043814  
     494A     12.267253   495A     12.271669   496A     12.315905  
     497A     12.697058   498A     12.778473   499A     12.878022  
     500A     12.921089   501A     12.959817   502A     13.018564  
     503A     13.214630   504A     13.281163   505A     13.647626  
     506A     14.020439   507A     14.157303   508A     14.541608  
     509A     14.837827   510A     14.941765   511A     15.290612  
     512A     16.930723   513A     17.343070   514A     26.813747  
     515A     27.160514   516A     45.640710  

    Final Occupation by Irrep:
              A 
    DOCC [    13 ]

  @DF-RHF Final Energy:  -154.13719528430815

   => Energetics <=

    Nuclear Repulsion Energy =             65.3687852475886899
    One-Electron Energy =                -338.6719989770389247
    Two-Electron Energy =                 119.1660184451421003
    Total Energy =                       -154.1371952843081488

Computation Completed


Properties will be evaluated at   0.000000,   0.000000,   0.000000 [a0]

Properties computed using the SCF density matrix

  Nuclear Dipole Moment: [e a0]
     X:     1.6174      Y:     0.0001      Z:     0.8829

  Electronic Dipole Moment: [e a0]
     X:    -1.1456      Y:    -0.0000      Z:    -0.2125

  Dipole Moment: [e a0]
     X:     0.4718      Y:     0.0000      Z:     0.6704     Total:     0.8198

  Dipole Moment: [D]
     X:     1.1992      Y:     0.0001      Z:     1.7040     Total:     2.0837


*** tstop() called on node144.bme.utexas.edu at Sat Apr 11 16:15:24 2020
Module time:
	user time   =     103.65 seconds =       1.73 minutes
	system time =       3.36 seconds =       0.06 minutes
	total time  =         22 seconds =       0.37 minutes
Total time:
	user time   =     705.10 seconds =      11.75 minutes
	system time =      29.14 seconds =       0.49 minutes
	total time  =        160 seconds =       2.67 minutes

*** tstart() called on node144.bme.utexas.edu
*** at Sat Apr 11 16:15:24 2020


  //>>>>>>>>>>>>>>>>>>>>>>>>>>>>>>>>>>>//
  //               DFMP2               //
  //<<<<<<<<<<<<<<<<<<<<<<<<<<<<<<<<<<<//

   => Loading Basis Set <=

    Name: (AUG-CC-PVQZ AUX)
    Role: RIFIT
    Keyword: DF_BASIS_MP2
    atoms 1, 4          entry C          line   184 file /home/liuchw/anaconda3/envs/psi4env/share/psi4/basis/aug-cc-pvqz-ri.gbs 
    atoms 2-3, 5-6, 8-9 entry H          line    30 file /home/liuchw/anaconda3/envs/psi4env/share/psi4/basis/aug-cc-pvqz-ri.gbs 
    atoms 7             entry O          line   332 file /home/liuchw/anaconda3/envs/psi4env/share/psi4/basis/aug-cc-pvqz-ri.gbs 

	 --------------------------------------------------------
	                          DF-MP2                         
	      2nd-Order Density-Fitted Moller-Plesset Theory     
	              RMP2 Wavefunction,   6 Threads             
	                                                         
	        Rob Parrish, Justin Turney, Andy Simmonett,      
	           Ed Hohenstein, and C. David Sherrill          
	 --------------------------------------------------------

   => Auxiliary Basis Set <=

  Basis Set: (AUG-CC-PVQZ AUX)
    Blend: AUG-CC-PVQZ-RI
    Number of shells: 228
    Number of basis function: 984
    Number of Cartesian functions: 1341
    Spherical Harmonics?: true
    Max angular momentum: 5

	 --------------------------------------------------------
	                 NBF =   516, NAUX =   984
	 --------------------------------------------------------
	   CLASS    FOCC     OCC    AOCC    AVIR     VIR    FVIR
	   PAIRS       0      13      13     503     503       0
	 --------------------------------------------------------

	-----------------------------------------------------------
	 ==================> DF-MP2 Energies <==================== 
	-----------------------------------------------------------
	 Reference Energy          =    -154.1371952843081488 [Eh]
	 Singles Energy            =      -0.0000000000000000 [Eh]
	 Same-Spin Energy          =      -0.1550646252619982 [Eh]
	 Opposite-Spin Energy      =      -0.5791678572258858 [Eh]
	 Correlation Energy        =      -0.7342324824878840 [Eh]
	 Total Energy              =    -154.8714277667960459 [Eh]
	-----------------------------------------------------------
	 ================> DF-SCS-MP2 Energies <================== 
	-----------------------------------------------------------
	 SCS Same-Spin Scale       =       0.3333333333333333 [-]
	 SCS Opposite-Spin Scale   =       1.2000000000000000 [-]
	 SCS Same-Spin Energy      =      -0.0516882084206660 [Eh]
	 SCS Opposite-Spin Energy  =      -0.6950014286710630 [Eh]
	 SCS Correlation Energy    =      -0.7466896370917290 [Eh]
	 SCS Total Energy          =    -154.8838849213998685 [Eh]
	-----------------------------------------------------------


*** tstop() called on node144.bme.utexas.edu at Sat Apr 11 16:15:35 2020
Module time:
	user time   =      46.07 seconds =       0.77 minutes
	system time =       1.70 seconds =       0.03 minutes
	total time  =         11 seconds =       0.18 minutes
Total time:
	user time   =     751.18 seconds =      12.52 minutes
	system time =      30.85 seconds =       0.51 minutes
	total time  =        171 seconds =       2.85 minutes

  //>>>>>>>>>>>>>>>>>>>>>>>>>>>>>>>>>>>//
  //  CBS Results: mp2/aug-cc-pv[tq]z  //
  //<<<<<<<<<<<<<<<<<<<<<<<<<<<<<<<<<<<//


   ==> HF <==

   HI-zeta (4) Energy:               -154.137195284308


   ==> Helgaker 2-point correlated extrapolation for method: MP2 <==

   LO-zeta (3) Energy:               -154.788507219393
   HI-zeta (4) Energy:               -154.871427766796
   Alpha (exponent) Value:             3.000000000000
   Extrapolated Energy:              -154.931937355441

   @Extrapolated MP2/(T,Q):          -154.931937355441



   ==> Helgaker 2-point correlated extrapolation for method: HF <==

   LO-zeta (3) Energy:               -154.127169647725
   HI-zeta (4) Energy:               -154.137195284308
   Alpha (exponent) Value:             3.000000000000
   Extrapolated Energy:              -154.144511289383

   @Extrapolated HF/(T,Q):           -154.144511289383


   ==> Components <==

  ---------------------------------------------------------------------------------------------------------
                          Method / Basis                      Rqd      Energy [Eh]   Variable
  ---------------------------------------------------------------------------------------------------------
                              hf / aug-cc-pvtz                  *    -154.12716965   HF TOTAL ENERGY
                             mp2 / aug-cc-pvtz                  *    -154.78850722   MP2 TOTAL ENERGY
                              hf / aug-cc-pvqz                  *    -154.13719528   HF TOTAL ENERGY
                             mp2 / aug-cc-pvqz                  *    -154.87142777   MP2 TOTAL ENERGY
  ---------------------------------------------------------------------------------------------------------

   ==> Stages <==

  ---------------------------------------------------------------------------------------------------------
      Stage               Method / Basis                       Wt      Energy [Eh]   Scheme
  ---------------------------------------------------------------------------------------------------------
        scf                   hf / aug-cc-pvqz                  1    -154.13719528   xtpl_highest_1
       corl                  mp2 / aug-cc-pv[tq]z               1    -154.93193736   corl_xtpl_helgaker_2
       corl                   hf / aug-cc-pv[tq]z              -1    -154.14451129   corl_xtpl_helgaker_2
  ---------------------------------------------------------------------------------------------------------

   ==> CBS <==

  ---------------------------------------------------------------------------------------------------------
      Stage               Method / Basis                               Energy [Eh]   Scheme
  ---------------------------------------------------------------------------------------------------------
        scf                   hf / aug-cc-pvqz                       -154.13719528   xtpl_highest_1
       corl                  mp2 / aug-cc-pv[tq]z                      -0.78742607   corl_xtpl_helgaker_2
      total                  CBS                                     -154.92462135   
  ---------------------------------------------------------------------------------------------------------
   => Loading Basis Set <=

    Name: DEF2-SVP
    Role: ORBITAL
    Keyword: BASIS
    atoms 1, 4          entry C          line    90 file /home/liuchw/anaconda3/envs/psi4env/share/psi4/basis/def2-svp.gbs 
    atoms 2-3, 5-6, 8-9 entry H          line    15 file /home/liuchw/anaconda3/envs/psi4env/share/psi4/basis/def2-svp.gbs 
    atoms 7             entry O          line   130 file /home/liuchw/anaconda3/envs/psi4env/share/psi4/basis/def2-svp.gbs 


       N-Body: Complex Energy (fragments = (1, 2), basis = (1, 2):  -154.92462135036689)

   ==> N-Body: Counterpoise Corrected (CP) energies <==

   n-Body     Total Energy [Eh]       I.E. [kcal/mol]      Delta [kcal/mol]
        1     -154.920971662148        0.000000000000        0.000000000000
        2     -154.924712461839       -2.347387245340       -2.347387245340

   => Loading Basis Set <=

    Name: DEF2-SVP
    Role: ORBITAL
    Keyword: BASIS
    atoms 1, 4          entry C          line    90 file /home/liuchw/anaconda3/envs/psi4env/share/psi4/basis/def2-svp.gbs 
    atoms 2-3, 5-6, 8-9 entry H          line    15 file /home/liuchw/anaconda3/envs/psi4env/share/psi4/basis/def2-svp.gbs 
    atoms 7             entry O          line   130 file /home/liuchw/anaconda3/envs/psi4env/share/psi4/basis/def2-svp.gbs 


    Psi4 stopped on: Saturday, 11 April 2020 04:15PM
    Psi4 wall time for execution: 0:02:51.95

*** Psi4 exiting successfully. Buy a developer a beer!
