
    -----------------------------------------------------------------------
          Psi4: An Open-Source Ab Initio Electronic Structure Package
                               Psi4 1.4a2.dev224 

                         Git: Rev {master} e453b16 


    R. M. Parrish, L. A. Burns, D. G. A. Smith, A. C. Simmonett,
    A. E. DePrince III, E. G. Hohenstein, U. Bozkaya, A. Yu. Sokolov,
    R. Di Remigio, R. M. Richard, J. F. Gonthier, A. M. James,
    H. R. McAlexander, A. Kumar, M. Saitow, X. Wang, B. P. Pritchard,
    P. Verma, H. F. Schaefer III, K. Patkowski, R. A. King, E. F. Valeev,
    F. A. Evangelista, J. M. Turney, T. D. Crawford, and C. D. Sherrill,
    J. Chem. Theory Comput. 13(7) pp 3185--3197 (2017).
    (doi: 10.1021/acs.jctc.7b00174)


                         Additional Contributions by
    P. Kraus, H. Kruse, M. H. Lechner, M. C. Schieber, R. A. Shaw,
    A. Alenaizan, R. Galvelis, Z. L. Glick, S. Lehtola, and J. P. Misiewicz

    -----------------------------------------------------------------------


    Psi4 started on: Saturday, 11 April 2020 04:36PM

    Process ID: 77847
    Host:       node52.bme.utexas.edu
    PSIDATADIR: /home/liuchw/anaconda3/envs/psi4env/share/psi4
    Memory:     500.0 MiB
    Threads:    6
    
  ==> Input File <==

--------------------------------------------------------------------------
#Generated by lconvert.py for cbs job

memory 40 GB

molecule  {
0 1
  C        1.4332690     0.6735240     0.0000730
  H        2.3145860     1.2986820    -0.0008990
  H        0.4727190     1.1682030     0.0010680
  C        1.5272490    -0.6552880     0.0000450
  H        0.6458790    -1.2802970     0.0010180
  H        2.4874960    -1.1507030    -0.0009510
--
0 1
  C       -1.7474469     0.0300799     0.1688266
  H       -2.0380179     1.0761309     0.1686936
  H       -1.1574439    -0.1813261    -0.7177104
  H       -1.1583899    -0.1813611     1.0559866
  H       -2.6376119    -0.5910741     0.1683476
units angstrom
no_reorient
symmetry c1
}

set {
scf_type DF
mp2_type DF
e_convergence 7
reference rhf
}

energy('mp2/aug-cc-pv[tq]z', bsse_type='cp')
--------------------------------------------------------------------------

  Memory set to  37.253 GiB by Python driver.

Scratch directory: /scratch//


   ===> N-Body Interaction Abacus <===
        BSSE Treatment:                     cp
        Number of 1-body computations:     4
        Number of 2-body computations:     1

   ==> N-Body: Now computing 1-body complexes <==


       N-Body: Computing complex (1/4) with fragments (2,) in the basis of fragments (2,).


Scratch directory: /scratch//

  //>>>>>>>>>>>>>>>>>>>>>>>>>>>>>>>>>>>//
  //   CBS Setup: mp2/aug-cc-pv[tq]z   //
  //<<<<<<<<<<<<<<<<<<<<<<<<<<<<<<<<<<<//

    Naive listing of computations required.
             hf / aug-cc-pvqz              for  HF TOTAL ENERGY
            mp2 / aug-cc-pvtz              for  MP2 TOTAL ENERGY
            mp2 / aug-cc-pvqz              for  MP2 TOTAL ENERGY
             hf / aug-cc-pvtz              for  HF TOTAL ENERGY
             hf / aug-cc-pvqz              for  HF TOTAL ENERGY

    Enlightened listing of computations required.
            mp2 / aug-cc-pvtz              for  MP2 TOTAL ENERGY
            mp2 / aug-cc-pvqz              for  MP2 TOTAL ENERGY

    Full listing of computations to be obtained (required and bonus).
             hf / aug-cc-pvtz              for  HF TOTAL ENERGY
            mp2 / aug-cc-pvtz              for  MP2 TOTAL ENERGY
             hf / aug-cc-pvqz              for  HF TOTAL ENERGY
            mp2 / aug-cc-pvqz              for  MP2 TOTAL ENERGY

  //>>>>>>>>>>>>>>>>>>>>>>>>>>>>>>>>>>>>//
  // CBS Computation: MP2 / AUG-CC-PVTZ //
  //<<<<<<<<<<<<<<<<<<<<<<<<<<<<<<<<<<<<//


Scratch directory: /scratch//

*** tstart() called on node52.bme.utexas.edu
*** at Sat Apr 11 16:36:10 2020

   => Loading Basis Set <=

    Name: AUG-CC-PVTZ
    Role: ORBITAL
    Keyword: BASIS
    atoms 1   entry C          line   239 file /home/liuchw/anaconda3/envs/psi4env/share/psi4/basis/aug-cc-pvtz.gbs 
    atoms 2-5 entry H          line    40 file /home/liuchw/anaconda3/envs/psi4env/share/psi4/basis/aug-cc-pvtz.gbs 


         ---------------------------------------------------------
                                   SCF
               by Justin Turney, Rob Parrish, Andy Simmonett
                          and Daniel G. A. Smith
                              RHF Reference
                        6 Threads,  38146 MiB Core
         ---------------------------------------------------------

  ==> Geometry <==

    Molecular point group: c1
    Full point group: C1

    Geometry (in Angstrom), charge = 0, multiplicity = 1:

       Center              X                  Y                   Z               Mass       
    ------------   -----------------  -----------------  -----------------  -----------------
         C           -2.053322872025     0.013301867314     0.107364616112    12.000000000000
         H           -2.343893872025     1.059352867314     0.107231616112     1.007825032230
         H           -1.463319872025    -0.198104132686    -0.779172383888     1.007825032230
         H           -1.464265872025    -0.198139132686     0.994524616112     1.007825032230
         H           -2.943487872025    -0.607852132686     0.106885616112     1.007825032230

  Running in c1 symmetry.

  Rotational constants: A =      5.32284  B =      0.23760  C =      0.23758 [cm^-1]
  Rotational constants: A = 159574.67215  B =   7122.95964  C =   7122.60079 [MHz]
  Nuclear repulsion =   13.489467837064952

  Charge       = 0
  Multiplicity = 1
  Electrons    = 10
  Nalpha       = 5
  Nbeta        = 5

  ==> Algorithm <==

  SCF Algorithm Type is DF.
  DIIS enabled.
  MOM disabled.
  Fractional occupation disabled.
  Guess Type is SAD.
  Energy threshold   = 1.00e-07
  Density threshold  = 1.00e-08
  Integral threshold = 0.00e+00

  ==> Primary Basis <==

  Basis Set: AUG-CC-PVTZ
    Blend: AUG-CC-PVTZ
    Number of shells: 50
    Number of basis function: 138
    Number of Cartesian functions: 155
    Spherical Harmonics?: true
    Max angular momentum: 3

   => Loading Basis Set <=

    Name: (AUG-CC-PVTZ AUX)
    Role: JKFIT
    Keyword: DF_BASIS_SCF
    atoms 1   entry C          line   162 file /home/liuchw/anaconda3/envs/psi4env/share/psi4/basis/aug-cc-pvtz-jkfit.gbs 
    atoms 2-5 entry H          line    70 file /home/liuchw/anaconda3/envs/psi4env/share/psi4/basis/aug-cc-pvtz-jkfit.gbs 

  ==> Pre-Iterations <==

   -------------------------------------------------------
    Irrep   Nso     Nmo     Nalpha   Nbeta   Ndocc  Nsocc
   -------------------------------------------------------
     A        138     138       0       0       0       0
   -------------------------------------------------------
    Total     138     138       5       5       5       0
   -------------------------------------------------------

  ==> Integral Setup <==

  DFHelper Memory: AOs need 0.046 GiB; user supplied 27.940 GiB. Using in-core AOs.

  ==> MemDFJK: Density-Fitted J/K Matrices <==

    J tasked:                   Yes
    K tasked:                   Yes
    wK tasked:                   No
    OpenMP threads:               6
    Memory [MiB]:             28610
    Algorithm:                 Core
    Schwarz Cutoff:           1E-12
    Mask sparsity (%):       0.0000
    Fitting Condition:        1E-10

   => Auxiliary Basis Set <=

  Basis Set: (AUG-CC-PVTZ AUX)
    Blend: AUG-CC-PVTZ-JKFIT
    Number of shells: 86
    Number of basis function: 288
    Number of Cartesian functions: 351
    Spherical Harmonics?: true
    Max angular momentum: 4

  Minimum eigenvalue in the overlap matrix is 8.1868658058E-05.
  Using Symmetric Orthogonalization.

  SCF Guess: Superposition of Atomic Densities via on-the-fly atomic UHF.

  ==> Iterations <==

                           Total Energy        Delta E     RMS |[F,P]|

   @DF-RHF iter SAD:   -39.63359891694574   -3.96336e+01   0.00000e+00 
   @DF-RHF iter   1:   -40.13699468396898   -5.03396e-01   2.67688e-03 DIIS
   @DF-RHF iter   2:   -40.20137270321838   -6.43780e-02   1.11509e-03 DIIS
   @DF-RHF iter   3:   -40.21291226591134   -1.15396e-02   1.71633e-04 DIIS
   @DF-RHF iter   4:   -40.21365924990832   -7.46984e-04   2.09901e-05 DIIS
   @DF-RHF iter   5:   -40.21366972772166   -1.04778e-05   1.88522e-06 DIIS
   @DF-RHF iter   6:   -40.21366982122341   -9.35017e-08   1.65074e-07 DIIS
   @DF-RHF iter   7:   -40.21366982180732   -5.83917e-10   1.48051e-08 DIIS
   @DF-RHF iter   8:   -40.21366982181110   -3.78009e-12   8.76558e-10 DIIS
  Energy and wave function converged.


  ==> Post-Iterations <==

    Orbital Energies [Eh]
    ---------------------

    Doubly Occupied:                                                      

       1A    -11.205120     2A     -0.944163     3A     -0.545738  
       4A     -0.545705     5A     -0.545433  

    Virtual:                                                              

       6A      0.030849     7A      0.050500     8A      0.050504  
       9A      0.050523    10A      0.123968    11A      0.124009  
      12A      0.124021    13A      0.141960    14A      0.223076  
      15A      0.223099    16A      0.228422    17A      0.228435  
      18A      0.228443    19A      0.329897    20A      0.329956  
      21A      0.329970    22A      0.337484    23A      0.354076  
      24A      0.354109    25A      0.354137    26A      0.392024  
      27A      0.392096    28A      0.392166    29A      0.401569  
      30A      0.463278    31A      0.463289    32A      0.463311  
      33A      0.500748    34A      0.500751    35A      0.678477  
      36A      0.678492    37A      0.678566    38A      0.796828  
      39A      0.832084    40A      0.832121    41A      0.832231  
      42A      0.893459    43A      0.893578    44A      0.893677  
      45A      0.968530    46A      0.968535    47A      0.969162  
      48A      0.969196    49A      0.969301    50A      0.981110  
      51A      1.070491    52A      1.070679    53A      1.070818  
      54A      1.087118    55A      1.087258    56A      1.087275  
      57A      1.119856    58A      1.119868    59A      1.215262  
      60A      1.215335    61A      1.215502    62A      1.266351  
      63A      1.266443    64A      1.314671    65A      1.590382  
      66A      1.590496    67A      1.590516    68A      1.620937  
      69A      1.620987    70A      1.621055    71A      1.627603  
      72A      1.732072    73A      1.732159    74A      1.732222  
      75A      1.867252    76A      1.867489    77A      1.867514  
      78A      1.929107    79A      1.929220    80A      1.929584  
      81A      2.118142    82A      2.118355    83A      2.118498  
      84A      2.243312    85A      2.243358    86A      2.589603  
      87A      2.907003    88A      3.250565    89A      3.250586  
      90A      3.250654    91A      3.488423    92A      3.488542  
      93A      3.574969    94A      3.575297    95A      3.575501  
      96A      3.581033    97A      3.581070    98A      3.581136  
      99A      3.913343   100A      3.913355   101A      3.913516  
     102A      4.056156   103A      4.056392   104A      4.056784  
     105A      4.072471   106A      4.073126   107A      4.073734  
     108A      4.119136   109A      4.119150   110A      4.268549  
     111A      4.580203   112A      4.581176   113A      4.581949  
     114A      4.763281   115A      4.763371   116A      4.805409  
     117A      4.805743   118A      4.806016   119A      4.862400  
     120A      4.862400   121A      4.862709   122A      5.198499  
     123A      5.198887   124A      5.199277   125A      5.314417  
     126A      5.643821   127A      5.645334   128A      5.647953  
     129A      5.830932   130A      5.831144   131A      5.831621  
     132A      6.240033   133A      6.241065   134A      6.241777  
     135A      6.608667   136A      6.608987   137A      6.609924  
     138A     17.749585  

    Final Occupation by Irrep:
              A 
    DOCC [     5 ]

  @DF-RHF Final Energy:   -40.21366982181110

   => Energetics <=

    Nuclear Repulsion Energy =             13.4894678370649519
    One-Electron Energy =                 -79.8339559763338542
    Two-Electron Energy =                  26.1308183174578055
    Total Energy =                        -40.2136698218110951

Computation Completed


Properties will be evaluated at   0.000000,   0.000000,   0.000000 [a0]

Properties computed using the SCF density matrix

  Nuclear Dipole Moment: [e a0]
     X:   -38.8053      Y:     0.2552      Z:     2.0289

  Electronic Dipole Moment: [e a0]
     X:    38.8051      Y:    -0.2551      Z:    -2.0289

  Dipole Moment: [e a0]
     X:    -0.0003      Y:     0.0002      Z:     0.0000     Total:     0.0003

  Dipole Moment: [D]
     X:    -0.0007      Y:     0.0005      Z:     0.0000     Total:     0.0008


*** tstop() called on node52.bme.utexas.edu at Sat Apr 11 16:36:11 2020
Module time:
	user time   =       5.76 seconds =       0.10 minutes
	system time =       0.23 seconds =       0.00 minutes
	total time  =          1 seconds =       0.02 minutes
Total time:
	user time   =       5.76 seconds =       0.10 minutes
	system time =       0.23 seconds =       0.00 minutes
	total time  =          1 seconds =       0.02 minutes

*** tstart() called on node52.bme.utexas.edu
*** at Sat Apr 11 16:36:11 2020


  //>>>>>>>>>>>>>>>>>>>>>>>>>>>>>>>>>>>//
  //               DFMP2               //
  //<<<<<<<<<<<<<<<<<<<<<<<<<<<<<<<<<<<//

   => Loading Basis Set <=

    Name: (AUG-CC-PVTZ AUX)
    Role: RIFIT
    Keyword: DF_BASIS_MP2
    atoms 1   entry C          line   148 file /home/liuchw/anaconda3/envs/psi4env/share/psi4/basis/aug-cc-pvtz-ri.gbs 
    atoms 2-5 entry H          line    30 file /home/liuchw/anaconda3/envs/psi4env/share/psi4/basis/aug-cc-pvtz-ri.gbs 

	 --------------------------------------------------------
	                          DF-MP2                         
	      2nd-Order Density-Fitted Moller-Plesset Theory     
	              RMP2 Wavefunction,   6 Threads             
	                                                         
	        Rob Parrish, Justin Turney, Andy Simmonett,      
	           Ed Hohenstein, and C. David Sherrill          
	 --------------------------------------------------------

   => Auxiliary Basis Set <=

  Basis Set: (AUG-CC-PVTZ AUX)
    Blend: AUG-CC-PVTZ-RI
    Number of shells: 84
    Number of basis function: 290
    Number of Cartesian functions: 356
    Spherical Harmonics?: true
    Max angular momentum: 4

	 --------------------------------------------------------
	                 NBF =   138, NAUX =   290
	 --------------------------------------------------------
	   CLASS    FOCC     OCC    AOCC    AVIR     VIR    FVIR
	   PAIRS       0       5       5     133     133       0
	 --------------------------------------------------------

	-----------------------------------------------------------
	 ==================> DF-MP2 Energies <==================== 
	-----------------------------------------------------------
	 Reference Energy          =     -40.2136698218111022 [Eh]
	 Singles Energy            =      -0.0000000000000000 [Eh]
	 Same-Spin Energy          =      -0.0392190595434202 [Eh]
	 Opposite-Spin Energy      =      -0.1800608194493982 [Eh]
	 Correlation Energy        =      -0.2192798789928184 [Eh]
	 Total Energy              =     -40.4329497008039240 [Eh]
	-----------------------------------------------------------
	 ================> DF-SCS-MP2 Energies <================== 
	-----------------------------------------------------------
	 SCS Same-Spin Scale       =       0.3333333333333333 [-]
	 SCS Opposite-Spin Scale   =       1.2000000000000000 [-]
	 SCS Same-Spin Energy      =      -0.0130730198478067 [Eh]
	 SCS Opposite-Spin Energy  =      -0.2160729833392778 [Eh]
	 SCS Correlation Energy    =      -0.2291460031870846 [Eh]
	 SCS Total Energy          =     -40.4428158249981848 [Eh]
	-----------------------------------------------------------


*** tstop() called on node52.bme.utexas.edu at Sat Apr 11 16:36:12 2020
Module time:
	user time   =       2.74 seconds =       0.05 minutes
	system time =       0.11 seconds =       0.00 minutes
	total time  =          1 seconds =       0.02 minutes
Total time:
	user time   =       8.51 seconds =       0.14 minutes
	system time =       0.34 seconds =       0.01 minutes
	total time  =          2 seconds =       0.03 minutes

  //>>>>>>>>>>>>>>>>>>>>>>>>>>>>>>>>>>>>//
  // CBS Computation: MP2 / AUG-CC-PVQZ //
  //<<<<<<<<<<<<<<<<<<<<<<<<<<<<<<<<<<<<//


Scratch directory: /scratch//

*** tstart() called on node52.bme.utexas.edu
*** at Sat Apr 11 16:36:12 2020

   => Loading Basis Set <=

    Name: AUG-CC-PVQZ
    Role: ORBITAL
    Keyword: BASIS
    atoms 1   entry C          line   303 file /home/liuchw/anaconda3/envs/psi4env/share/psi4/basis/aug-cc-pvqz.gbs 
    atoms 2-5 entry H          line    40 file /home/liuchw/anaconda3/envs/psi4env/share/psi4/basis/aug-cc-pvqz.gbs 


         ---------------------------------------------------------
                                   SCF
               by Justin Turney, Rob Parrish, Andy Simmonett
                          and Daniel G. A. Smith
                              RHF Reference
                        6 Threads,  38146 MiB Core
         ---------------------------------------------------------

  ==> Geometry <==

    Molecular point group: c1
    Full point group: C1

    Geometry (in Angstrom), charge = 0, multiplicity = 1:

       Center              X                  Y                   Z               Mass       
    ------------   -----------------  -----------------  -----------------  -----------------
         C           -2.053322872025     0.013301867314     0.107364616112    12.000000000000
         H           -2.343893872025     1.059352867314     0.107231616112     1.007825032230
         H           -1.463319872025    -0.198104132686    -0.779172383888     1.007825032230
         H           -1.464265872025    -0.198139132686     0.994524616112     1.007825032230
         H           -2.943487872025    -0.607852132686     0.106885616112     1.007825032230

  Running in c1 symmetry.

  Rotational constants: A =      5.32284  B =      0.23760  C =      0.23758 [cm^-1]
  Rotational constants: A = 159574.67215  B =   7122.95964  C =   7122.60079 [MHz]
  Nuclear repulsion =   13.489467837064952

  Charge       = 0
  Multiplicity = 1
  Electrons    = 10
  Nalpha       = 5
  Nbeta        = 5

  ==> Algorithm <==

  SCF Algorithm Type is DF.
  DIIS enabled.
  MOM disabled.
  Fractional occupation disabled.
  Guess Type is SAD.
  Energy threshold   = 1.00e-07
  Density threshold  = 1.00e-08
  Integral threshold = 0.00e+00

  ==> Primary Basis <==

  Basis Set: AUG-CC-PVQZ
    Blend: AUG-CC-PVQZ
    Number of shells: 76
    Number of basis function: 264
    Number of Cartesian functions: 325
    Spherical Harmonics?: true
    Max angular momentum: 4

   => Loading Basis Set <=

    Name: (AUG-CC-PVQZ AUX)
    Role: JKFIT
    Keyword: DF_BASIS_SCF
    atoms 1   entry C          line   178 file /home/liuchw/anaconda3/envs/psi4env/share/psi4/basis/aug-cc-pvqz-jkfit.gbs 
    atoms 2-5 entry H          line    70 file /home/liuchw/anaconda3/envs/psi4env/share/psi4/basis/aug-cc-pvqz-jkfit.gbs 

  ==> Pre-Iterations <==

   -------------------------------------------------------
    Irrep   Nso     Nmo     Nalpha   Nbeta   Ndocc  Nsocc
   -------------------------------------------------------
     A        264     264       0       0       0       0
   -------------------------------------------------------
    Total     264     264       5       5       5       0
   -------------------------------------------------------

  ==> Integral Setup <==

  DFHelper Memory: AOs need 0.253 GiB; user supplied 27.940 GiB. Using in-core AOs.

  ==> MemDFJK: Density-Fitted J/K Matrices <==

    J tasked:                   Yes
    K tasked:                   Yes
    wK tasked:                   No
    OpenMP threads:               6
    Memory [MiB]:             28610
    Algorithm:                 Core
    Schwarz Cutoff:           1E-12
    Mask sparsity (%):       0.0000
    Fitting Condition:        1E-10

   => Auxiliary Basis Set <=

  Basis Set: (AUG-CC-PVQZ AUX)
    Blend: AUG-CC-PVQZ-JKFIT
    Number of shells: 106
    Number of basis function: 446
    Number of Cartesian functions: 602
    Spherical Harmonics?: true
    Max angular momentum: 5

  Minimum eigenvalue in the overlap matrix is 1.9100411556E-05.
  Using Symmetric Orthogonalization.

  SCF Guess: Superposition of Atomic Densities via on-the-fly atomic UHF.

  ==> Iterations <==

                           Total Energy        Delta E     RMS |[F,P]|

   @DF-RHF iter SAD:   -39.63602965088408   -3.96360e+01   0.00000e+00 
   @DF-RHF iter   1:   -40.13938410851681   -5.03354e-01   1.40124e-03 DIIS
   @DF-RHF iter   2:   -40.20393719090311   -6.45531e-02   5.84867e-04 DIIS
   @DF-RHF iter   3:   -40.21553542950191   -1.15982e-02   9.03004e-05 DIIS
   @DF-RHF iter   4:   -40.21629041776190   -7.54988e-04   1.11152e-05 DIIS
   @DF-RHF iter   5:   -40.21630126453189   -1.08468e-05   1.04629e-06 DIIS
   @DF-RHF iter   6:   -40.21630136645375   -1.01922e-07   8.84550e-08 DIIS
   @DF-RHF iter   7:   -40.21630136708891   -6.35161e-10   7.45728e-09 DIIS
  Energy and wave function converged.


  ==> Post-Iterations <==

    Orbital Energies [Eh]
    ---------------------

    Doubly Occupied:                                                      

       1A    -11.204181     2A     -0.944083     3A     -0.545927  
       4A     -0.545894     5A     -0.545622  

    Virtual:                                                              

       6A      0.027442     7A      0.045144     8A      0.045147  
       9A      0.045164    10A      0.106301    11A      0.106338  
      12A      0.106346    13A      0.123402    14A      0.185022  
      15A      0.185034    16A      0.185054    17A      0.207092  
      18A      0.207098    19A      0.268305    20A      0.271469  
      21A      0.271520    22A      0.271528    23A      0.280402  
      24A      0.280427    25A      0.280447    26A      0.292240  
      27A      0.292255    28A      0.292274    29A      0.332783  
      30A      0.392518    31A      0.392522    32A      0.392545  
      33A      0.392547    34A      0.392591    35A      0.547492  
      36A      0.547533    37A      0.547539    38A      0.553913  
      39A      0.553927    40A      0.608150    41A      0.682970  
      42A      0.683054    43A      0.683120    44A      0.714638  
      45A      0.714657    46A      0.714692    47A      0.730921  
      48A      0.730955    49A      0.730984    50A      0.748147  
      51A      0.770409    52A      0.770525    53A      0.770527  
      54A      0.799037    55A      0.799042    56A      0.799089  
      57A      0.883035    58A      0.883113    59A      0.883255  
      60A      0.884837    61A      0.911675    62A      0.911682  
      63A      0.986360    64A      0.986401    65A      1.067934  
      66A      1.067974    67A      1.068074    68A      1.111514  
      69A      1.147028    70A      1.147308    71A      1.147439  
      72A      1.231510    73A      1.231573    74A      1.231584  
      75A      1.368792    76A      1.368806    77A      1.368817  
      78A      1.497798    79A      1.498090    80A      1.498138  
      81A      1.519919    82A      1.558555    83A      1.558748  
      84A      1.558842    85A      1.650000    86A      1.650013  
      87A      1.825452    88A      1.825517    89A      1.825864  
      90A      1.847314    91A      1.847473    92A      1.847506  
      93A      1.886870    94A      1.901104    95A      1.901140  
      96A      1.910503    97A      1.910765    98A      1.911578  
      99A      1.954929   100A      1.999855   101A      2.000018  
     102A      2.000144   103A      2.010927   104A      2.011011  
     105A      2.071652   106A      2.072045   107A      2.072151  
     108A      2.098884   109A      2.099138   110A      2.099445  
     111A      2.156709   112A      2.173990   113A      2.241317  
     114A      2.241897   115A      2.242230   116A      2.292368  
     117A      2.292392   118A      2.292426   119A      2.410216  
     120A      2.410315   121A      2.410562   122A      2.652037  
     123A      2.652398   124A      2.652911   125A      2.693794  
     126A      2.693821   127A      2.795465   128A      2.795574  
     129A      2.795577   130A      2.800084   131A      2.800238  
     132A      2.800247   133A      2.803363   134A      2.979811  
     135A      2.979855   136A      3.010826   137A      3.010917  
     138A      3.010975   139A      3.151748   140A      3.152027  
     141A      3.152086   142A      3.195425   143A      3.366620  
     144A      3.366652   145A      3.686837   146A      3.686944  
     147A      3.687711   148A      3.687867   149A      3.688863  
     150A      3.689285   151A      3.865535   152A      3.884994  
     153A      3.885101   154A      3.885500   155A      4.006921  
     156A      4.007179   157A      4.007326   158A      4.117481  
     159A      4.117759   160A      4.118344   161A      4.174157  
     162A      4.261526   163A      4.261570   164A      4.301432  
     165A      4.301641   166A      4.301807   167A      4.308084  
     168A      4.308179   169A      4.726267   170A      4.726814  
     171A      4.726830   172A      4.926923   173A      4.927682  
     174A      4.928766   175A      5.154380   176A      6.103611  
     177A      6.103789   178A      6.140382   179A      6.141140  
     180A      6.141358   181A      6.228811   182A      6.228848  
     183A      6.228952   184A      6.491837   185A      6.727165  
     186A      6.805690   187A      6.805853   188A      6.805895  
     189A      6.872739   190A      6.872938   191A      6.873042  
     192A      6.902039   193A      6.904292   194A      6.906093  
     195A      6.993487   196A      6.994549   197A      6.994641  
     198A      7.206399   199A      7.206553   200A      7.206595  
     201A      7.371669   202A      7.522967   203A      7.586224  
     204A      7.586843   205A      7.587767   206A      7.771600  
     207A      7.771643   208A      7.860658   209A      7.862058  
     210A      7.864832   211A      7.880492   212A      7.881658  
     213A      7.882493   214A      8.084757   215A      8.084837  
     216A      8.490098   217A      8.490133   218A      8.490193  
     219A      8.528771   220A      8.559953   221A      8.560408  
     222A      8.643897   223A      8.644082   224A      8.644396  
     225A      9.106169   226A      9.106551   227A      9.107455  
     228A      9.195526   229A      9.195662   230A      9.195938  
     231A      9.284520   232A      9.284769   233A      9.284814  
     234A      9.434166   235A      9.434302   236A      9.435146  
     237A      9.593009   238A      9.593214   239A      9.721048  
     240A      9.968380   241A      9.968634   242A     10.053320  
     243A     10.053446   244A     10.053797   245A     10.256529  
     246A     10.256723   247A     10.257039   248A     10.303899  
     249A     10.303937   250A     10.600492   251A     10.601790  
     252A     10.602205   253A     10.939634   254A     10.970860  
     255A     10.971469   256A     10.972079   257A     11.515564  
     258A     11.515927   259A     11.517414   260A     13.198518  
     261A     13.199319   262A     13.200738   263A     13.824400  
     264A     29.697389  

    Final Occupation by Irrep:
              A 
    DOCC [     5 ]

  @DF-RHF Final Energy:   -40.21630136708891

   => Energetics <=

    Nuclear Repulsion Energy =             13.4894678370649519
    One-Electron Energy =                 -79.8401281143426331
    Two-Electron Energy =                  26.1343589101887694
    Total Energy =                        -40.2163013670889171

Computation Completed


Properties will be evaluated at   0.000000,   0.000000,   0.000000 [a0]

Properties computed using the SCF density matrix

  Nuclear Dipole Moment: [e a0]
     X:   -38.8053      Y:     0.2552      Z:     2.0289

  Electronic Dipole Moment: [e a0]
     X:    38.8051      Y:    -0.2551      Z:    -2.0289

  Dipole Moment: [e a0]
     X:    -0.0003      Y:     0.0002      Z:     0.0000     Total:     0.0003

  Dipole Moment: [D]
     X:    -0.0007      Y:     0.0005      Z:     0.0000     Total:     0.0008


*** tstop() called on node52.bme.utexas.edu at Sat Apr 11 16:36:14 2020
Module time:
	user time   =      11.08 seconds =       0.18 minutes
	system time =       0.34 seconds =       0.01 minutes
	total time  =          2 seconds =       0.03 minutes
Total time:
	user time   =      19.63 seconds =       0.33 minutes
	system time =       0.68 seconds =       0.01 minutes
	total time  =          4 seconds =       0.07 minutes

*** tstart() called on node52.bme.utexas.edu
*** at Sat Apr 11 16:36:14 2020


  //>>>>>>>>>>>>>>>>>>>>>>>>>>>>>>>>>>>//
  //               DFMP2               //
  //<<<<<<<<<<<<<<<<<<<<<<<<<<<<<<<<<<<//

   => Loading Basis Set <=

    Name: (AUG-CC-PVQZ AUX)
    Role: RIFIT
    Keyword: DF_BASIS_MP2
    atoms 1   entry C          line   184 file /home/liuchw/anaconda3/envs/psi4env/share/psi4/basis/aug-cc-pvqz-ri.gbs 
    atoms 2-5 entry H          line    30 file /home/liuchw/anaconda3/envs/psi4env/share/psi4/basis/aug-cc-pvqz-ri.gbs 

	 --------------------------------------------------------
	                          DF-MP2                         
	      2nd-Order Density-Fitted Moller-Plesset Theory     
	              RMP2 Wavefunction,   6 Threads             
	                                                         
	        Rob Parrish, Justin Turney, Andy Simmonett,      
	           Ed Hohenstein, and C. David Sherrill          
	 --------------------------------------------------------

   => Auxiliary Basis Set <=

  Basis Set: (AUG-CC-PVQZ AUX)
    Blend: AUG-CC-PVQZ-RI
    Number of shells: 116
    Number of basis function: 488
    Number of Cartesian functions: 657
    Spherical Harmonics?: true
    Max angular momentum: 5

	 --------------------------------------------------------
	                 NBF =   264, NAUX =   488
	 --------------------------------------------------------
	   CLASS    FOCC     OCC    AOCC    AVIR     VIR    FVIR
	   PAIRS       0       5       5     259     259       0
	 --------------------------------------------------------

	-----------------------------------------------------------
	 ==================> DF-MP2 Energies <==================== 
	-----------------------------------------------------------
	 Reference Energy          =     -40.2163013670889100 [Eh]
	 Singles Energy            =      -0.0000000000000000 [Eh]
	 Same-Spin Energy          =      -0.0416051363826513 [Eh]
	 Opposite-Spin Energy      =      -0.1986591541881048 [Eh]
	 Correlation Energy        =      -0.2402642905707561 [Eh]
	 Total Energy              =     -40.4565656576596666 [Eh]
	-----------------------------------------------------------
	 ================> DF-SCS-MP2 Energies <================== 
	-----------------------------------------------------------
	 SCS Same-Spin Scale       =       0.3333333333333333 [-]
	 SCS Opposite-Spin Scale   =       1.2000000000000000 [-]
	 SCS Same-Spin Energy      =      -0.0138683787942171 [Eh]
	 SCS Opposite-Spin Energy  =      -0.2383909850257257 [Eh]
	 SCS Correlation Energy    =      -0.2522593638199428 [Eh]
	 SCS Total Energy          =     -40.4685607309088553 [Eh]
	-----------------------------------------------------------


*** tstop() called on node52.bme.utexas.edu at Sat Apr 11 16:36:15 2020
Module time:
	user time   =       5.01 seconds =       0.08 minutes
	system time =       0.15 seconds =       0.00 minutes
	total time  =          1 seconds =       0.02 minutes
Total time:
	user time   =      24.64 seconds =       0.41 minutes
	system time =       0.83 seconds =       0.01 minutes
	total time  =          5 seconds =       0.08 minutes

  //>>>>>>>>>>>>>>>>>>>>>>>>>>>>>>>>>>>//
  //  CBS Results: mp2/aug-cc-pv[tq]z  //
  //<<<<<<<<<<<<<<<<<<<<<<<<<<<<<<<<<<<//


   ==> HF <==

   HI-zeta (4) Energy:               -40.216301367089


   ==> Helgaker 2-point correlated extrapolation for method: MP2 <==

   LO-zeta (3) Energy:               -40.432949700804
   HI-zeta (4) Energy:               -40.456565657660
   Alpha (exponent) Value:             3.000000000000
   Extrapolated Energy:              -40.473798923473

   @Extrapolated MP2/(T,Q):          -40.473798923473



   ==> Helgaker 2-point correlated extrapolation for method: HF <==

   LO-zeta (3) Energy:               -40.213669821811
   HI-zeta (4) Energy:               -40.216301367089
   Alpha (exponent) Value:             3.000000000000
   Extrapolated Energy:              -40.218221683913

   @Extrapolated HF/(T,Q):           -40.218221683913


   ==> Components <==

  ---------------------------------------------------------------------------------------------------------
                          Method / Basis                      Rqd      Energy [Eh]   Variable
  ---------------------------------------------------------------------------------------------------------
                              hf / aug-cc-pvtz                  *     -40.21366982   HF TOTAL ENERGY
                             mp2 / aug-cc-pvtz                  *     -40.43294970   MP2 TOTAL ENERGY
                              hf / aug-cc-pvqz                  *     -40.21630137   HF TOTAL ENERGY
                             mp2 / aug-cc-pvqz                  *     -40.45656566   MP2 TOTAL ENERGY
  ---------------------------------------------------------------------------------------------------------

   ==> Stages <==

  ---------------------------------------------------------------------------------------------------------
      Stage               Method / Basis                       Wt      Energy [Eh]   Scheme
  ---------------------------------------------------------------------------------------------------------
        scf                   hf / aug-cc-pvqz                  1     -40.21630137   xtpl_highest_1
       corl                  mp2 / aug-cc-pv[tq]z               1     -40.47379892   corl_xtpl_helgaker_2
       corl                   hf / aug-cc-pv[tq]z              -1     -40.21822168   corl_xtpl_helgaker_2
  ---------------------------------------------------------------------------------------------------------

   ==> CBS <==

  ---------------------------------------------------------------------------------------------------------
      Stage               Method / Basis                               Energy [Eh]   Scheme
  ---------------------------------------------------------------------------------------------------------
        scf                   hf / aug-cc-pvqz                        -40.21630137   xtpl_highest_1
       corl                  mp2 / aug-cc-pv[tq]z                      -0.25557724   corl_xtpl_helgaker_2
      total                  CBS                                      -40.47187861   
  ---------------------------------------------------------------------------------------------------------
   => Loading Basis Set <=

    Name: DEF2-SVP
    Role: ORBITAL
    Keyword: BASIS
    atoms 1   entry C          line    90 file /home/liuchw/anaconda3/envs/psi4env/share/psi4/basis/def2-svp.gbs 
    atoms 2-5 entry H          line    15 file /home/liuchw/anaconda3/envs/psi4env/share/psi4/basis/def2-svp.gbs 


       N-Body: Complex Energy (fragments = (2,), basis = (2,):   -40.47187860664897)

       N-Body: Computing complex (2/4) with fragments (2,) in the basis of fragments (1, 2).


Scratch directory: /scratch//

  //>>>>>>>>>>>>>>>>>>>>>>>>>>>>>>>>>>>//
  //   CBS Setup: mp2/aug-cc-pv[tq]z   //
  //<<<<<<<<<<<<<<<<<<<<<<<<<<<<<<<<<<<//

    Naive listing of computations required.
             hf / aug-cc-pvqz              for  HF TOTAL ENERGY
            mp2 / aug-cc-pvtz              for  MP2 TOTAL ENERGY
            mp2 / aug-cc-pvqz              for  MP2 TOTAL ENERGY
             hf / aug-cc-pvtz              for  HF TOTAL ENERGY
             hf / aug-cc-pvqz              for  HF TOTAL ENERGY

    Enlightened listing of computations required.
            mp2 / aug-cc-pvtz              for  MP2 TOTAL ENERGY
            mp2 / aug-cc-pvqz              for  MP2 TOTAL ENERGY

    Full listing of computations to be obtained (required and bonus).
             hf / aug-cc-pvtz              for  HF TOTAL ENERGY
            mp2 / aug-cc-pvtz              for  MP2 TOTAL ENERGY
             hf / aug-cc-pvqz              for  HF TOTAL ENERGY
            mp2 / aug-cc-pvqz              for  MP2 TOTAL ENERGY

  //>>>>>>>>>>>>>>>>>>>>>>>>>>>>>>>>>>>>//
  // CBS Computation: MP2 / AUG-CC-PVTZ //
  //<<<<<<<<<<<<<<<<<<<<<<<<<<<<<<<<<<<<//


Scratch directory: /scratch//

*** tstart() called on node52.bme.utexas.edu
*** at Sat Apr 11 16:36:16 2020

   => Loading Basis Set <=

    Name: AUG-CC-PVTZ
    Role: ORBITAL
    Keyword: BASIS
    atoms 1, 4, 7        entry C          line   239 file /home/liuchw/anaconda3/envs/psi4env/share/psi4/basis/aug-cc-pvtz.gbs 
    atoms 2-3, 5-6, 8-11 entry H          line    40 file /home/liuchw/anaconda3/envs/psi4env/share/psi4/basis/aug-cc-pvtz.gbs 


         ---------------------------------------------------------
                                   SCF
               by Justin Turney, Rob Parrish, Andy Simmonett
                          and Daniel G. A. Smith
                              RHF Reference
                        6 Threads,  38146 MiB Core
         ---------------------------------------------------------

  ==> Geometry <==

    Molecular point group: c1
    Full point group: C1

    Geometry (in Angstrom), charge = 0, multiplicity = 1:

       Center              X                  Y                   Z               Mass       
    ------------   -----------------  -----------------  -----------------  -----------------
      Gh(C)           1.127393027975     0.656745967314    -0.061388983888    12.000000000000
      Gh(H)           2.008710027975     1.281903967314    -0.062360983888     1.007825032230
      Gh(H)           0.166843027975     1.151424967314    -0.060393983888     1.007825032230
      Gh(C)           1.221373027975    -0.672066032686    -0.061416983888    12.000000000000
      Gh(H)           0.340003027975    -1.297075032686    -0.060443983888     1.007825032230
      Gh(H)           2.181620027975    -1.167481032686    -0.062412983888     1.007825032230
         C           -2.053322872025     0.013301867314     0.107364616112    12.000000000000
         H           -2.343893872025     1.059352867314     0.107231616112     1.007825032230
         H           -1.463319872025    -0.198104132686    -0.779172383888     1.007825032230
         H           -1.464265872025    -0.198139132686     0.994524616112     1.007825032230
         H           -2.943487872025    -0.607852132686     0.106885616112     1.007825032230

  Running in c1 symmetry.

  Rotational constants: A =      0.85106  B =      0.14886  C =      0.12981 [cm^-1]
  Rotational constants: A =  25514.19563  B =   4462.65138  C =   3891.54198 [MHz]
  Nuclear repulsion =   13.489467837064952

  Charge       = 0
  Multiplicity = 1
  Electrons    = 10
  Nalpha       = 5
  Nbeta        = 5

  ==> Algorithm <==

  SCF Algorithm Type is DF.
  DIIS enabled.
  MOM disabled.
  Fractional occupation disabled.
  Guess Type is SAD.
  Energy threshold   = 1.00e-07
  Density threshold  = 1.00e-08
  Integral threshold = 0.00e+00

  ==> Primary Basis <==

  Basis Set: AUG-CC-PVTZ
    Blend: AUG-CC-PVTZ
    Number of shells: 114
    Number of basis function: 322
    Number of Cartesian functions: 365
    Spherical Harmonics?: true
    Max angular momentum: 3

   => Loading Basis Set <=

    Name: (AUG-CC-PVTZ AUX)
    Role: JKFIT
    Keyword: DF_BASIS_SCF
    atoms 1, 4, 7        entry C          line   162 file /home/liuchw/anaconda3/envs/psi4env/share/psi4/basis/aug-cc-pvtz-jkfit.gbs 
    atoms 2-3, 5-6, 8-11 entry H          line    70 file /home/liuchw/anaconda3/envs/psi4env/share/psi4/basis/aug-cc-pvtz-jkfit.gbs 

  ==> Pre-Iterations <==

   -------------------------------------------------------
    Irrep   Nso     Nmo     Nalpha   Nbeta   Ndocc  Nsocc
   -------------------------------------------------------
     A        322     322       0       0       0       0
   -------------------------------------------------------
    Total     322     322       5       5       5       0
   -------------------------------------------------------

  ==> Integral Setup <==

  DFHelper Memory: AOs need 0.545 GiB; user supplied 27.940 GiB. Using in-core AOs.

  ==> MemDFJK: Density-Fitted J/K Matrices <==

    J tasked:                   Yes
    K tasked:                   Yes
    wK tasked:                   No
    OpenMP threads:               6
    Memory [MiB]:             28610
    Algorithm:                 Core
    Schwarz Cutoff:           1E-12
    Mask sparsity (%):       1.7843
    Fitting Condition:        1E-10

   => Auxiliary Basis Set <=

  Basis Set: (AUG-CC-PVTZ AUX)
    Blend: AUG-CC-PVTZ-JKFIT
    Number of shells: 202
    Number of basis function: 680
    Number of Cartesian functions: 833
    Spherical Harmonics?: true
    Max angular momentum: 4

  Minimum eigenvalue in the overlap matrix is 1.9251618464E-06.
  Using Symmetric Orthogonalization.

  SCF Guess: Superposition of Atomic Densities via on-the-fly atomic UHF.

  ==> Iterations <==

                           Total Energy        Delta E     RMS |[F,P]|

   @DF-RHF iter SAD:   -39.63359892943326   -3.96336e+01   0.00000e+00 
   @DF-RHF iter   1:   -40.13700379213630   -5.03405e-01   1.14728e-03 DIIS
   @DF-RHF iter   2:   -40.20139233744152   -6.43885e-02   4.77961e-04 DIIS
   @DF-RHF iter   3:   -40.21293668510287   -1.15443e-02   7.35940e-05 DIIS
   @DF-RHF iter   4:   -40.21368500824826   -7.48323e-04   9.02517e-06 DIIS
   @DF-RHF iter   5:   -40.21369555781435   -1.05496e-05   8.09712e-07 DIIS
   @DF-RHF iter   6:   -40.21369565134002   -9.35257e-08   7.12246e-08 DIIS
   @DF-RHF iter   7:   -40.21369565193885   -5.98824e-10   6.39302e-09 DIIS
  Energy and wave function converged.


  ==> Post-Iterations <==

    Orbital Energies [Eh]
    ---------------------

    Doubly Occupied:                                                      

       1A    -11.205148     2A     -0.944161     3A     -0.545737  
       4A     -0.545707     5A     -0.545434  

    Virtual:                                                              

       6A      0.023299     7A      0.036490     8A      0.037926  
       9A      0.048781    10A      0.056214    11A      0.058598  
      12A      0.076077    13A      0.081457    14A      0.094331  
      15A      0.097319    16A      0.104630    17A      0.115343  
      18A      0.129617    19A      0.130456    20A      0.138456  
      21A      0.142126    22A      0.158329    23A      0.164364  
      24A      0.181918    25A      0.187479    26A      0.217706  
      27A      0.230391    28A      0.231274    29A      0.241025  
      30A      0.267759    31A      0.281965    32A      0.288957  
      33A      0.289900    34A      0.307866    35A      0.310929  
      36A      0.314442    37A      0.326568    38A      0.333188  
      39A      0.337557    40A      0.340704    41A      0.343246  
      42A      0.346252    43A      0.354071    44A      0.365148  
      45A      0.366569    46A      0.392028    47A      0.397409  
      48A      0.402354    49A      0.410644    50A      0.412951  
      51A      0.433587    52A      0.435040    53A      0.444515  
      54A      0.447465    55A      0.462629    56A      0.474290  
      57A      0.476178    58A      0.502514    59A      0.505916  
      60A      0.510473    61A      0.513842    62A      0.530165  
      63A      0.533787    64A      0.546151    65A      0.556506  
      66A      0.562068    67A      0.596228    68A      0.599315  
      69A      0.616392    70A      0.620259    71A      0.630304  
      72A      0.637729    73A      0.650570    74A      0.672207  
      75A      0.682097    76A      0.710335    77A      0.715264  
      78A      0.732033    79A      0.766697    80A      0.785384  
      81A      0.822477    82A      0.842124    83A      0.855545  
      84A      0.868313    85A      0.882798    86A      0.884599  
      87A      0.894092    88A      0.907405    89A      0.923273  
      90A      0.933584    91A      0.942938    92A      0.949610  
      93A      0.958970    94A      0.965384    95A      0.984968  
      96A      1.000342    97A      1.002646    98A      1.010320  
      99A      1.020398   100A      1.027655   101A      1.033216  
     102A      1.042690   103A      1.046441   104A      1.075168  
     105A      1.085297   106A      1.101320   107A      1.102134  
     108A      1.117102   109A      1.121860   110A      1.125476  
     111A      1.141610   112A      1.150465   113A      1.159972  
     114A      1.177801   115A      1.188016   116A      1.195735  
     117A      1.211839   118A      1.214705   119A      1.221109  
     120A      1.233410   121A      1.236351   122A      1.257403  
     123A      1.262823   124A      1.270977   125A      1.281868  
     126A      1.289172   127A      1.292221   128A      1.333646  
     129A      1.341291   130A      1.369087   131A      1.381674  
     132A      1.382999   133A      1.440512   134A      1.454007  
     135A      1.476633   136A      1.480894   137A      1.511581  
     138A      1.524627   139A      1.526409   140A      1.535573  
     141A      1.553615   142A      1.565784   143A      1.590199  
     144A      1.607173   145A      1.617473   146A      1.645079  
     147A      1.658983   148A      1.668326   149A      1.687523  
     150A      1.700495   151A      1.721950   152A      1.729457  
     153A      1.739217   154A      1.753738   155A      1.774833  
     156A      1.786851   157A      1.809845   158A      1.823418  
     159A      1.843371   160A      1.856480   161A      1.869743  
     162A      1.894980   163A      1.941705   164A      1.953120  
     165A      1.975428   166A      1.979833   167A      1.992390  
     168A      2.036294   169A      2.072429   170A      2.075527  
     171A      2.089901   172A      2.128832   173A      2.143700  
     174A      2.157713   175A      2.184366   176A      2.192243  
     177A      2.203287   178A      2.211750   179A      2.232949  
     180A      2.247916   181A      2.265035   182A      2.286830  
     183A      2.297588   184A      2.323722   185A      2.334630  
     186A      2.340498   187A      2.350707   188A      2.401210  
     189A      2.437142   190A      2.464066   191A      2.543433  
     192A      2.615063   193A      2.627930   194A      2.682383  
     195A      2.741359   196A      2.797937   197A      2.825851  
     198A      2.939348   199A      3.211321   200A      3.264782  
     201A      3.300792   202A      3.328049   203A      3.374195  
     204A      3.504678   205A      3.579808   206A      3.604591  
     207A      3.622378   208A      3.633101   209A      3.677019  
     210A      3.696889   211A      3.717500   212A      3.801882  
     213A      3.864580   214A      3.934664   215A      3.943598  
     216A      3.960663   217A      3.967946   218A      3.988059  
     219A      4.013378   220A      4.050891   221A      4.062171  
     222A      4.074151   223A      4.084113   224A      4.101574  
     225A      4.110711   226A      4.127735   227A      4.141140  
     228A      4.149203   229A      4.167840   230A      4.171267  
     231A      4.202938   232A      4.208949   233A      4.227883  
     234A      4.242038   235A      4.259455   236A      4.268462  
     237A      4.332535   238A      4.347641   239A      4.390217  
     240A      4.423575   241A      4.464553   242A      4.523456  
     243A      4.543995   244A      4.588165   245A      4.607061  
     246A      4.609770   247A      4.650702   248A      4.669199  
     249A      4.725043   250A      4.740303   251A      4.778999  
     252A      4.809438   253A      4.822007   254A      4.858667  
     255A      4.869917   256A      4.881053   257A      4.893997  
     258A      4.914430   259A      4.941679   260A      4.956029  
     261A      4.972973   262A      4.982736   263A      5.013398  
     264A      5.021977   265A      5.055967   266A      5.092146  
     267A      5.135219   268A      5.140917   269A      5.215590  
     270A      5.255625   271A      5.277669   272A      5.310092  
     273A      5.385986   274A      5.419121   275A      5.464961  
     276A      5.497489   277A      5.530428   278A      5.540471  
     279A      5.559773   280A      5.569942   281A      5.635988  
     282A      5.674088   283A      5.681599   284A      5.726044  
     285A      5.742540   286A      5.756075   287A      5.786927  
     288A      5.843710   289A      5.855263   290A      5.876015  
     291A      5.888500   292A      5.962195   293A      5.981832  
     294A      6.025329   295A      6.081342   296A      6.124186  
     297A      6.217116   298A      6.253523   299A      6.278312  
     300A      6.288823   301A      6.294867   302A      6.511175  
     303A      6.663016   304A      6.674447   305A      6.716550  
     306A      6.821389   307A      7.028120   308A      7.121457  
     309A      7.182528   310A      7.599797   311A      7.702075  
     312A      7.757351   313A      7.906610   314A      8.136236  
     315A      8.370270   316A      8.391256   317A      8.905245  
     318A     10.637544   319A     11.025050   320A     18.536079  
     321A     51.340693   322A     52.616719  

    Final Occupation by Irrep:
              A 
    DOCC [     5 ]

  @DF-RHF Final Energy:   -40.21369565193885

   => Energetics <=

    Nuclear Repulsion Energy =             13.4894678370649519
    One-Electron Energy =                 -79.8339558917487579
    Two-Electron Energy =                  26.1307924027449587
    Total Energy =                        -40.2136956519388491

Computation Completed


Properties will be evaluated at   0.000000,   0.000000,   0.000000 [a0]

Properties computed using the SCF density matrix

  Nuclear Dipole Moment: [e a0]
     X:   -38.8053      Y:     0.2552      Z:     2.0289

  Electronic Dipole Moment: [e a0]
     X:    38.8050      Y:    -0.2550      Z:    -2.0289

  Dipole Moment: [e a0]
     X:    -0.0003      Y:     0.0002      Z:     0.0000     Total:     0.0004

  Dipole Moment: [D]
     X:    -0.0009      Y:     0.0006      Z:     0.0000     Total:     0.0011


*** tstop() called on node52.bme.utexas.edu at Sat Apr 11 16:36:19 2020
Module time:
	user time   =      15.84 seconds =       0.26 minutes
	system time =       0.37 seconds =       0.01 minutes
	total time  =          3 seconds =       0.05 minutes
Total time:
	user time   =      42.14 seconds =       0.70 minutes
	system time =       1.25 seconds =       0.02 minutes
	total time  =          9 seconds =       0.15 minutes

*** tstart() called on node52.bme.utexas.edu
*** at Sat Apr 11 16:36:19 2020


  //>>>>>>>>>>>>>>>>>>>>>>>>>>>>>>>>>>>//
  //               DFMP2               //
  //<<<<<<<<<<<<<<<<<<<<<<<<<<<<<<<<<<<//

   => Loading Basis Set <=

    Name: (AUG-CC-PVTZ AUX)
    Role: RIFIT
    Keyword: DF_BASIS_MP2
    atoms 1, 4, 7        entry C          line   148 file /home/liuchw/anaconda3/envs/psi4env/share/psi4/basis/aug-cc-pvtz-ri.gbs 
    atoms 2-3, 5-6, 8-11 entry H          line    30 file /home/liuchw/anaconda3/envs/psi4env/share/psi4/basis/aug-cc-pvtz-ri.gbs 

	 --------------------------------------------------------
	                          DF-MP2                         
	      2nd-Order Density-Fitted Moller-Plesset Theory     
	              RMP2 Wavefunction,   6 Threads             
	                                                         
	        Rob Parrish, Justin Turney, Andy Simmonett,      
	           Ed Hohenstein, and C. David Sherrill          
	 --------------------------------------------------------

   => Auxiliary Basis Set <=

  Basis Set: (AUG-CC-PVTZ AUX)
    Blend: AUG-CC-PVTZ-RI
    Number of shells: 196
    Number of basis function: 686
    Number of Cartesian functions: 848
    Spherical Harmonics?: true
    Max angular momentum: 4

	 --------------------------------------------------------
	                 NBF =   322, NAUX =   686
	 --------------------------------------------------------
	   CLASS    FOCC     OCC    AOCC    AVIR     VIR    FVIR
	   PAIRS       0       5       5     317     317       0
	 --------------------------------------------------------

	-----------------------------------------------------------
	 ==================> DF-MP2 Energies <==================== 
	-----------------------------------------------------------
	 Reference Energy          =     -40.2136956519388491 [Eh]
	 Singles Energy            =      -0.0000000000000000 [Eh]
	 Same-Spin Energy          =      -0.0392741884610862 [Eh]
	 Opposite-Spin Energy      =      -0.1806452515915566 [Eh]
	 Correlation Energy        =      -0.2199194400526428 [Eh]
	 Total Energy              =     -40.4336150919914914 [Eh]
	-----------------------------------------------------------
	 ================> DF-SCS-MP2 Energies <================== 
	-----------------------------------------------------------
	 SCS Same-Spin Scale       =       0.3333333333333333 [-]
	 SCS Opposite-Spin Scale   =       1.2000000000000000 [-]
	 SCS Same-Spin Energy      =      -0.0130913961536954 [Eh]
	 SCS Opposite-Spin Energy  =      -0.2167743019098679 [Eh]
	 SCS Correlation Energy    =      -0.2298656980635633 [Eh]
	 SCS Total Energy          =     -40.4435613500024118 [Eh]
	-----------------------------------------------------------


*** tstop() called on node52.bme.utexas.edu at Sat Apr 11 16:36:21 2020
Module time:
	user time   =       9.04 seconds =       0.15 minutes
	system time =       0.28 seconds =       0.00 minutes
	total time  =          2 seconds =       0.03 minutes
Total time:
	user time   =      51.18 seconds =       0.85 minutes
	system time =       1.53 seconds =       0.03 minutes
	total time  =         11 seconds =       0.18 minutes

  //>>>>>>>>>>>>>>>>>>>>>>>>>>>>>>>>>>>>//
  // CBS Computation: MP2 / AUG-CC-PVQZ //
  //<<<<<<<<<<<<<<<<<<<<<<<<<<<<<<<<<<<<//


Scratch directory: /scratch//

*** tstart() called on node52.bme.utexas.edu
*** at Sat Apr 11 16:36:21 2020

   => Loading Basis Set <=

    Name: AUG-CC-PVQZ
    Role: ORBITAL
    Keyword: BASIS
    atoms 1, 4, 7        entry C          line   303 file /home/liuchw/anaconda3/envs/psi4env/share/psi4/basis/aug-cc-pvqz.gbs 
    atoms 2-3, 5-6, 8-11 entry H          line    40 file /home/liuchw/anaconda3/envs/psi4env/share/psi4/basis/aug-cc-pvqz.gbs 


         ---------------------------------------------------------
                                   SCF
               by Justin Turney, Rob Parrish, Andy Simmonett
                          and Daniel G. A. Smith
                              RHF Reference
                        6 Threads,  38146 MiB Core
         ---------------------------------------------------------

  ==> Geometry <==

    Molecular point group: c1
    Full point group: C1

    Geometry (in Angstrom), charge = 0, multiplicity = 1:

       Center              X                  Y                   Z               Mass       
    ------------   -----------------  -----------------  -----------------  -----------------
      Gh(C)           1.127393027975     0.656745967314    -0.061388983888    12.000000000000
      Gh(H)           2.008710027975     1.281903967314    -0.062360983888     1.007825032230
      Gh(H)           0.166843027975     1.151424967314    -0.060393983888     1.007825032230
      Gh(C)           1.221373027975    -0.672066032686    -0.061416983888    12.000000000000
      Gh(H)           0.340003027975    -1.297075032686    -0.060443983888     1.007825032230
      Gh(H)           2.181620027975    -1.167481032686    -0.062412983888     1.007825032230
         C           -2.053322872025     0.013301867314     0.107364616112    12.000000000000
         H           -2.343893872025     1.059352867314     0.107231616112     1.007825032230
         H           -1.463319872025    -0.198104132686    -0.779172383888     1.007825032230
         H           -1.464265872025    -0.198139132686     0.994524616112     1.007825032230
         H           -2.943487872025    -0.607852132686     0.106885616112     1.007825032230

  Running in c1 symmetry.

  Rotational constants: A =      0.85106  B =      0.14886  C =      0.12981 [cm^-1]
  Rotational constants: A =  25514.19563  B =   4462.65138  C =   3891.54198 [MHz]
  Nuclear repulsion =   13.489467837064952

  Charge       = 0
  Multiplicity = 1
  Electrons    = 10
  Nalpha       = 5
  Nbeta        = 5

  ==> Algorithm <==

  SCF Algorithm Type is DF.
  DIIS enabled.
  MOM disabled.
  Fractional occupation disabled.
  Guess Type is SAD.
  Energy threshold   = 1.00e-07
  Density threshold  = 1.00e-08
  Integral threshold = 0.00e+00

  ==> Primary Basis <==

  Basis Set: AUG-CC-PVQZ
    Blend: AUG-CC-PVQZ
    Number of shells: 172
    Number of basis function: 608
    Number of Cartesian functions: 755
    Spherical Harmonics?: true
    Max angular momentum: 4

   => Loading Basis Set <=

    Name: (AUG-CC-PVQZ AUX)
    Role: JKFIT
    Keyword: DF_BASIS_SCF
    atoms 1, 4, 7        entry C          line   178 file /home/liuchw/anaconda3/envs/psi4env/share/psi4/basis/aug-cc-pvqz-jkfit.gbs 
    atoms 2-3, 5-6, 8-11 entry H          line    70 file /home/liuchw/anaconda3/envs/psi4env/share/psi4/basis/aug-cc-pvqz-jkfit.gbs 

  ==> Pre-Iterations <==

   -------------------------------------------------------
    Irrep   Nso     Nmo     Nalpha   Nbeta   Ndocc  Nsocc
   -------------------------------------------------------
     A        608     608       0       0       0       0
   -------------------------------------------------------
    Total     608     608       5       5       5       0
   -------------------------------------------------------

  ==> Integral Setup <==

  DFHelper Memory: AOs need 2.841 GiB; user supplied 27.940 GiB. Using in-core AOs.

  ==> MemDFJK: Density-Fitted J/K Matrices <==

    J tasked:                   Yes
    K tasked:                   Yes
    wK tasked:                   No
    OpenMP threads:               6
    Memory [MiB]:             28610
    Algorithm:                 Core
    Schwarz Cutoff:           1E-12
    Mask sparsity (%):       4.2796
    Fitting Condition:        1E-10

   => Auxiliary Basis Set <=

  Basis Set: (AUG-CC-PVQZ AUX)
    Blend: AUG-CC-PVQZ-JKFIT
    Number of shells: 246
    Number of basis function: 1034
    Number of Cartesian functions: 1402
    Spherical Harmonics?: true
    Max angular momentum: 5

  Minimum eigenvalue in the overlap matrix is 1.4540474487E-06.
  Using Symmetric Orthogonalization.

  SCF Guess: Superposition of Atomic Densities via on-the-fly atomic UHF.

  ==> Iterations <==

                           Total Energy        Delta E     RMS |[F,P]|

   @DF-RHF iter SAD:   -39.63602968755564   -3.96360e+01   0.00000e+00 
   @DF-RHF iter   1:   -40.13939581995229   -5.03366e-01   6.08442e-04 DIIS
   @DF-RHF iter   2:   -40.20395212376455   -6.45563e-02   2.53960e-04 DIIS
   @DF-RHF iter   3:   -40.21555108694891   -1.15990e-02   3.92138e-05 DIIS
   @DF-RHF iter   4:   -40.21630634089045   -7.55254e-04   4.82799e-06 DIIS
   @DF-RHF iter   5:   -40.21631719780226   -1.08569e-05   4.54741e-07 DIIS
   @DF-RHF iter   6:   -40.21631729996150   -1.02159e-07   3.85098e-08 DIIS
   @DF-RHF iter   7:   -40.21631730060128   -6.39787e-10   3.24533e-09 DIIS
  Energy and wave function converged.


  ==> Post-Iterations <==

    Orbital Energies [Eh]
    ---------------------

    Doubly Occupied:                                                      

       1A    -11.204178     2A     -0.944077     3A     -0.545923  
       4A     -0.545894     5A     -0.545620  

    Virtual:                                                              

       6A      0.021032     7A      0.032498     8A      0.034325  
       9A      0.043617    10A      0.050364    11A      0.052756  
      12A      0.068101    13A      0.073425    14A      0.082072  
      15A      0.086830    16A      0.088600    17A      0.101453  
      18A      0.112263    19A      0.113070    20A      0.119475  
      21A      0.125532    22A      0.138661    23A      0.142382  
      24A      0.156952    25A      0.167216    26A      0.181459  
      27A      0.199804    28A      0.206842    29A      0.210110  
      30A      0.227290    31A      0.236277    32A      0.237882  
      33A      0.243710    34A      0.250926    35A      0.258660  
      36A      0.263218    37A      0.266881    38A      0.269527  
      39A      0.278853    40A      0.282963    41A      0.285561  
      42A      0.287086    43A      0.294104    44A      0.296502  
      45A      0.305550    46A      0.315781    47A      0.321397  
      48A      0.323612    49A      0.333089    50A      0.344692  
      51A      0.351544    52A      0.352482    53A      0.364970  
      54A      0.367015    55A      0.380789    56A      0.386320  
      57A      0.395018    58A      0.405568    59A      0.409347  
      60A      0.417350    61A      0.423286    62A      0.424196  
      63A      0.432783    64A      0.447567    65A      0.461534  
      66A      0.464367    67A      0.469929    68A      0.473204  
      69A      0.490520    70A      0.499443    71A      0.507282  
      72A      0.512276    73A      0.515362    74A      0.528881  
      75A      0.529955    76A      0.539976    77A      0.551645  
      78A      0.591520    79A      0.593221    80A      0.602780  
      81A      0.604500    82A      0.633120    83A      0.641241  
      84A      0.654226    85A      0.655836    86A      0.664556  
      87A      0.673256    88A      0.685739    89A      0.694642  
      90A      0.698988    91A      0.716710    92A      0.718859  
      93A      0.725363    94A      0.729368    95A      0.733045  
      96A      0.743058    97A      0.750049    98A      0.755887  
      99A      0.766146   100A      0.767382   101A      0.777245  
     102A      0.784270   103A      0.798804   104A      0.806433  
     105A      0.817224   106A      0.826498   107A      0.833290  
     108A      0.856798   109A      0.860708   110A      0.871879  
     111A      0.882799   112A      0.890173   113A      0.892557  
     114A      0.901564   115A      0.910764   116A      0.925199  
     117A      0.926346   118A      0.932724   119A      0.943546  
     120A      0.951564   121A      0.958309   122A      0.965484  
     123A      0.969357   124A      0.976886   125A      0.984587  
     126A      0.999569   127A      1.002765   128A      1.023339  
     129A      1.023985   130A      1.040455   131A      1.046017  
     132A      1.051374   133A      1.065052   134A      1.077663  
     135A      1.083743   136A      1.091401   137A      1.113075  
     138A      1.131288   139A      1.138732   140A      1.151141  
     141A      1.154165   142A      1.160476   143A      1.175173  
     144A      1.178256   145A      1.193528   146A      1.214944  
     147A      1.222847   148A      1.228909   149A      1.238081  
     150A      1.248478   151A      1.253005   152A      1.274487  
     153A      1.277304   154A      1.290469   155A      1.295045  
     156A      1.307378   157A      1.315654   158A      1.338142  
     159A      1.346118   160A      1.382330   161A      1.396944  
     162A      1.401111   163A      1.410385   164A      1.441319  
     165A      1.445056   166A      1.455044   167A      1.478526  
     168A      1.488990   169A      1.500398   170A      1.505550  
     171A      1.520574   172A      1.540043   173A      1.554859  
     174A      1.564026   175A      1.572562   176A      1.587655  
     177A      1.617684   178A      1.625363   179A      1.638907  
     180A      1.659645   181A      1.672017   182A      1.676545  
     183A      1.682584   184A      1.698958   185A      1.705168  
     186A      1.715600   187A      1.726335   188A      1.735753  
     189A      1.760969   190A      1.776821   191A      1.780740  
     192A      1.784253   193A      1.793980   194A      1.816722  
     195A      1.837416   196A      1.852703   197A      1.878552  
     198A      1.878778   199A      1.895582   200A      1.900687  
     201A      1.909406   202A      1.920480   203A      1.943690  
     204A      1.946284   205A      1.950923   206A      1.962011  
     207A      1.965412   208A      1.969628   209A      1.983472  
     210A      1.994423   211A      2.008618   212A      2.017934  
     213A      2.025829   214A      2.028457   215A      2.037392  
     216A      2.049724   217A      2.072588   218A      2.078381  
     219A      2.087496   220A      2.105566   221A      2.112992  
     222A      2.120991   223A      2.128662   224A      2.154900  
     225A      2.165412   226A      2.174319   227A      2.183697  
     228A      2.199767   229A      2.213083   230A      2.222260  
     231A      2.226098   232A      2.234054   233A      2.257568  
     234A      2.267023   235A      2.277469   236A      2.291885  
     237A      2.300571   238A      2.307274   239A      2.319222  
     240A      2.324707   241A      2.335731   242A      2.338746  
     243A      2.360831   244A      2.369312   245A      2.376058  
     246A      2.376449   247A      2.383020   248A      2.391869  
     249A      2.404255   250A      2.423722   251A      2.438585  
     252A      2.442597   253A      2.452140   254A      2.471208  
     255A      2.481624   256A      2.510108   257A      2.527797  
     258A      2.530899   259A      2.558046   260A      2.581753  
     261A      2.593293   262A      2.609889   263A      2.636095  
     264A      2.655267   265A      2.661386   266A      2.688843  
     267A      2.697331   268A      2.711884   269A      2.722892  
     270A      2.730792   271A      2.744266   272A      2.754266  
     273A      2.775849   274A      2.777982   275A      2.799596  
     276A      2.813456   277A      2.824096   278A      2.832322  
     279A      2.852745   280A      2.860690   281A      2.880140  
     282A      2.902772   283A      2.909581   284A      2.928646  
     285A      2.945249   286A      2.950983   287A      2.952211  
     288A      2.976763   289A      2.991141   290A      3.010158  
     291A      3.022789   292A      3.049552   293A      3.059899  
     294A      3.069136   295A      3.083584   296A      3.091560  
     297A      3.104304   298A      3.105582   299A      3.117121  
     300A      3.129753   301A      3.179167   302A      3.187484  
     303A      3.195644   304A      3.213088   305A      3.223006  
     306A      3.233619   307A      3.246559   308A      3.278134  
     309A      3.291421   310A      3.294519   311A      3.312992  
     312A      3.327930   313A      3.346786   314A      3.379026  
     315A      3.408296   316A      3.421921   317A      3.439834  
     318A      3.476235   319A      3.484349   320A      3.518208  
     321A      3.525731   322A      3.592437   323A      3.606928  
     324A      3.663068   325A      3.707363   326A      3.713943  
     327A      3.723757   328A      3.739067   329A      3.742448  
     330A      3.748271   331A      3.756330   332A      3.783389  
     333A      3.809449   334A      3.821127   335A      3.823488  
     336A      3.844021   337A      3.890117   338A      3.900061  
     339A      3.944119   340A      3.962390   341A      3.970310  
     342A      3.998289   343A      4.009312   344A      4.031315  
     345A      4.034176   346A      4.047360   347A      4.066255  
     348A      4.097813   349A      4.121886   350A      4.139950  
     351A      4.149457   352A      4.169048   353A      4.175542  
     354A      4.186537   355A      4.197207   356A      4.217163  
     357A      4.231324   358A      4.312492   359A      4.347922  
     360A      4.353380   361A      4.356455   362A      4.399089  
     363A      4.404303   364A      4.422453   365A      4.431905  
     366A      4.435311   367A      4.510102   368A      4.523823  
     369A      4.542601   370A      4.560321   371A      4.603471  
     372A      4.619150   373A      4.639500   374A      4.697753  
     375A      4.711597   376A      4.791526   377A      4.796429  
     378A      4.818265   379A      4.838753   380A      4.848386  
     381A      4.870800   382A      4.916304   383A      4.933521  
     384A      4.983032   385A      5.022094   386A      5.037739  
     387A      5.063591   388A      5.079741   389A      5.093476  
     390A      5.143091   391A      5.208620   392A      5.239515  
     393A      5.241817   394A      5.267308   395A      5.344419  
     396A      5.377829   397A      5.510434   398A      5.623426  
     399A      5.660549   400A      5.729937   401A      5.988151  
     402A      6.007397   403A      6.152364   404A      6.199102  
     405A      6.252282   406A      6.290863   407A      6.319062  
     408A      6.340890   409A      6.353778   410A      6.447745  
     411A      6.457497   412A      6.511272   413A      6.547233  
     414A      6.571963   415A      6.606939   416A      6.651427  
     417A      6.684217   418A      6.701843   419A      6.771254  
     420A      6.793382   421A      6.826840   422A      6.839422  
     423A      6.878877   424A      6.909093   425A      6.917305  
     426A      6.928652   427A      6.958645   428A      6.971230  
     429A      6.974629   430A      6.990576   431A      6.998804  
     432A      7.011270   433A      7.058360   434A      7.092258  
     435A      7.102391   436A      7.122012   437A      7.162822  
     438A      7.189706   439A      7.195784   440A      7.200928  
     441A      7.213430   442A      7.237678   443A      7.259210  
     444A      7.276302   445A      7.288959   446A      7.298977  
     447A      7.305671   448A      7.321345   449A      7.323488  
     450A      7.339458   451A      7.411759   452A      7.451023  
     453A      7.485850   454A      7.499742   455A      7.533466  
     456A      7.545529   457A      7.578138   458A      7.630920  
     459A      7.659301   460A      7.681383   461A      7.743602  
     462A      7.786388   463A      7.841567   464A      7.859391  
     465A      7.863654   466A      7.893276   467A      7.902139  
     468A      7.908818   469A      7.916342   470A      7.920115  
     471A      7.967238   472A      7.974966   473A      8.004318  
     474A      8.019332   475A      8.053018   476A      8.077425  
     477A      8.135295   478A      8.163934   479A      8.195256  
     480A      8.258094   481A      8.290385   482A      8.374416  
     483A      8.396106   484A      8.417925   485A      8.498595  
     486A      8.546758   487A      8.566895   488A      8.579050  
     489A      8.599876   490A      8.604666   491A      8.654833  
     492A      8.666073   493A      8.682303   494A      8.697457  
     495A      8.729033   496A      8.761847   497A      8.768419  
     498A      8.843635   499A      8.916527   500A      8.967533  
     501A      8.987142   502A      9.089035   503A      9.096335  
     504A      9.109995   505A      9.134449   506A      9.139115  
     507A      9.165140   508A      9.172397   509A      9.193985  
     510A      9.209937   511A      9.243742   512A      9.278121  
     513A      9.282117   514A      9.314943   515A      9.330069  
     516A      9.333917   517A      9.370270   518A      9.421171  
     519A      9.438739   520A      9.474382   521A      9.486357  
     522A      9.502413   523A      9.545518   524A      9.579426  
     525A      9.611259   526A      9.628464   527A      9.632990  
     528A      9.674858   529A      9.708729   530A      9.719920  
     531A      9.730262   532A      9.806186   533A      9.818790  
     534A      9.834998   535A      9.859639   536A      9.888986  
     537A      9.911896   538A     10.002629   539A     10.018816  
     540A     10.046880   541A     10.074409   542A     10.099778  
     543A     10.126566   544A     10.135921   545A     10.172853  
     546A     10.207222   547A     10.211724   548A     10.252642  
     549A     10.287164   550A     10.297149   551A     10.317740  
     552A     10.340144   553A     10.372459   554A     10.423110  
     555A     10.429384   556A     10.472141   557A     10.479150  
     558A     10.567220   559A     10.571674   560A     10.579737  
     561A     10.652182   562A     10.661008   563A     10.694739  
     564A     10.702304   565A     10.759392   566A     10.809491  
     567A     10.968191   568A     11.019553   569A     11.057320  
     570A     11.082643   571A     11.098489   572A     11.141488  
     573A     11.150804   574A     11.159268   575A     11.286496  
     576A     11.306021   577A     11.310777   578A     11.477897  
     579A     11.553216   580A     11.576899   581A     11.601342  
     582A     11.823931   583A     11.894709   584A     11.983576  
     585A     12.263723   586A     12.353197   587A     12.523706  
     588A     12.603556   589A     12.860824   590A     13.248196  
     591A     13.259881   592A     13.308940   593A     13.365068  
     594A     13.446776   595A     13.672215   596A     13.713060  
     597A     13.974836   598A     14.083743   599A     14.218389  
     600A     14.391914   601A     15.223320   602A     16.784398  
     603A     17.487097   604A     17.538950   605A     18.129092  
     606A     29.887114   607A     69.073897   608A     69.497154  

    Final Occupation by Irrep:
              A 
    DOCC [     5 ]

  @DF-RHF Final Energy:   -40.21631730060128

   => Energetics <=

    Nuclear Repulsion Energy =             13.4894678370649519
    One-Electron Energy =                 -79.8401895354005120
    Two-Electron Energy =                  26.1344043977342793
    Total Energy =                        -40.2163173006012826

Computation Completed


Properties will be evaluated at   0.000000,   0.000000,   0.000000 [a0]

Properties computed using the SCF density matrix

  Nuclear Dipole Moment: [e a0]
     X:   -38.8053      Y:     0.2552      Z:     2.0289

  Electronic Dipole Moment: [e a0]
     X:    38.8050      Y:    -0.2550      Z:    -2.0289

  Dipole Moment: [e a0]
     X:    -0.0003      Y:     0.0002      Z:     0.0000     Total:     0.0004

  Dipole Moment: [D]
     X:    -0.0008      Y:     0.0005      Z:     0.0000     Total:     0.0010


*** tstop() called on node52.bme.utexas.edu at Sat Apr 11 16:36:33 2020
Module time:
	user time   =      61.22 seconds =       1.02 minutes
	system time =       1.34 seconds =       0.02 minutes
	total time  =         12 seconds =       0.20 minutes
Total time:
	user time   =     112.44 seconds =       1.87 minutes
	system time =       2.87 seconds =       0.05 minutes
	total time  =         23 seconds =       0.38 minutes

*** tstart() called on node52.bme.utexas.edu
*** at Sat Apr 11 16:36:33 2020


  //>>>>>>>>>>>>>>>>>>>>>>>>>>>>>>>>>>>//
  //               DFMP2               //
  //<<<<<<<<<<<<<<<<<<<<<<<<<<<<<<<<<<<//

   => Loading Basis Set <=

    Name: (AUG-CC-PVQZ AUX)
    Role: RIFIT
    Keyword: DF_BASIS_MP2
    atoms 1, 4, 7        entry C          line   184 file /home/liuchw/anaconda3/envs/psi4env/share/psi4/basis/aug-cc-pvqz-ri.gbs 
    atoms 2-3, 5-6, 8-11 entry H          line    30 file /home/liuchw/anaconda3/envs/psi4env/share/psi4/basis/aug-cc-pvqz-ri.gbs 

	 --------------------------------------------------------
	                          DF-MP2                         
	      2nd-Order Density-Fitted Moller-Plesset Theory     
	              RMP2 Wavefunction,   6 Threads             
	                                                         
	        Rob Parrish, Justin Turney, Andy Simmonett,      
	           Ed Hohenstein, and C. David Sherrill          
	 --------------------------------------------------------

   => Auxiliary Basis Set <=

  Basis Set: (AUG-CC-PVQZ AUX)
    Blend: AUG-CC-PVQZ-RI
    Number of shells: 268
    Number of basis function: 1144
    Number of Cartesian functions: 1551
    Spherical Harmonics?: true
    Max angular momentum: 5

	 --------------------------------------------------------
	                 NBF =   608, NAUX =  1144
	 --------------------------------------------------------
	   CLASS    FOCC     OCC    AOCC    AVIR     VIR    FVIR
	   PAIRS       0       5       5     603     603       0
	 --------------------------------------------------------

	-----------------------------------------------------------
	 ==================> DF-MP2 Energies <==================== 
	-----------------------------------------------------------
	 Reference Energy          =     -40.2163173006012826 [Eh]
	 Singles Energy            =      -0.0000000000000000 [Eh]
	 Same-Spin Energy          =      -0.0416298549481830 [Eh]
	 Opposite-Spin Energy      =      -0.1989229090646442 [Eh]
	 Correlation Energy        =      -0.2405527640128273 [Eh]
	 Total Energy              =     -40.4568700646141082 [Eh]
	-----------------------------------------------------------
	 ================> DF-SCS-MP2 Energies <================== 
	-----------------------------------------------------------
	 SCS Same-Spin Scale       =       0.3333333333333333 [-]
	 SCS Opposite-Spin Scale   =       1.2000000000000000 [-]
	 SCS Same-Spin Energy      =      -0.0138766183160610 [Eh]
	 SCS Opposite-Spin Energy  =      -0.2387074908775731 [Eh]
	 SCS Correlation Energy    =      -0.2525841091936341 [Eh]
	 SCS Total Energy          =     -40.4689014097949169 [Eh]
	-----------------------------------------------------------


*** tstop() called on node52.bme.utexas.edu at Sat Apr 11 16:36:40 2020
Module time:
	user time   =      30.63 seconds =       0.51 minutes
	system time =       0.75 seconds =       0.01 minutes
	total time  =          7 seconds =       0.12 minutes
Total time:
	user time   =     143.08 seconds =       2.38 minutes
	system time =       3.62 seconds =       0.06 minutes
	total time  =         30 seconds =       0.50 minutes

  //>>>>>>>>>>>>>>>>>>>>>>>>>>>>>>>>>>>//
  //  CBS Results: mp2/aug-cc-pv[tq]z  //
  //<<<<<<<<<<<<<<<<<<<<<<<<<<<<<<<<<<<//


   ==> HF <==

   HI-zeta (4) Energy:               -40.216317300601


   ==> Helgaker 2-point correlated extrapolation for method: MP2 <==

   LO-zeta (3) Energy:               -40.433615091991
   HI-zeta (4) Energy:               -40.456870064614
   Alpha (exponent) Value:             3.000000000000
   Extrapolated Energy:              -40.473839909501

   @Extrapolated MP2/(T,Q):          -40.473839909501



   ==> Helgaker 2-point correlated extrapolation for method: HF <==

   LO-zeta (3) Energy:               -40.213695651939
   HI-zeta (4) Energy:               -40.216317300601
   Alpha (exponent) Value:             3.000000000000
   Extrapolated Energy:              -40.218230395571

   @Extrapolated HF/(T,Q):           -40.218230395571


   ==> Components <==

  ---------------------------------------------------------------------------------------------------------
                          Method / Basis                      Rqd      Energy [Eh]   Variable
[...]
     125A      0.897321   126A      0.905208   127A      0.916076  
     128A      0.924136   129A      0.932657   130A      0.940200  
     131A      0.961568   132A      0.965962   133A      0.974801  
     134A      0.978534   135A      0.996496   136A      1.009804  
     137A      1.014423   138A      1.020182   139A      1.044451  
     140A      1.052290   141A      1.061228   142A      1.075594  
     143A      1.089772   144A      1.099944   145A      1.102030  
     146A      1.127649   147A      1.134155   148A      1.142876  
     149A      1.156700   150A      1.159723   151A      1.172380  
     152A      1.178278   153A      1.196025   154A      1.202725  
     155A      1.206897   156A      1.223294   157A      1.231480  
     158A      1.242176   159A      1.251671   160A      1.262218  
     161A      1.268142   162A      1.286478   163A      1.295683  
     164A      1.297468   165A      1.315739   166A      1.332471  
     167A      1.334564   168A      1.351649   169A      1.367209  
     170A      1.369273   171A      1.373204   172A      1.383407  
     173A      1.395677   174A      1.417722   175A      1.421691  
     176A      1.431428   177A      1.445977   178A      1.450937  
     179A      1.478901   180A      1.495034   181A      1.517254  
     182A      1.527585   183A      1.537093   184A      1.564384  
     185A      1.573917   186A      1.583255   187A      1.600929  
     188A      1.612236   189A      1.619607   190A      1.632552  
     191A      1.657069   192A      1.668777   193A      1.690681  
     194A      1.717154   195A      1.723767   196A      1.735437  
     197A      1.740271   198A      1.753447   199A      1.763284  
     200A      1.775842   201A      1.779723   202A      1.802109  
     203A      1.811755   204A      1.821642   205A      1.853967  
     206A      1.861831   207A      1.863498   208A      1.876019  
     209A      1.886658   210A      1.896944   211A      1.915371  
     212A      1.928848   213A      1.933755   214A      1.940370  
     215A      1.969729   216A      1.976939   217A      1.987322  
     218A      1.989853   219A      2.010400   220A      2.012395  
     221A      2.023573   222A      2.030904   223A      2.033191  
     224A      2.050748   225A      2.055647   226A      2.073477  
     227A      2.076215   228A      2.084654   229A      2.099500  
     230A      2.110378   231A      2.127997   232A      2.132976  
     233A      2.136906   234A      2.145805   235A      2.156535  
     236A      2.166322   237A      2.176945   238A      2.180038  
     239A      2.186059   240A      2.198619   241A      2.222171  
     242A      2.223520   243A      2.229365   244A      2.250413  
     245A      2.252779   246A      2.269758   247A      2.274725  
     248A      2.283767   249A      2.286631   250A      2.306757  
     251A      2.311551   252A      2.329194   253A      2.332596  
     254A      2.341596   255A      2.349123   256A      2.354028  
     257A      2.362010   258A      2.369866   259A      2.375355  
     260A      2.390159   261A      2.395391   262A      2.410200  
     263A      2.426130   264A      2.433396   265A      2.445839  
     266A      2.457765   267A      2.481645   268A      2.490140  
     269A      2.495304   270A      2.519148   271A      2.549293  
     272A      2.554985   273A      2.568165   274A      2.574735  
     275A      2.580809   276A      2.596487   277A      2.617686  
     278A      2.638875   279A      2.658688   280A      2.675238  
     281A      2.680241   282A      2.698293   283A      2.717042  
     284A      2.724814   285A      2.734361   286A      2.750796  
     287A      2.766675   288A      2.788929   289A      2.805902  
     290A      2.815085   291A      2.817346   292A      2.833192  
     293A      2.847766   294A      2.856462   295A      2.864466  
     296A      2.884262   297A      2.907287   298A      2.918327  
     299A      2.923767   300A      2.934910   301A      2.968031  
     302A      2.971594   303A      2.987913   304A      3.003046  
     305A      3.026530   306A      3.041253   307A      3.049872  
     308A      3.085203   309A      3.089997   310A      3.097695  
     311A      3.109237   312A      3.145326   313A      3.154348  
     314A      3.189712   315A      3.195272   316A      3.223006  
     317A      3.230250   318A      3.242316   319A      3.249164  
     320A      3.266321   321A      3.281702   322A      3.305402  
     323A      3.333823   324A      3.364686   325A      3.393499  
     326A      3.417826   327A      3.478366   328A      3.501270  
     329A      3.519952   330A      3.540812   331A      3.550860  
     332A      3.586172   333A      3.596951   334A      3.622830  
     335A      3.700886   336A      3.711399   337A      3.722878  
     338A      3.738400   339A      3.743865   340A      3.755082  
     341A      3.782844   342A      3.790106   343A      3.796676  
     344A      3.822514   345A      3.853262   346A      3.865573  
     347A      3.882764   348A      3.908748   349A      3.920240  
     350A      3.950403   351A      3.998477   352A      4.001071  
     353A      4.018730   354A      4.027485   355A      4.032948  
     356A      4.044169   357A      4.053882   358A      4.077964  
     359A      4.086995   360A      4.096222   361A      4.121361  
     362A      4.129750   363A      4.136551   364A      4.194419  
     365A      4.208536   366A      4.226981   367A      4.275357  
     368A      4.285504   369A      4.313540   370A      4.320010  
     371A      4.355973   372A      4.381098   373A      4.386052  
     374A      4.405793   375A      4.432145   376A      4.450272  
     377A      4.470337   378A      4.484943   379A      4.507809  
     380A      4.538290   381A      4.550092   382A      4.564423  
     383A      4.572913   384A      4.588319   385A      4.609419  
     386A      4.685899   387A      4.727852   388A      4.738492  
     389A      4.783253   390A      4.811572   391A      4.827735  
     392A      4.864273   393A      4.877852   394A      4.910199  
     395A      4.927329   396A      4.981046   397A      4.990649  
     398A      5.052406   399A      5.128374   400A      5.152954  
     401A      5.226882   402A      5.276596   403A      5.297293  
     404A      5.332487   405A      5.522953   406A      5.887028  
     407A      5.917867   408A      5.968779   409A      6.014674  
     410A      6.026450   411A      6.082867   412A      6.099856  
     413A      6.107502   414A      6.154207   415A      6.249228  
     416A      6.252456   417A      6.276619   418A      6.313733  
     419A      6.337819   420A      6.362284   421A      6.368187  
     422A      6.399312   423A      6.412905   424A      6.431963  
     425A      6.448784   426A      6.466311   427A      6.483427  
     428A      6.511985   429A      6.563098   430A      6.615105  
     431A      6.650728   432A      6.655658   433A      6.658940  
     434A      6.675311   435A      6.726810   436A      6.741266  
     437A      6.764737   438A      6.791215   439A      6.831276  
     440A      6.855706   441A      6.882220   442A      6.890139  
     443A      6.914826   444A      6.917037   445A      6.928342  
     446A      6.934330   447A      6.953625   448A      6.968397  
     449A      6.974083   450A      6.987845   451A      7.001035  
     452A      7.015331   453A      7.063022   454A      7.065646  
     455A      7.073945   456A      7.095336   457A      7.126005  
     458A      7.129974   459A      7.148729   460A      7.173099  
     461A      7.221962   462A      7.246216   463A      7.251985  
     464A      7.260278   465A      7.304229   466A      7.311461  
     467A      7.332772   468A      7.349967   469A      7.382481  
     470A      7.423345   471A      7.452060   472A      7.494389  
     473A      7.518546   474A      7.521377   475A      7.628859  
     476A      7.636340   477A      7.695145   478A      7.745774  
     479A      7.762524   480A      7.790526   481A      7.799899  
     482A      7.810959   483A      7.819263   484A      7.850207  
     485A      7.890795   486A      7.899495   487A      7.906565  
     488A      7.908256   489A      7.917243   490A      7.950495  
     491A      7.957899   492A      7.981668   493A      8.001355  
     494A      8.020216   495A      8.036350   496A      8.109226  
     497A      8.142132   498A      8.244766   499A      8.273729  
     500A      8.367412   501A      8.388661   502A      8.392567  
     503A      8.459978   504A      8.474051   505A      8.534386  
     506A      8.547577   507A      8.570179   508A      8.572840  
     509A      8.589293   510A      8.630266   511A      8.671295  
     512A      8.679713   513A      8.694287   514A      8.715263  
     515A      8.730831   516A      8.753558   517A      8.768501  
     518A      8.798128   519A      8.871821   520A      8.890651  
     521A      8.923196   522A      8.939714   523A      8.951641  
     524A      8.955327   525A      9.028725   526A      9.089088  
     527A      9.113369   528A      9.135430   529A      9.162753  
     530A      9.184449   531A      9.209392   532A      9.237832  
     533A      9.263592   534A      9.298813   535A      9.311532  
     536A      9.330024   537A      9.348667   538A      9.356761  
     539A      9.428432   540A      9.483787   541A      9.500961  
     542A      9.506094   543A      9.566566   544A      9.597062  
     545A      9.599315   546A      9.621427   547A      9.664307  
     548A      9.688074   549A      9.724250   550A      9.741646  
     551A      9.742929   552A      9.789441   553A      9.850471  
     554A      9.874134   555A      9.896769   556A      9.923032  
     557A      9.989460   558A     10.040842   559A     10.041990  
     560A     10.070436   561A     10.087957   562A     10.122702  
     563A     10.140446   564A     10.172264   565A     10.271692  
     566A     10.279255   567A     10.291423   568A     10.305383  
     569A     10.321501   570A     10.360115   571A     10.378670  
     572A     10.417435   573A     10.440298   574A     10.491738  
     575A     10.568143   576A     10.599059   577A     10.641327  
     578A     10.645312   579A     10.663813   580A     10.679561  
     581A     10.721204   582A     10.773235   583A     10.811343  
     584A     10.951633   585A     11.034223   586A     11.081800  
     587A     11.129191   588A     11.136007   589A     11.192147  
     590A     11.253403   591A     11.493889   592A     11.531075  
     593A     11.553845   594A     11.578220   595A     11.596884  
     596A     11.821759   597A     12.342264   598A     12.961165  
     599A     13.114020   600A     13.303943   601A     13.352156  
     602A     13.440797   603A     13.455477   604A     13.746848  
     605A     13.971913   606A     26.847045   607A     27.128388  
     608A     29.886392  

    Final Occupation by Irrep:
              A 
    DOCC [    13 ]

  @DF-RHF Final Energy:  -118.27944286185243

   => Energetics <=

    Nuclear Repulsion Energy =             72.5654409069885702
    One-Electron Energy =                -301.3130404076846389
    Two-Electron Energy =                 110.4681566388436522
    Total Energy =                       -118.2794428618524307

Computation Completed


Properties will be evaluated at   0.000000,   0.000000,   0.000000 [a0]

Properties computed using the SCF density matrix

  Nuclear Dipole Moment: [e a0]
     X:    -3.2978      Y:     0.0225      Z:     0.1724

  Electronic Dipole Moment: [e a0]
     X:     3.2795      Y:    -0.0221      Z:    -0.1666

  Dipole Moment: [e a0]
     X:    -0.0183      Y:     0.0004      Z:     0.0057     Total:     0.0192

  Dipole Moment: [D]
     X:    -0.0466      Y:     0.0011      Z:     0.0145     Total:     0.0488


*** tstop() called on node52.bme.utexas.edu at Sat Apr 11 16:37:32 2020
Module time:
	user time   =      68.90 seconds =       1.15 minutes
	system time =       1.57 seconds =       0.03 minutes
	total time  =         13 seconds =       0.22 minutes
Total time:
	user time   =     396.84 seconds =       6.61 minutes
	system time =      10.09 seconds =       0.17 minutes
	total time  =         82 seconds =       1.37 minutes

*** tstart() called on node52.bme.utexas.edu
*** at Sat Apr 11 16:37:32 2020


  //>>>>>>>>>>>>>>>>>>>>>>>>>>>>>>>>>>>//
  //               DFMP2               //
  //<<<<<<<<<<<<<<<<<<<<<<<<<<<<<<<<<<<//

   => Loading Basis Set <=

    Name: (AUG-CC-PVQZ AUX)
    Role: RIFIT
    Keyword: DF_BASIS_MP2
    atoms 1, 4, 7        entry C          line   184 file /home/liuchw/anaconda3/envs/psi4env/share/psi4/basis/aug-cc-pvqz-ri.gbs 
    atoms 2-3, 5-6, 8-11 entry H          line    30 file /home/liuchw/anaconda3/envs/psi4env/share/psi4/basis/aug-cc-pvqz-ri.gbs 

	 --------------------------------------------------------
	                          DF-MP2                         
	      2nd-Order Density-Fitted Moller-Plesset Theory     
	              RMP2 Wavefunction,   6 Threads             
	                                                         
	        Rob Parrish, Justin Turney, Andy Simmonett,      
	           Ed Hohenstein, and C. David Sherrill          
	 --------------------------------------------------------

   => Auxiliary Basis Set <=

  Basis Set: (AUG-CC-PVQZ AUX)
    Blend: AUG-CC-PVQZ-RI
    Number of shells: 268
    Number of basis function: 1144
    Number of Cartesian functions: 1551
    Spherical Harmonics?: true
    Max angular momentum: 5

	 --------------------------------------------------------
	                 NBF =   608, NAUX =  1144
	 --------------------------------------------------------
	   CLASS    FOCC     OCC    AOCC    AVIR     VIR    FVIR
	   PAIRS       0      13      13     595     595       0
	 --------------------------------------------------------

	-----------------------------------------------------------
	 ==================> DF-MP2 Energies <==================== 
	-----------------------------------------------------------
	 Reference Energy          =    -118.2794428618524307 [Eh]
	 Singles Energy            =      -0.0000000000000000 [Eh]
	 Same-Spin Energy          =      -0.1257494382176563 [Eh]
	 Opposite-Spin Energy      =      -0.5359916214452141 [Eh]
	 Correlation Energy        =      -0.6617410596628703 [Eh]
	 Total Energy              =    -118.9411839215153037 [Eh]
	-----------------------------------------------------------
	 ================> DF-SCS-MP2 Energies <================== 
	-----------------------------------------------------------
	 SCS Same-Spin Scale       =       0.3333333333333333 [-]
	 SCS Opposite-Spin Scale   =       1.2000000000000000 [-]
	 SCS Same-Spin Energy      =      -0.0419164794058854 [Eh]
	 SCS Opposite-Spin Energy  =      -0.6431899457342568 [Eh]
	 SCS Correlation Energy    =      -0.6851064251401422 [Eh]
	 SCS Total Energy          =    -118.9645492869925789 [Eh]
	-----------------------------------------------------------


*** tstop() called on node52.bme.utexas.edu at Sat Apr 11 16:37:40 2020
Module time:
	user time   =      35.03 seconds =       0.58 minutes
	system time =       0.88 seconds =       0.01 minutes
	total time  =          8 seconds =       0.13 minutes
Total time:
	user time   =     431.88 seconds =       7.20 minutes
	system time =      10.97 seconds =       0.18 minutes
	total time  =         90 seconds =       1.50 minutes

  //>>>>>>>>>>>>>>>>>>>>>>>>>>>>>>>>>>>//
  //  CBS Results: mp2/aug-cc-pv[tq]z  //
  //<<<<<<<<<<<<<<<<<<<<<<<<<<<<<<<<<<<//


   ==> HF <==

   HI-zeta (4) Energy:               -118.279442861852


   ==> Helgaker 2-point correlated extrapolation for method: MP2 <==

   LO-zeta (3) Energy:               -118.873340268909
   HI-zeta (4) Energy:               -118.941183921515
   Alpha (exponent) Value:             3.000000000000
   Extrapolated Energy:              -118.990691451796

   @Extrapolated MP2/(T,Q):          -118.990691451796



   ==> Helgaker 2-point correlated extrapolation for method: HF <==

   LO-zeta (3) Energy:               -118.272121582976
   HI-zeta (4) Energy:               -118.279442861852
   Alpha (exponent) Value:             3.000000000000
   Extrapolated Energy:              -118.284785416708

   @Extrapolated HF/(T,Q):           -118.284785416708


   ==> Components <==

  ---------------------------------------------------------------------------------------------------------
                          Method / Basis                      Rqd      Energy [Eh]   Variable
  ---------------------------------------------------------------------------------------------------------
                              hf / aug-cc-pvtz                  *    -118.27212158   HF TOTAL ENERGY
                             mp2 / aug-cc-pvtz                  *    -118.87334027   MP2 TOTAL ENERGY
                              hf / aug-cc-pvqz                  *    -118.27944286   HF TOTAL ENERGY
                             mp2 / aug-cc-pvqz                  *    -118.94118392   MP2 TOTAL ENERGY
  ---------------------------------------------------------------------------------------------------------

   ==> Stages <==

  ---------------------------------------------------------------------------------------------------------
      Stage               Method / Basis                       Wt      Energy [Eh]   Scheme
  ---------------------------------------------------------------------------------------------------------
        scf                   hf / aug-cc-pvqz                  1    -118.27944286   xtpl_highest_1
       corl                  mp2 / aug-cc-pv[tq]z               1    -118.99069145   corl_xtpl_helgaker_2
       corl                   hf / aug-cc-pv[tq]z              -1    -118.28478542   corl_xtpl_helgaker_2
  ---------------------------------------------------------------------------------------------------------

   ==> CBS <==

  ---------------------------------------------------------------------------------------------------------
      Stage               Method / Basis                               Energy [Eh]   Scheme
  ---------------------------------------------------------------------------------------------------------
        scf                   hf / aug-cc-pvqz                       -118.27944286   xtpl_highest_1
       corl                  mp2 / aug-cc-pv[tq]z                      -0.70590604   corl_xtpl_helgaker_2
      total                  CBS                                     -118.98534890   
  ---------------------------------------------------------------------------------------------------------
   => Loading Basis Set <=

    Name: DEF2-SVP
    Role: ORBITAL
    Keyword: BASIS
    atoms 1, 4, 7        entry C          line    90 file /home/liuchw/anaconda3/envs/psi4env/share/psi4/basis/def2-svp.gbs 
    atoms 2-3, 5-6, 8-11 entry H          line    15 file /home/liuchw/anaconda3/envs/psi4env/share/psi4/basis/def2-svp.gbs 


       N-Body: Complex Energy (fragments = (1, 2), basis = (1, 2):  -118.98534889694022)

   ==> N-Body: Counterpoise Corrected (CP) energies <==

   n-Body     Total Energy [Eh]       I.E. [kcal/mol]      Delta [kcal/mol]
        1     -118.985883762743        0.000000000000        0.000000000000
        2     -118.985302905725        0.364493281255        0.364493281255

   => Loading Basis Set <=

    Name: DEF2-SVP
    Role: ORBITAL
    Keyword: BASIS
    atoms 1, 4, 7        entry C          line    90 file /home/liuchw/anaconda3/envs/psi4env/share/psi4/basis/def2-svp.gbs 
    atoms 2-3, 5-6, 8-11 entry H          line    15 file /home/liuchw/anaconda3/envs/psi4env/share/psi4/basis/def2-svp.gbs 


    Psi4 stopped on: Saturday, 11 April 2020 04:37PM
    Psi4 wall time for execution: 0:01:30.75

*** Psi4 exiting successfully. Buy a developer a beer!
