
    -----------------------------------------------------------------------
          Psi4: An Open-Source Ab Initio Electronic Structure Package
                               Psi4 1.4a2.dev224 

                         Git: Rev {master} e453b16 


    R. M. Parrish, L. A. Burns, D. G. A. Smith, A. C. Simmonett,
    A. E. DePrince III, E. G. Hohenstein, U. Bozkaya, A. Yu. Sokolov,
    R. Di Remigio, R. M. Richard, J. F. Gonthier, A. M. James,
    H. R. McAlexander, A. Kumar, M. Saitow, X. Wang, B. P. Pritchard,
    P. Verma, H. F. Schaefer III, K. Patkowski, R. A. King, E. F. Valeev,
    F. A. Evangelista, J. M. Turney, T. D. Crawford, and C. D. Sherrill,
    J. Chem. Theory Comput. 13(7) pp 3185--3197 (2017).
    (doi: 10.1021/acs.jctc.7b00174)


                         Additional Contributions by
    P. Kraus, H. Kruse, M. H. Lechner, M. C. Schieber, R. A. Shaw,
    A. Alenaizan, R. Galvelis, Z. L. Glick, S. Lehtola, and J. P. Misiewicz

    -----------------------------------------------------------------------


    Psi4 started on: Saturday, 11 April 2020 04:29PM

    Process ID: 29291
    Host:       node43.bme.utexas.edu
    PSIDATADIR: /home/liuchw/anaconda3/envs/psi4env/share/psi4
    Memory:     500.0 MiB
    Threads:    6
    
  ==> Input File <==

--------------------------------------------------------------------------
#Generated by lconvert.py for cbs job

memory 40 GB

molecule  {
0 1
  C        1.4332690     0.6735240     0.0000730
  H        2.3145860     1.2986820    -0.0008990
  H        0.4727190     1.1682030     0.0010680
  C        1.5272490    -0.6552880     0.0000450
  H        0.6458790    -1.2802970     0.0010180
  H        2.4874960    -1.1507030    -0.0009510
--
0 1
  C       -2.3682110    -0.0147350    -0.0000960
  H       -2.6587820     1.0313160    -0.0002290
  H       -1.7782080    -0.2261410    -0.8866330
  H       -1.7791540    -0.2261760     0.8870640
  H       -3.2583760    -0.6358890    -0.0005750
units angstrom
no_reorient
symmetry c1
}

set {
scf_type DF
mp2_type DF
e_convergence 7
reference rhf
}

energy('mp2/aug-cc-pv[tq]z', bsse_type='cp')
--------------------------------------------------------------------------

  Memory set to  37.253 GiB by Python driver.

Scratch directory: /scratch//


   ===> N-Body Interaction Abacus <===
        BSSE Treatment:                     cp
        Number of 1-body computations:     4
        Number of 2-body computations:     1

   ==> N-Body: Now computing 1-body complexes <==


       N-Body: Computing complex (1/4) with fragments (2,) in the basis of fragments (2,).


Scratch directory: /scratch//

  //>>>>>>>>>>>>>>>>>>>>>>>>>>>>>>>>>>>//
  //   CBS Setup: mp2/aug-cc-pv[tq]z   //
  //<<<<<<<<<<<<<<<<<<<<<<<<<<<<<<<<<<<//

    Naive listing of computations required.
             hf / aug-cc-pvqz              for  HF TOTAL ENERGY
            mp2 / aug-cc-pvtz              for  MP2 TOTAL ENERGY
            mp2 / aug-cc-pvqz              for  MP2 TOTAL ENERGY
             hf / aug-cc-pvtz              for  HF TOTAL ENERGY
             hf / aug-cc-pvqz              for  HF TOTAL ENERGY

    Enlightened listing of computations required.
            mp2 / aug-cc-pvtz              for  MP2 TOTAL ENERGY
            mp2 / aug-cc-pvqz              for  MP2 TOTAL ENERGY

    Full listing of computations to be obtained (required and bonus).
             hf / aug-cc-pvtz              for  HF TOTAL ENERGY
            mp2 / aug-cc-pvtz              for  MP2 TOTAL ENERGY
             hf / aug-cc-pvqz              for  HF TOTAL ENERGY
            mp2 / aug-cc-pvqz              for  MP2 TOTAL ENERGY

  //>>>>>>>>>>>>>>>>>>>>>>>>>>>>>>>>>>>>//
  // CBS Computation: MP2 / AUG-CC-PVTZ //
  //<<<<<<<<<<<<<<<<<<<<<<<<<<<<<<<<<<<<//


Scratch directory: /scratch//

*** tstart() called on node43.bme.utexas.edu
*** at Sat Apr 11 16:29:54 2020

   => Loading Basis Set <=

    Name: AUG-CC-PVTZ
    Role: ORBITAL
    Keyword: BASIS
    atoms 1   entry C          line   239 file /home/liuchw/anaconda3/envs/psi4env/share/psi4/basis/aug-cc-pvtz.gbs 
    atoms 2-5 entry H          line    40 file /home/liuchw/anaconda3/envs/psi4env/share/psi4/basis/aug-cc-pvtz.gbs 


         ---------------------------------------------------------
                                   SCF
               by Justin Turney, Rob Parrish, Andy Simmonett
                          and Daniel G. A. Smith
                              RHF Reference
                        6 Threads,  38146 MiB Core
         ---------------------------------------------------------

  ==> Geometry <==

    Molecular point group: c1
    Full point group: C1

    Geometry (in Angstrom), charge = 0, multiplicity = 1:

       Center              X                  Y                   Z               Mass       
    ------------   -----------------  -----------------  -----------------  -----------------
         C           -2.448234309265    -0.015208023269    -0.000098857933    12.000000000000
         H           -2.738805309265     1.030842976731    -0.000231857933     1.007825032230
         H           -1.858231309265    -0.226614023269    -0.886635857933     1.007825032230
         H           -1.859177309265    -0.226649023269     0.887061142067     1.007825032230
         H           -3.338399309265    -0.636362023269    -0.000577857933     1.007825032230

  Running in c1 symmetry.

  Rotational constants: A =      5.32282  B =      0.16982  C =      0.16981 [cm^-1]
  Rotational constants: A = 159574.09695  B =   5091.10294  C =   5090.91984 [MHz]
  Nuclear repulsion =   13.489467837064948

  Charge       = 0
  Multiplicity = 1
  Electrons    = 10
  Nalpha       = 5
  Nbeta        = 5

  ==> Algorithm <==

  SCF Algorithm Type is DF.
  DIIS enabled.
  MOM disabled.
  Fractional occupation disabled.
  Guess Type is SAD.
  Energy threshold   = 1.00e-07
  Density threshold  = 1.00e-08
  Integral threshold = 0.00e+00

  ==> Primary Basis <==

  Basis Set: AUG-CC-PVTZ
    Blend: AUG-CC-PVTZ
    Number of shells: 50
    Number of basis function: 138
    Number of Cartesian functions: 155
    Spherical Harmonics?: true
    Max angular momentum: 3

   => Loading Basis Set <=

    Name: (AUG-CC-PVTZ AUX)
    Role: JKFIT
    Keyword: DF_BASIS_SCF
    atoms 1   entry C          line   162 file /home/liuchw/anaconda3/envs/psi4env/share/psi4/basis/aug-cc-pvtz-jkfit.gbs 
    atoms 2-5 entry H          line    70 file /home/liuchw/anaconda3/envs/psi4env/share/psi4/basis/aug-cc-pvtz-jkfit.gbs 

  ==> Pre-Iterations <==

   -------------------------------------------------------
    Irrep   Nso     Nmo     Nalpha   Nbeta   Ndocc  Nsocc
   -------------------------------------------------------
     A        138     138       0       0       0       0
   -------------------------------------------------------
    Total     138     138       5       5       5       0
   -------------------------------------------------------

  ==> Integral Setup <==

  DFHelper Memory: AOs need 0.046 GiB; user supplied 27.940 GiB. Using in-core AOs.

  ==> MemDFJK: Density-Fitted J/K Matrices <==

    J tasked:                   Yes
    K tasked:                   Yes
    wK tasked:                   No
    OpenMP threads:               6
    Memory [MiB]:             28610
    Algorithm:                 Core
    Schwarz Cutoff:           1E-12
    Mask sparsity (%):       0.0000
    Fitting Condition:        1E-10

   => Auxiliary Basis Set <=

  Basis Set: (AUG-CC-PVTZ AUX)
    Blend: AUG-CC-PVTZ-JKFIT
    Number of shells: 86
    Number of basis function: 288
    Number of Cartesian functions: 351
    Spherical Harmonics?: true
    Max angular momentum: 4

  Minimum eigenvalue in the overlap matrix is 8.1868658059E-05.
  Using Symmetric Orthogonalization.

  SCF Guess: Superposition of Atomic Densities via on-the-fly atomic UHF.

  ==> Iterations <==

                           Total Energy        Delta E     RMS |[F,P]|

   @DF-RHF iter SAD:   -39.63359891693488   -3.96336e+01   0.00000e+00 
   @DF-RHF iter   1:   -40.13699468395628   -5.03396e-01   2.67688e-03 DIIS
   @DF-RHF iter   2:   -40.20137270320549   -6.43780e-02   1.11509e-03 DIIS
   @DF-RHF iter   3:   -40.21291226589842   -1.15396e-02   1.71633e-04 DIIS
   @DF-RHF iter   4:   -40.21365924989551   -7.46984e-04   2.09901e-05 DIIS
   @DF-RHF iter   5:   -40.21366972770880   -1.04778e-05   1.88522e-06 DIIS
   @DF-RHF iter   6:   -40.21366982121054   -9.35017e-08   1.65074e-07 DIIS
   @DF-RHF iter   7:   -40.21366982179443   -5.83888e-10   1.48051e-08 DIIS
   @DF-RHF iter   8:   -40.21366982179814   -3.71614e-12   8.76559e-10 DIIS
  Energy and wave function converged.


  ==> Post-Iterations <==

    Orbital Energies [Eh]
    ---------------------

    Doubly Occupied:                                                      

       1A    -11.205120     2A     -0.944163     3A     -0.545738  
       4A     -0.545705     5A     -0.545433  

    Virtual:                                                              

       6A      0.030849     7A      0.050500     8A      0.050504  
       9A      0.050523    10A      0.123968    11A      0.124009  
      12A      0.124021    13A      0.141960    14A      0.223076  
      15A      0.223099    16A      0.228422    17A      0.228435  
      18A      0.228443    19A      0.329897    20A      0.329956  
      21A      0.329970    22A      0.337484    23A      0.354076  
      24A      0.354109    25A      0.354137    26A      0.392024  
      27A      0.392096    28A      0.392166    29A      0.401569  
      30A      0.463278    31A      0.463289    32A      0.463311  
      33A      0.500748    34A      0.500751    35A      0.678477  
      36A      0.678492    37A      0.678566    38A      0.796828  
      39A      0.832084    40A      0.832121    41A      0.832231  
      42A      0.893459    43A      0.893578    44A      0.893677  
      45A      0.968530    46A      0.968535    47A      0.969162  
      48A      0.969196    49A      0.969301    50A      0.981110  
      51A      1.070491    52A      1.070679    53A      1.070818  
      54A      1.087118    55A      1.087258    56A      1.087275  
      57A      1.119856    58A      1.119868    59A      1.215262  
      60A      1.215335    61A      1.215502    62A      1.266351  
      63A      1.266443    64A      1.314671    65A      1.590382  
      66A      1.590496    67A      1.590516    68A      1.620937  
      69A      1.620987    70A      1.621055    71A      1.627603  
      72A      1.732072    73A      1.732159    74A      1.732222  
      75A      1.867252    76A      1.867489    77A      1.867514  
      78A      1.929107    79A      1.929220    80A      1.929584  
      81A      2.118142    82A      2.118355    83A      2.118498  
      84A      2.243312    85A      2.243358    86A      2.589603  
      87A      2.907003    88A      3.250565    89A      3.250586  
      90A      3.250654    91A      3.488423    92A      3.488542  
      93A      3.574969    94A      3.575297    95A      3.575501  
      96A      3.581033    97A      3.581070    98A      3.581136  
      99A      3.913343   100A      3.913355   101A      3.913516  
     102A      4.056156   103A      4.056392   104A      4.056784  
     105A      4.072471   106A      4.073126   107A      4.073734  
     108A      4.119136   109A      4.119150   110A      4.268549  
     111A      4.580203   112A      4.581176   113A      4.581949  
     114A      4.763281   115A      4.763371   116A      4.805409  
     117A      4.805743   118A      4.806016   119A      4.862400  
     120A      4.862400   121A      4.862709   122A      5.198499  
     123A      5.198887   124A      5.199277   125A      5.314417  
     126A      5.643821   127A      5.645334   128A      5.647953  
     129A      5.830932   130A      5.831144   131A      5.831621  
     132A      6.240033   133A      6.241065   134A      6.241777  
     135A      6.608667   136A      6.608987   137A      6.609924  
     138A     17.749585  

    Final Occupation by Irrep:
              A 
    DOCC [     5 ]

  @DF-RHF Final Energy:   -40.21366982179814

   => Energetics <=

    Nuclear Repulsion Energy =             13.4894678370649483
    One-Electron Energy =                 -79.8339559763260809
    Two-Electron Energy =                  26.1308183174629889
    Total Energy =                        -40.2136698217981419

Computation Completed


Properties will be evaluated at   0.000000,   0.000000,   0.000000 [a0]

Properties computed using the SCF density matrix

  Nuclear Dipole Moment: [e a0]
     X:   -46.2681      Y:    -0.2835      Z:    -0.0018

  Electronic Dipole Moment: [e a0]
     X:    46.2678      Y:     0.2837      Z:     0.0018

  Dipole Moment: [e a0]
     X:    -0.0003      Y:     0.0002      Z:     0.0000     Total:     0.0003

  Dipole Moment: [D]
     X:    -0.0007      Y:     0.0005      Z:     0.0000     Total:     0.0008


*** tstop() called on node43.bme.utexas.edu at Sat Apr 11 16:29:56 2020
Module time:
	user time   =       6.04 seconds =       0.10 minutes
	system time =       0.36 seconds =       0.01 minutes
	total time  =          2 seconds =       0.03 minutes
Total time:
	user time   =       6.04 seconds =       0.10 minutes
	system time =       0.36 seconds =       0.01 minutes
	total time  =          2 seconds =       0.03 minutes

*** tstart() called on node43.bme.utexas.edu
*** at Sat Apr 11 16:29:56 2020


  //>>>>>>>>>>>>>>>>>>>>>>>>>>>>>>>>>>>//
  //               DFMP2               //
  //<<<<<<<<<<<<<<<<<<<<<<<<<<<<<<<<<<<//

   => Loading Basis Set <=

    Name: (AUG-CC-PVTZ AUX)
    Role: RIFIT
    Keyword: DF_BASIS_MP2
    atoms 1   entry C          line   148 file /home/liuchw/anaconda3/envs/psi4env/share/psi4/basis/aug-cc-pvtz-ri.gbs 
    atoms 2-5 entry H          line    30 file /home/liuchw/anaconda3/envs/psi4env/share/psi4/basis/aug-cc-pvtz-ri.gbs 

	 --------------------------------------------------------
	                          DF-MP2                         
	      2nd-Order Density-Fitted Moller-Plesset Theory     
	              RMP2 Wavefunction,   6 Threads             
	                                                         
	        Rob Parrish, Justin Turney, Andy Simmonett,      
	           Ed Hohenstein, and C. David Sherrill          
	 --------------------------------------------------------

   => Auxiliary Basis Set <=

  Basis Set: (AUG-CC-PVTZ AUX)
    Blend: AUG-CC-PVTZ-RI
    Number of shells: 84
    Number of basis function: 290
    Number of Cartesian functions: 356
    Spherical Harmonics?: true
    Max angular momentum: 4

	 --------------------------------------------------------
	                 NBF =   138, NAUX =   290
	 --------------------------------------------------------
	   CLASS    FOCC     OCC    AOCC    AVIR     VIR    FVIR
	   PAIRS       0       5       5     133     133       0
	 --------------------------------------------------------

	-----------------------------------------------------------
	 ==================> DF-MP2 Energies <==================== 
	-----------------------------------------------------------
	 Reference Energy          =     -40.2136698217981419 [Eh]
	 Singles Energy            =      -0.0000000000000000 [Eh]
	 Same-Spin Energy          =      -0.0392190595434302 [Eh]
	 Opposite-Spin Energy      =      -0.1800608194491739 [Eh]
	 Correlation Energy        =      -0.2192798789926041 [Eh]
	 Total Energy              =     -40.4329497007907435 [Eh]
	-----------------------------------------------------------
	 ================> DF-SCS-MP2 Energies <================== 
	-----------------------------------------------------------
	 SCS Same-Spin Scale       =       0.3333333333333333 [-]
	 SCS Opposite-Spin Scale   =       1.2000000000000000 [-]
	 SCS Same-Spin Energy      =      -0.0130730198478101 [Eh]
	 SCS Opposite-Spin Energy  =      -0.2160729833390087 [Eh]
	 SCS Correlation Energy    =      -0.2291460031868187 [Eh]
	 SCS Total Energy          =     -40.4428158249849616 [Eh]
	-----------------------------------------------------------


*** tstop() called on node43.bme.utexas.edu at Sat Apr 11 16:29:57 2020
Module time:
	user time   =       2.79 seconds =       0.05 minutes
	system time =       0.17 seconds =       0.00 minutes
	total time  =          1 seconds =       0.02 minutes
Total time:
	user time   =       8.84 seconds =       0.15 minutes
	system time =       0.53 seconds =       0.01 minutes
	total time  =          3 seconds =       0.05 minutes

  //>>>>>>>>>>>>>>>>>>>>>>>>>>>>>>>>>>>>//
  // CBS Computation: MP2 / AUG-CC-PVQZ //
  //<<<<<<<<<<<<<<<<<<<<<<<<<<<<<<<<<<<<//


Scratch directory: /scratch//

*** tstart() called on node43.bme.utexas.edu
*** at Sat Apr 11 16:29:57 2020

   => Loading Basis Set <=

    Name: AUG-CC-PVQZ
    Role: ORBITAL
    Keyword: BASIS
    atoms 1   entry C          line   303 file /home/liuchw/anaconda3/envs/psi4env/share/psi4/basis/aug-cc-pvqz.gbs 
    atoms 2-5 entry H          line    40 file /home/liuchw/anaconda3/envs/psi4env/share/psi4/basis/aug-cc-pvqz.gbs 


         ---------------------------------------------------------
                                   SCF
               by Justin Turney, Rob Parrish, Andy Simmonett
                          and Daniel G. A. Smith
                              RHF Reference
                        6 Threads,  38146 MiB Core
         ---------------------------------------------------------

  ==> Geometry <==

    Molecular point group: c1
    Full point group: C1

    Geometry (in Angstrom), charge = 0, multiplicity = 1:

       Center              X                  Y                   Z               Mass       
    ------------   -----------------  -----------------  -----------------  -----------------
         C           -2.448234309265    -0.015208023269    -0.000098857933    12.000000000000
         H           -2.738805309265     1.030842976731    -0.000231857933     1.007825032230
         H           -1.858231309265    -0.226614023269    -0.886635857933     1.007825032230
         H           -1.859177309265    -0.226649023269     0.887061142067     1.007825032230
         H           -3.338399309265    -0.636362023269    -0.000577857933     1.007825032230

  Running in c1 symmetry.

  Rotational constants: A =      5.32282  B =      0.16982  C =      0.16981 [cm^-1]
  Rotational constants: A = 159574.09695  B =   5091.10294  C =   5090.91984 [MHz]
  Nuclear repulsion =   13.489467837064948

  Charge       = 0
  Multiplicity = 1
  Electrons    = 10
  Nalpha       = 5
  Nbeta        = 5

  ==> Algorithm <==

  SCF Algorithm Type is DF.
  DIIS enabled.
  MOM disabled.
  Fractional occupation disabled.
  Guess Type is SAD.
  Energy threshold   = 1.00e-07
  Density threshold  = 1.00e-08
  Integral threshold = 0.00e+00

  ==> Primary Basis <==

  Basis Set: AUG-CC-PVQZ
    Blend: AUG-CC-PVQZ
    Number of shells: 76
    Number of basis function: 264
    Number of Cartesian functions: 325
    Spherical Harmonics?: true
    Max angular momentum: 4

   => Loading Basis Set <=

    Name: (AUG-CC-PVQZ AUX)
    Role: JKFIT
    Keyword: DF_BASIS_SCF
    atoms 1   entry C          line   178 file /home/liuchw/anaconda3/envs/psi4env/share/psi4/basis/aug-cc-pvqz-jkfit.gbs 
    atoms 2-5 entry H          line    70 file /home/liuchw/anaconda3/envs/psi4env/share/psi4/basis/aug-cc-pvqz-jkfit.gbs 

  ==> Pre-Iterations <==

   -------------------------------------------------------
    Irrep   Nso     Nmo     Nalpha   Nbeta   Ndocc  Nsocc
   -------------------------------------------------------
     A        264     264       0       0       0       0
   -------------------------------------------------------
    Total     264     264       5       5       5       0
   -------------------------------------------------------

  ==> Integral Setup <==

  DFHelper Memory: AOs need 0.253 GiB; user supplied 27.940 GiB. Using in-core AOs.

  ==> MemDFJK: Density-Fitted J/K Matrices <==

    J tasked:                   Yes
    K tasked:                   Yes
    wK tasked:                   No
    OpenMP threads:               6
    Memory [MiB]:             28610
    Algorithm:                 Core
    Schwarz Cutoff:           1E-12
    Mask sparsity (%):       0.0000
    Fitting Condition:        1E-10

   => Auxiliary Basis Set <=

  Basis Set: (AUG-CC-PVQZ AUX)
    Blend: AUG-CC-PVQZ-JKFIT
    Number of shells: 106
    Number of basis function: 446
    Number of Cartesian functions: 602
    Spherical Harmonics?: true
    Max angular momentum: 5

  Minimum eigenvalue in the overlap matrix is 1.9100411557E-05.
  Using Symmetric Orthogonalization.

  SCF Guess: Superposition of Atomic Densities via on-the-fly atomic UHF.

  ==> Iterations <==

                           Total Energy        Delta E     RMS |[F,P]|

   @DF-RHF iter SAD:   -39.63602965086812   -3.96360e+01   0.00000e+00 
   @DF-RHF iter   1:   -40.13938410850033   -5.03354e-01   1.40124e-03 DIIS
   @DF-RHF iter   2:   -40.20393719088675   -6.45531e-02   5.84867e-04 DIIS
   @DF-RHF iter   3:   -40.21553542948492   -1.15982e-02   9.03004e-05 DIIS
   @DF-RHF iter   4:   -40.21629041774509   -7.54988e-04   1.11152e-05 DIIS
   @DF-RHF iter   5:   -40.21630126451515   -1.08468e-05   1.04629e-06 DIIS
   @DF-RHF iter   6:   -40.21630136643687   -1.01922e-07   8.84550e-08 DIIS
   @DF-RHF iter   7:   -40.21630136707208   -6.35211e-10   7.45727e-09 DIIS
  Energy and wave function converged.


  ==> Post-Iterations <==

    Orbital Energies [Eh]
    ---------------------

    Doubly Occupied:                                                      

       1A    -11.204181     2A     -0.944083     3A     -0.545927  
       4A     -0.545894     5A     -0.545622  

    Virtual:                                                              

       6A      0.027442     7A      0.045144     8A      0.045147  
       9A      0.045164    10A      0.106301    11A      0.106338  
      12A      0.106346    13A      0.123402    14A      0.185022  
      15A      0.185034    16A      0.185054    17A      0.207092  
      18A      0.207098    19A      0.268305    20A      0.271469  
      21A      0.271520    22A      0.271528    23A      0.280402  
      24A      0.280427    25A      0.280447    26A      0.292240  
      27A      0.292255    28A      0.292274    29A      0.332783  
      30A      0.392518    31A      0.392522    32A      0.392545  
      33A      0.392547    34A      0.392591    35A      0.547492  
      36A      0.547533    37A      0.547539    38A      0.553913  
      39A      0.553927    40A      0.608150    41A      0.682970  
      42A      0.683054    43A      0.683120    44A      0.714638  
      45A      0.714657    46A      0.714692    47A      0.730921  
      48A      0.730955    49A      0.730984    50A      0.748147  
      51A      0.770409    52A      0.770525    53A      0.770527  
      54A      0.799037    55A      0.799042    56A      0.799089  
      57A      0.883035    58A      0.883113    59A      0.883255  
      60A      0.884837    61A      0.911675    62A      0.911682  
      63A      0.986360    64A      0.986401    65A      1.067934  
      66A      1.067974    67A      1.068074    68A      1.111514  
      69A      1.147028    70A      1.147308    71A      1.147439  
      72A      1.231510    73A      1.231573    74A      1.231584  
      75A      1.368792    76A      1.368806    77A      1.368817  
      78A      1.497798    79A      1.498090    80A      1.498138  
      81A      1.519919    82A      1.558555    83A      1.558748  
      84A      1.558842    85A      1.650000    86A      1.650013  
      87A      1.825452    88A      1.825517    89A      1.825864  
      90A      1.847314    91A      1.847473    92A      1.847506  
      93A      1.886870    94A      1.901104    95A      1.901140  
      96A      1.910503    97A      1.910765    98A      1.911578  
      99A      1.954929   100A      1.999855   101A      2.000018  
     102A      2.000144   103A      2.010927   104A      2.011011  
     105A      2.071652   106A      2.072045   107A      2.072151  
     108A      2.098884   109A      2.099138   110A      2.099445  
     111A      2.156709   112A      2.173990   113A      2.241317  
     114A      2.241897   115A      2.242230   116A      2.292368  
     117A      2.292392   118A      2.292426   119A      2.410216  
     120A      2.410315   121A      2.410562   122A      2.652037  
     123A      2.652398   124A      2.652911   125A      2.693794  
     126A      2.693821   127A      2.795465   128A      2.795574  
     129A      2.795577   130A      2.800084   131A      2.800238  
     132A      2.800247   133A      2.803363   134A      2.979811  
     135A      2.979855   136A      3.010826   137A      3.010917  
     138A      3.010975   139A      3.151748   140A      3.152027  
     141A      3.152086   142A      3.195425   143A      3.366620  
     144A      3.366652   145A      3.686837   146A      3.686944  
     147A      3.687711   148A      3.687867   149A      3.688863  
     150A      3.689285   151A      3.865535   152A      3.884994  
     153A      3.885101   154A      3.885500   155A      4.006921  
     156A      4.007179   157A      4.007326   158A      4.117481  
     159A      4.117759   160A      4.118344   161A      4.174157  
     162A      4.261526   163A      4.261570   164A      4.301432  
     165A      4.301641   166A      4.301807   167A      4.308084  
     168A      4.308179   169A      4.726267   170A      4.726814  
     171A      4.726830   172A      4.926923   173A      4.927682  
     174A      4.928766   175A      5.154380   176A      6.103611  
     177A      6.103789   178A      6.140382   179A      6.141140  
     180A      6.141358   181A      6.228811   182A      6.228848  
     183A      6.228952   184A      6.491837   185A      6.727165  
     186A      6.805690   187A      6.805853   188A      6.805895  
     189A      6.872739   190A      6.872938   191A      6.873042  
     192A      6.902039   193A      6.904292   194A      6.906093  
     195A      6.993487   196A      6.994549   197A      6.994641  
     198A      7.206399   199A      7.206553   200A      7.206595  
     201A      7.371669   202A      7.522967   203A      7.586224  
     204A      7.586843   205A      7.587767   206A      7.771600  
     207A      7.771643   208A      7.860658   209A      7.862058  
     210A      7.864832   211A      7.880492   212A      7.881658  
     213A      7.882493   214A      8.084757   215A      8.084837  
     216A      8.490098   217A      8.490133   218A      8.490193  
     219A      8.528771   220A      8.559953   221A      8.560408  
     222A      8.643897   223A      8.644082   224A      8.644396  
     225A      9.106169   226A      9.106551   227A      9.107455  
     228A      9.195526   229A      9.195662   230A      9.195938  
     231A      9.284520   232A      9.284769   233A      9.284814  
     234A      9.434166   235A      9.434302   236A      9.435146  
     237A      9.593009   238A      9.593214   239A      9.721048  
     240A      9.968380   241A      9.968634   242A     10.053320  
     243A     10.053446   244A     10.053797   245A     10.256529  
     246A     10.256723   247A     10.257039   248A     10.303899  
     249A     10.303937   250A     10.600492   251A     10.601790  
     252A     10.602205   253A     10.939634   254A     10.970860  
     255A     10.971469   256A     10.972079   257A     11.515564  
     258A     11.515927   259A     11.517414   260A     13.198518  
     261A     13.199319   262A     13.200738   263A     13.824400  
     264A     29.697389  

    Final Occupation by Irrep:
              A 
    DOCC [     5 ]

  @DF-RHF Final Energy:   -40.21630136707208

   => Energetics <=

    Nuclear Repulsion Energy =             13.4894678370649483
    One-Electron Energy =                 -79.8401281143374177
    Two-Electron Energy =                  26.1343589102003833
    Total Energy =                        -40.2163013670720844

Computation Completed


Properties will be evaluated at   0.000000,   0.000000,   0.000000 [a0]

Properties computed using the SCF density matrix

  Nuclear Dipole Moment: [e a0]
     X:   -46.2681      Y:    -0.2835      Z:    -0.0018

  Electronic Dipole Moment: [e a0]
     X:    46.2678      Y:     0.2837      Z:     0.0018

  Dipole Moment: [e a0]
     X:    -0.0003      Y:     0.0002      Z:     0.0000     Total:     0.0003

  Dipole Moment: [D]
     X:    -0.0007      Y:     0.0005      Z:     0.0000     Total:     0.0008


*** tstop() called on node43.bme.utexas.edu at Sat Apr 11 16:29:59 2020
Module time:
	user time   =      11.71 seconds =       0.20 minutes
	system time =       0.58 seconds =       0.01 minutes
	total time  =          2 seconds =       0.03 minutes
Total time:
	user time   =      20.58 seconds =       0.34 minutes
	system time =       1.11 seconds =       0.02 minutes
	total time  =          5 seconds =       0.08 minutes

*** tstart() called on node43.bme.utexas.edu
*** at Sat Apr 11 16:29:59 2020


  //>>>>>>>>>>>>>>>>>>>>>>>>>>>>>>>>>>>//
  //               DFMP2               //
  //<<<<<<<<<<<<<<<<<<<<<<<<<<<<<<<<<<<//

   => Loading Basis Set <=

    Name: (AUG-CC-PVQZ AUX)
    Role: RIFIT
    Keyword: DF_BASIS_MP2
    atoms 1   entry C          line   184 file /home/liuchw/anaconda3/envs/psi4env/share/psi4/basis/aug-cc-pvqz-ri.gbs 
    atoms 2-5 entry H          line    30 file /home/liuchw/anaconda3/envs/psi4env/share/psi4/basis/aug-cc-pvqz-ri.gbs 

	 --------------------------------------------------------
	                          DF-MP2                         
	      2nd-Order Density-Fitted Moller-Plesset Theory     
	              RMP2 Wavefunction,   6 Threads             
	                                                         
	        Rob Parrish, Justin Turney, Andy Simmonett,      
	           Ed Hohenstein, and C. David Sherrill          
	 --------------------------------------------------------

   => Auxiliary Basis Set <=

  Basis Set: (AUG-CC-PVQZ AUX)
    Blend: AUG-CC-PVQZ-RI
    Number of shells: 116
    Number of basis function: 488
    Number of Cartesian functions: 657
    Spherical Harmonics?: true
    Max angular momentum: 5

	 --------------------------------------------------------
	                 NBF =   264, NAUX =   488
	 --------------------------------------------------------
	   CLASS    FOCC     OCC    AOCC    AVIR     VIR    FVIR
	   PAIRS       0       5       5     259     259       0
	 --------------------------------------------------------

	-----------------------------------------------------------
	 ==================> DF-MP2 Energies <==================== 
	-----------------------------------------------------------
	 Reference Energy          =     -40.2163013670720844 [Eh]
	 Singles Energy            =      -0.0000000000000000 [Eh]
	 Same-Spin Energy          =      -0.0416051363825781 [Eh]
	 Opposite-Spin Energy      =      -0.1986591541883965 [Eh]
	 Correlation Energy        =      -0.2402642905709746 [Eh]
	 Total Energy              =     -40.4565656576430612 [Eh]
	-----------------------------------------------------------
	 ================> DF-SCS-MP2 Energies <================== 
	-----------------------------------------------------------
	 SCS Same-Spin Scale       =       0.3333333333333333 [-]
	 SCS Opposite-Spin Scale   =       1.2000000000000000 [-]
	 SCS Same-Spin Energy      =      -0.0138683787941927 [Eh]
	 SCS Opposite-Spin Energy  =      -0.2383909850260758 [Eh]
	 SCS Correlation Energy    =      -0.2522593638202685 [Eh]
	 SCS Total Energy          =     -40.4685607308923494 [Eh]
	-----------------------------------------------------------


*** tstop() called on node43.bme.utexas.edu at Sat Apr 11 16:30:00 2020
Module time:
	user time   =       5.45 seconds =       0.09 minutes
	system time =       0.25 seconds =       0.00 minutes
	total time  =          1 seconds =       0.02 minutes
Total time:
	user time   =      26.03 seconds =       0.43 minutes
	system time =       1.36 seconds =       0.02 minutes
	total time  =          6 seconds =       0.10 minutes

  //>>>>>>>>>>>>>>>>>>>>>>>>>>>>>>>>>>>//
  //  CBS Results: mp2/aug-cc-pv[tq]z  //
  //<<<<<<<<<<<<<<<<<<<<<<<<<<<<<<<<<<<//


   ==> HF <==

   HI-zeta (4) Energy:               -40.216301367072


   ==> Helgaker 2-point correlated extrapolation for method: MP2 <==

   LO-zeta (3) Energy:               -40.432949700791
   HI-zeta (4) Energy:               -40.456565657643
   Alpha (exponent) Value:             3.000000000000
   Extrapolated Energy:              -40.473798923454

   @Extrapolated MP2/(T,Q):          -40.473798923454



   ==> Helgaker 2-point correlated extrapolation for method: HF <==

   LO-zeta (3) Energy:               -40.213669821798
   HI-zeta (4) Energy:               -40.216301367072
   Alpha (exponent) Value:             3.000000000000
   Extrapolated Energy:              -40.218221683894

   @Extrapolated HF/(T,Q):           -40.218221683894


   ==> Components <==

  ---------------------------------------------------------------------------------------------------------
                          Method / Basis                      Rqd      Energy [Eh]   Variable
  ---------------------------------------------------------------------------------------------------------
                              hf / aug-cc-pvtz                  *     -40.21366982   HF TOTAL ENERGY
                             mp2 / aug-cc-pvtz                  *     -40.43294970   MP2 TOTAL ENERGY
                              hf / aug-cc-pvqz                  *     -40.21630137   HF TOTAL ENERGY
                             mp2 / aug-cc-pvqz                  *     -40.45656566   MP2 TOTAL ENERGY
  ---------------------------------------------------------------------------------------------------------

   ==> Stages <==

  ---------------------------------------------------------------------------------------------------------
      Stage               Method / Basis                       Wt      Energy [Eh]   Scheme
  ---------------------------------------------------------------------------------------------------------
        scf                   hf / aug-cc-pvqz                  1     -40.21630137   xtpl_highest_1
       corl                  mp2 / aug-cc-pv[tq]z               1     -40.47379892   corl_xtpl_helgaker_2
       corl                   hf / aug-cc-pv[tq]z              -1     -40.21822168   corl_xtpl_helgaker_2
  ---------------------------------------------------------------------------------------------------------

   ==> CBS <==

  ---------------------------------------------------------------------------------------------------------
      Stage               Method / Basis                               Energy [Eh]   Scheme
  ---------------------------------------------------------------------------------------------------------
        scf                   hf / aug-cc-pvqz                        -40.21630137   xtpl_highest_1
       corl                  mp2 / aug-cc-pv[tq]z                      -0.25557724   corl_xtpl_helgaker_2
      total                  CBS                                      -40.47187861   
  ---------------------------------------------------------------------------------------------------------
   => Loading Basis Set <=

    Name: DEF2-SVP
    Role: ORBITAL
    Keyword: BASIS
    atoms 1   entry C          line    90 file /home/liuchw/anaconda3/envs/psi4env/share/psi4/basis/def2-svp.gbs 
    atoms 2-5 entry H          line    15 file /home/liuchw/anaconda3/envs/psi4env/share/psi4/basis/def2-svp.gbs 


       N-Body: Complex Energy (fragments = (2,), basis = (2,):   -40.47187860663268)

       N-Body: Computing complex (2/4) with fragments (2,) in the basis of fragments (1, 2).


Scratch directory: /scratch//

  //>>>>>>>>>>>>>>>>>>>>>>>>>>>>>>>>>>>//
  //   CBS Setup: mp2/aug-cc-pv[tq]z   //
  //<<<<<<<<<<<<<<<<<<<<<<<<<<<<<<<<<<<//

    Naive listing of computations required.
             hf / aug-cc-pvqz              for  HF TOTAL ENERGY
            mp2 / aug-cc-pvtz              for  MP2 TOTAL ENERGY
            mp2 / aug-cc-pvqz              for  MP2 TOTAL ENERGY
             hf / aug-cc-pvtz              for  HF TOTAL ENERGY
             hf / aug-cc-pvqz              for  HF TOTAL ENERGY

    Enlightened listing of computations required.
            mp2 / aug-cc-pvtz              for  MP2 TOTAL ENERGY
            mp2 / aug-cc-pvqz              for  MP2 TOTAL ENERGY

    Full listing of computations to be obtained (required and bonus).
             hf / aug-cc-pvtz              for  HF TOTAL ENERGY
            mp2 / aug-cc-pvtz              for  MP2 TOTAL ENERGY
             hf / aug-cc-pvqz              for  HF TOTAL ENERGY
            mp2 / aug-cc-pvqz              for  MP2 TOTAL ENERGY

  //>>>>>>>>>>>>>>>>>>>>>>>>>>>>>>>>>>>>//
  // CBS Computation: MP2 / AUG-CC-PVTZ //
  //<<<<<<<<<<<<<<<<<<<<<<<<<<<<<<<<<<<<//


Scratch directory: /scratch//

*** tstart() called on node43.bme.utexas.edu
*** at Sat Apr 11 16:30:01 2020

   => Loading Basis Set <=

    Name: AUG-CC-PVTZ
    Role: ORBITAL
    Keyword: BASIS
    atoms 1, 4, 7        entry C          line   239 file /home/liuchw/anaconda3/envs/psi4env/share/psi4/basis/aug-cc-pvtz.gbs 
    atoms 2-3, 5-6, 8-11 entry H          line    40 file /home/liuchw/anaconda3/envs/psi4env/share/psi4/basis/aug-cc-pvtz.gbs 


         ---------------------------------------------------------
                                   SCF
               by Justin Turney, Rob Parrish, Andy Simmonett
                          and Daniel G. A. Smith
                              RHF Reference
                        6 Threads,  38146 MiB Core
         ---------------------------------------------------------

  ==> Geometry <==

    Molecular point group: c1
    Full point group: C1

    Geometry (in Angstrom), charge = 0, multiplicity = 1:

       Center              X                  Y                   Z               Mass       
    ------------   -----------------  -----------------  -----------------  -----------------
      Gh(C)           1.353245690735     0.673050976731     0.000070142067    12.000000000000
      Gh(H)           2.234562690735     1.298208976731    -0.000901857933     1.007825032230
      Gh(H)           0.392695690735     1.167729976731     0.001065142067     1.007825032230
      Gh(C)           1.447225690735    -0.655761023269     0.000042142067    12.000000000000
      Gh(H)           0.565855690735    -1.280770023269     0.001015142067     1.007825032230
      Gh(H)           2.407472690735    -1.151176023269    -0.000953857933     1.007825032230
         C           -2.448234309265    -0.015208023269    -0.000098857933    12.000000000000
         H           -2.738805309265     1.030842976731    -0.000231857933     1.007825032230
         H           -1.858231309265    -0.226614023269    -0.886635857933     1.007825032230
         H           -1.859177309265    -0.226649023269     0.887061142067     1.007825032230
         H           -3.338399309265    -0.636362023269    -0.000577857933     1.007825032230

  Running in c1 symmetry.

  Rotational constants: A =      0.85017  B =      0.10688  C =      0.09667 [cm^-1]
  Rotational constants: A =  25487.48290  B =   3204.12542  C =   2898.05655 [MHz]
  Nuclear repulsion =   13.489467837064948

  Charge       = 0
  Multiplicity = 1
  Electrons    = 10
  Nalpha       = 5
  Nbeta        = 5

  ==> Algorithm <==

  SCF Algorithm Type is DF.
  DIIS enabled.
  MOM disabled.
  Fractional occupation disabled.
  Guess Type is SAD.
  Energy threshold   = 1.00e-07
  Density threshold  = 1.00e-08
  Integral threshold = 0.00e+00

  ==> Primary Basis <==

  Basis Set: AUG-CC-PVTZ
    Blend: AUG-CC-PVTZ
    Number of shells: 114
    Number of basis function: 322
    Number of Cartesian functions: 365
    Spherical Harmonics?: true
    Max angular momentum: 3

   => Loading Basis Set <=

    Name: (AUG-CC-PVTZ AUX)
    Role: JKFIT
    Keyword: DF_BASIS_SCF
    atoms 1, 4, 7        entry C          line   162 file /home/liuchw/anaconda3/envs/psi4env/share/psi4/basis/aug-cc-pvtz-jkfit.gbs 
    atoms 2-3, 5-6, 8-11 entry H          line    70 file /home/liuchw/anaconda3/envs/psi4env/share/psi4/basis/aug-cc-pvtz-jkfit.gbs 

  ==> Pre-Iterations <==

   -------------------------------------------------------
    Irrep   Nso     Nmo     Nalpha   Nbeta   Ndocc  Nsocc
   -------------------------------------------------------
     A        322     322       0       0       0       0
   -------------------------------------------------------
    Total     322     322       5       5       5       0
   -------------------------------------------------------

  ==> Integral Setup <==

  DFHelper Memory: AOs need 0.535 GiB; user supplied 27.940 GiB. Using in-core AOs.

  ==> MemDFJK: Density-Fitted J/K Matrices <==

    J tasked:                   Yes
    K tasked:                   Yes
    wK tasked:                   No
    OpenMP threads:               6
    Memory [MiB]:             28610
    Algorithm:                 Core
    Schwarz Cutoff:           1E-12
    Mask sparsity (%):       3.5782
    Fitting Condition:        1E-10

   => Auxiliary Basis Set <=

  Basis Set: (AUG-CC-PVTZ AUX)
    Blend: AUG-CC-PVTZ-JKFIT
    Number of shells: 202
    Number of basis function: 680
    Number of Cartesian functions: 833
    Spherical Harmonics?: true
    Max angular momentum: 4

  Minimum eigenvalue in the overlap matrix is 2.7983407100E-06.
  Using Symmetric Orthogonalization.

  SCF Guess: Superposition of Atomic Densities via on-the-fly atomic UHF.

  ==> Iterations <==

                           Total Energy        Delta E     RMS |[F,P]|

   @DF-RHF iter SAD:   -39.63359887724379   -3.96336e+01   0.00000e+00 
   @DF-RHF iter   1:   -40.13700072865797   -5.03402e-01   1.14726e-03 DIIS
   @DF-RHF iter   2:   -40.20138598604195   -6.43853e-02   4.77940e-04 DIIS
   @DF-RHF iter   3:   -40.21292875468622   -1.15428e-02   7.35838e-05 DIIS
   @DF-RHF iter   4:   -40.21367671912986   -7.47964e-04   9.01630e-06 DIIS
   @DF-RHF iter   5:   -40.21368724520662   -1.05261e-05   8.08679e-07 DIIS
   @DF-RHF iter   6:   -40.21368733860506   -9.33984e-08   7.11138e-08 DIIS
   @DF-RHF iter   7:   -40.21368733920122   -5.96167e-10   6.38030e-09 DIIS
  Energy and wave function converged.


  ==> Post-Iterations <==

    Orbital Energies [Eh]
    ---------------------

    Doubly Occupied:                                                      

       1A    -11.205141     2A     -0.944162     3A     -0.545738  
       4A     -0.545707     5A     -0.545434  

    Virtual:                                                              

       6A      0.022809     7A      0.036251     8A      0.037438  
       9A      0.049571    10A      0.054747    11A      0.056891  
      12A      0.076262    13A      0.079832    14A      0.092073  
      15A      0.096736    16A      0.104909    17A      0.115898  
      18A      0.124788    19A      0.129290    20A      0.136482  
      21A      0.137874    22A      0.152633    23A      0.161262  
      24A      0.179983    25A      0.186173    26A      0.213906  
      27A      0.227919    28A      0.231683    29A      0.240823  
      30A      0.258541    31A      0.269838    32A      0.283287  
      33A      0.287714    34A      0.295463    35A      0.305530  
      36A      0.314606    37A      0.318166    38A      0.323038  
      39A      0.327901    40A      0.333788    41A      0.337833  
      42A      0.342312    43A      0.349802    44A      0.354438  
      45A      0.363939    46A      0.377985    47A      0.384401  
      48A      0.389727    49A      0.405180    50A      0.410262  
      51A      0.410872    52A      0.420718    53A      0.433607  
      54A      0.433845    55A      0.448095    56A      0.456542  
      57A      0.467657    58A      0.484823    59A      0.486551  
      60A      0.494315    61A      0.507091    62A      0.513932  
      63A      0.524484    64A      0.536029    65A      0.543497  
      66A      0.550659    67A      0.563435    68A      0.590294  
      69A      0.611513    70A      0.612900    71A      0.617209  
      72A      0.629730    73A      0.631284    74A      0.655413  
      75A      0.678566    76A      0.691474    77A      0.700160  
      78A      0.718436    79A      0.751925    80A      0.762896  
      81A      0.809485    82A      0.816729    83A      0.824497  
      84A      0.835331    85A      0.872773    86A      0.873652  
      87A      0.890565    88A      0.894267    89A      0.902897  
      90A      0.912694    91A      0.943613    92A      0.946870  
      93A      0.969185    94A      0.971417    95A      0.983538  
      96A      0.985435    97A      0.993333    98A      1.004620  
      99A      1.006037   100A      1.007819   101A      1.028547  
     102A      1.028952   103A      1.040528   104A      1.050790  
     105A      1.066546   106A      1.074521   107A      1.083755  
     108A      1.083959   109A      1.094199   110A      1.108393  
     111A      1.112799   112A      1.116057   113A      1.130348  
     114A      1.149763   115A      1.160961   116A      1.173110  
     117A      1.181330   118A      1.182152   119A      1.192820  
     120A      1.200123   121A      1.214618   122A      1.215156  
     123A      1.233441   124A      1.238531   125A      1.249512  
     126A      1.254689   127A      1.265504   128A      1.273344  
     129A      1.299559   130A      1.322029   131A      1.322629  
     132A      1.327795   133A      1.357104   134A      1.383981  
     135A      1.389141   136A      1.392452   137A      1.467407  
     138A      1.470926   139A      1.493050   140A      1.499956  
     141A      1.506635   142A      1.510094   143A      1.551998  
     144A      1.566153   145A      1.572645   146A      1.598945  
     147A      1.600745   148A      1.620424   149A      1.629266  
     150A      1.645423   151A      1.656068   152A      1.670827  
     153A      1.686691   154A      1.697117   155A      1.726681  
     156A      1.739846   157A      1.790950   158A      1.804382  
     159A      1.817105   160A      1.835650   161A      1.872846  
     162A      1.882346   163A      1.889148   164A      1.922797  
     165A      1.932131   166A      1.946948   167A      1.956660  
     168A      1.977922   169A      1.984971   170A      2.040513  
     171A      2.047975   172A      2.075795   173A      2.085005  
     174A      2.135796   175A      2.149775   176A      2.164378  
     177A      2.181216   178A      2.184597   179A      2.188266  
     180A      2.209973   181A      2.231008   182A      2.241655  
     183A      2.291431   184A      2.300937   185A      2.305212  
     186A      2.313348   187A      2.328694   188A      2.357333  
     189A      2.369196   190A      2.395237   191A      2.513996  
     192A      2.540854   193A      2.605379   194A      2.674859  
     195A      2.725172   196A      2.770414   197A      2.800907  
     198A      2.905687   199A      3.126327   200A      3.251840  
     201A      3.285119   202A      3.308151   203A      3.317775  
     204A      3.407162   205A      3.523035   206A      3.586580  
     207A      3.598141   208A      3.600520   209A      3.621042  
     210A      3.637108   211A      3.673433   212A      3.728107  
     213A      3.804466   214A      3.865551   215A      3.903505  
     216A      3.929483   217A      3.943655   218A      3.948135  
     219A      3.973585   220A      4.037962   221A      4.042413  
     222A      4.043855   223A      4.067741   224A      4.072680  
     225A      4.076798   226A      4.090321   227A      4.103658  
     228A      4.105268   229A      4.153273   230A      4.160435  
     231A      4.161133   232A      4.170939   233A      4.181556  
     234A      4.194311   235A      4.195691   236A      4.249997  
     237A      4.250406   238A      4.316496   239A      4.320228  
     240A      4.360004   241A      4.445184   242A      4.488503  
     243A      4.538810   244A      4.554790   245A      4.567577  
     246A      4.596512   247A      4.633131   248A      4.659456  
     249A      4.677907   250A      4.722299   251A      4.731276  
     252A      4.776272   253A      4.830270   254A      4.846250  
     255A      4.856105   256A      4.864778   257A      4.868152  
     258A      4.870113   259A      4.884564   260A      4.906567  
     261A      4.927804   262A      4.950643   263A      4.962535  
     264A      4.978808   265A      5.013822   266A      5.037704  
     267A      5.048522   268A      5.111078   269A      5.144690  
     270A      5.206537   271A      5.211571   272A      5.218783  
     273A      5.367673   274A      5.403841   275A      5.441625  
     276A      5.457587   277A      5.492502   278A      5.514649  
     279A      5.534672   280A      5.550708   281A      5.595058  
     282A      5.652718   283A      5.663809   284A      5.671772  
     285A      5.702910   286A      5.712856   287A      5.740557  
     288A      5.833135   289A      5.838409   290A      5.852886  
     291A      5.876060   292A      5.897899   293A      5.923159  
     294A      6.001718   295A      6.075246   296A      6.102626  
     297A      6.215513   298A      6.243888   299A      6.256417  
     300A      6.263435   301A      6.270127   302A      6.494577  
     303A      6.615041   304A      6.651117   305A      6.677823  
     306A      6.747207   307A      6.992487   308A      7.097688  
     309A      7.161667   310A      7.584690   311A      7.640722  
     312A      7.721373   313A      7.881605   314A      8.104061  
     315A      8.345425   316A      8.385392   317A      8.878920  
     318A     10.609742   319A     10.944116   320A     18.217228  
     321A     50.945647   322A     52.261286  

    Final Occupation by Irrep:
              A 
    DOCC [     5 ]

  @DF-RHF Final Energy:   -40.21368733920122

   => Energetics <=

    Nuclear Repulsion Energy =             13.4894678370649483
    One-Electron Energy =                 -79.8339501468632022
    Two-Electron Energy =                  26.1307949705970302
    Total Energy =                        -40.2136873392012220

Computation Completed


Properties will be evaluated at   0.000000,   0.000000,   0.000000 [a0]

Properties computed using the SCF density matrix

  Nuclear Dipole Moment: [e a0]
     X:   -46.2681      Y:    -0.2835      Z:    -0.0018

  Electronic Dipole Moment: [e a0]
     X:    46.2677      Y:     0.2837      Z:     0.0018

  Dipole Moment: [e a0]
     X:    -0.0003      Y:     0.0002      Z:     0.0000     Total:     0.0004

  Dipole Moment: [D]
     X:    -0.0009      Y:     0.0005      Z:     0.0000     Total:     0.0010


*** tstop() called on node43.bme.utexas.edu at Sat Apr 11 16:30:04 2020
Module time:
	user time   =      16.61 seconds =       0.28 minutes
	system time =       0.65 seconds =       0.01 minutes
	total time  =          3 seconds =       0.05 minutes
Total time:
	user time   =      44.00 seconds =       0.73 minutes
	system time =       2.06 seconds =       0.03 minutes
	total time  =         10 seconds =       0.17 minutes

*** tstart() called on node43.bme.utexas.edu
*** at Sat Apr 11 16:30:04 2020


  //>>>>>>>>>>>>>>>>>>>>>>>>>>>>>>>>>>>//
  //               DFMP2               //
  //<<<<<<<<<<<<<<<<<<<<<<<<<<<<<<<<<<<//

   => Loading Basis Set <=

    Name: (AUG-CC-PVTZ AUX)
    Role: RIFIT
    Keyword: DF_BASIS_MP2
    atoms 1, 4, 7        entry C          line   148 file /home/liuchw/anaconda3/envs/psi4env/share/psi4/basis/aug-cc-pvtz-ri.gbs 
    atoms 2-3, 5-6, 8-11 entry H          line    30 file /home/liuchw/anaconda3/envs/psi4env/share/psi4/basis/aug-cc-pvtz-ri.gbs 

	 --------------------------------------------------------
	                          DF-MP2                         
	      2nd-Order Density-Fitted Moller-Plesset Theory     
	              RMP2 Wavefunction,   6 Threads             
	                                                         
	        Rob Parrish, Justin Turney, Andy Simmonett,      
	           Ed Hohenstein, and C. David Sherrill          
	 --------------------------------------------------------

   => Auxiliary Basis Set <=

  Basis Set: (AUG-CC-PVTZ AUX)
    Blend: AUG-CC-PVTZ-RI
    Number of shells: 196
    Number of basis function: 686
    Number of Cartesian functions: 848
    Spherical Harmonics?: true
    Max angular momentum: 4

	 --------------------------------------------------------
	                 NBF =   322, NAUX =   686
	 --------------------------------------------------------
	   CLASS    FOCC     OCC    AOCC    AVIR     VIR    FVIR
	   PAIRS       0       5       5     317     317       0
	 --------------------------------------------------------

	-----------------------------------------------------------
	 ==================> DF-MP2 Energies <==================== 
	-----------------------------------------------------------
	 Reference Energy          =     -40.2136873392012220 [Eh]
	 Singles Energy            =      -0.0000000000000000 [Eh]
	 Same-Spin Energy          =      -0.0392518606488184 [Eh]
	 Opposite-Spin Energy      =      -0.1804175536813332 [Eh]
	 Correlation Energy        =      -0.2196694143301516 [Eh]
	 Total Energy              =     -40.4333567535313705 [Eh]
	-----------------------------------------------------------
	 ================> DF-SCS-MP2 Energies <================== 
	-----------------------------------------------------------
	 SCS Same-Spin Scale       =       0.3333333333333333 [-]
	 SCS Opposite-Spin Scale   =       1.2000000000000000 [-]
	 SCS Same-Spin Energy      =      -0.0130839535496061 [Eh]
	 SCS Opposite-Spin Energy  =      -0.2165010644175998 [Eh]
	 SCS Correlation Energy    =      -0.2295850179672060 [Eh]
	 SCS Total Energy          =     -40.4432723571684249 [Eh]
	-----------------------------------------------------------


*** tstop() called on node43.bme.utexas.edu at Sat Apr 11 16:30:06 2020
Module time:
	user time   =       8.19 seconds =       0.14 minutes
	system time =       0.34 seconds =       0.01 minutes
	total time  =          2 seconds =       0.03 minutes
Total time:
	user time   =      52.20 seconds =       0.87 minutes
	system time =       2.40 seconds =       0.04 minutes
	total time  =         12 seconds =       0.20 minutes

  //>>>>>>>>>>>>>>>>>>>>>>>>>>>>>>>>>>>>//
  // CBS Computation: MP2 / AUG-CC-PVQZ //
  //<<<<<<<<<<<<<<<<<<<<<<<<<<<<<<<<<<<<//


Scratch directory: /scratch//

*** tstart() called on node43.bme.utexas.edu
*** at Sat Apr 11 16:30:06 2020

   => Loading Basis Set <=

    Name: AUG-CC-PVQZ
    Role: ORBITAL
    Keyword: BASIS
    atoms 1, 4, 7        entry C          line   303 file /home/liuchw/anaconda3/envs/psi4env/share/psi4/basis/aug-cc-pvqz.gbs 
    atoms 2-3, 5-6, 8-11 entry H          line    40 file /home/liuchw/anaconda3/envs/psi4env/share/psi4/basis/aug-cc-pvqz.gbs 


         ---------------------------------------------------------
                                   SCF
               by Justin Turney, Rob Parrish, Andy Simmonett
                          and Daniel G. A. Smith
                              RHF Reference
                        6 Threads,  38146 MiB Core
         ---------------------------------------------------------

  ==> Geometry <==

    Molecular point group: c1
    Full point group: C1

    Geometry (in Angstrom), charge = 0, multiplicity = 1:

       Center              X                  Y                   Z               Mass       
    ------------   -----------------  -----------------  -----------------  -----------------
      Gh(C)           1.353245690735     0.673050976731     0.000070142067    12.000000000000
      Gh(H)           2.234562690735     1.298208976731    -0.000901857933     1.007825032230
      Gh(H)           0.392695690735     1.167729976731     0.001065142067     1.007825032230
      Gh(C)           1.447225690735    -0.655761023269     0.000042142067    12.000000000000
      Gh(H)           0.565855690735    -1.280770023269     0.001015142067     1.007825032230
      Gh(H)           2.407472690735    -1.151176023269    -0.000953857933     1.007825032230
         C           -2.448234309265    -0.015208023269    -0.000098857933    12.000000000000
         H           -2.738805309265     1.030842976731    -0.000231857933     1.007825032230
         H           -1.858231309265    -0.226614023269    -0.886635857933     1.007825032230
         H           -1.859177309265    -0.226649023269     0.887061142067     1.007825032230
         H           -3.338399309265    -0.636362023269    -0.000577857933     1.007825032230

  Running in c1 symmetry.

  Rotational constants: A =      0.85017  B =      0.10688  C =      0.09667 [cm^-1]
  Rotational constants: A =  25487.48290  B =   3204.12542  C =   2898.05655 [MHz]
  Nuclear repulsion =   13.489467837064948

  Charge       = 0
  Multiplicity = 1
  Electrons    = 10
  Nalpha       = 5
  Nbeta        = 5

  ==> Algorithm <==

  SCF Algorithm Type is DF.
  DIIS enabled.
  MOM disabled.
  Fractional occupation disabled.
  Guess Type is SAD.
  Energy threshold   = 1.00e-07
  Density threshold  = 1.00e-08
  Integral threshold = 0.00e+00

  ==> Primary Basis <==

  Basis Set: AUG-CC-PVQZ
    Blend: AUG-CC-PVQZ
    Number of shells: 172
    Number of basis function: 608
    Number of Cartesian functions: 755
    Spherical Harmonics?: true
    Max angular momentum: 4

   => Loading Basis Set <=

    Name: (AUG-CC-PVQZ AUX)
    Role: JKFIT
    Keyword: DF_BASIS_SCF
    atoms 1, 4, 7        entry C          line   178 file /home/liuchw/anaconda3/envs/psi4env/share/psi4/basis/aug-cc-pvqz-jkfit.gbs 
    atoms 2-3, 5-6, 8-11 entry H          line    70 file /home/liuchw/anaconda3/envs/psi4env/share/psi4/basis/aug-cc-pvqz-jkfit.gbs 

  ==> Pre-Iterations <==

   -------------------------------------------------------
    Irrep   Nso     Nmo     Nalpha   Nbeta   Ndocc  Nsocc
   -------------------------------------------------------
     A        608     608       0       0       0       0
   -------------------------------------------------------
    Total     608     608       5       5       5       0
   -------------------------------------------------------

  ==> Integral Setup <==

  DFHelper Memory: AOs need 2.761 GiB; user supplied 27.940 GiB. Using in-core AOs.

  ==> MemDFJK: Density-Fitted J/K Matrices <==

    J tasked:                   Yes
    K tasked:                   Yes
    wK tasked:                   No
    OpenMP threads:               6
    Memory [MiB]:             28610
    Algorithm:                 Core
    Schwarz Cutoff:           1E-12
    Mask sparsity (%):       7.1178
    Fitting Condition:        1E-10

   => Auxiliary Basis Set <=

  Basis Set: (AUG-CC-PVQZ AUX)
    Blend: AUG-CC-PVQZ-JKFIT
    Number of shells: 246
    Number of basis function: 1034
    Number of Cartesian functions: 1402
    Spherical Harmonics?: true
    Max angular momentum: 5

  Minimum eigenvalue in the overlap matrix is 1.7412446133E-06.
  Using Symmetric Orthogonalization.

  SCF Guess: Superposition of Atomic Densities via on-the-fly atomic UHF.

  ==> Iterations <==

                           Total Energy        Delta E     RMS |[F,P]|

   @DF-RHF iter SAD:   -39.63602964969034   -3.96360e+01   0.00000e+00 
   @DF-RHF iter   1:   -40.13939163540069   -5.03362e-01   6.08436e-04 DIIS
   @DF-RHF iter   2:   -40.20394697244939   -6.45553e-02   2.53958e-04 DIIS
   @DF-RHF iter   3:   -40.21554567090288   -1.15987e-02   3.92126e-05 DIIS
   @DF-RHF iter   4:   -40.21630088192177   -7.55211e-04   4.82754e-06 DIIS
   @DF-RHF iter   5:   -40.21631173659402   -1.08547e-05   4.54543e-07 DIIS
   @DF-RHF iter   6:   -40.21631183865107   -1.02057e-07   3.84696e-08 DIIS
   @DF-RHF iter   7:   -40.21631183928893   -6.37854e-10   3.24278e-09 DIIS
  Energy and wave function converged.


  ==> Post-Iterations <==

    Orbital Energies [Eh]
    ---------------------

    Doubly Occupied:                                                      

       1A    -11.204179     2A     -0.944080     3A     -0.545924  
       4A     -0.545895     5A     -0.545621  

    Virtual:                                                              

       6A      0.020607     7A      0.032531     8A      0.033726  
       9A      0.044393    10A      0.049172    11A      0.051509  
      12A      0.068068    13A      0.072201    14A      0.080721  
      15A      0.085838    16A      0.088928    17A      0.102214  
      18A      0.108392    19A      0.112167    20A      0.118011  
      21A      0.122642    22A      0.133493    23A      0.141337  
      24A      0.155732    25A      0.166611    26A      0.179231  
      27A      0.199316    28A      0.207881    29A      0.208869  
      30A      0.220821    31A      0.231088    32A      0.234716  
      33A      0.242531    34A      0.248207    35A      0.251610  
      36A      0.261734    37A      0.262732    38A      0.264489  
      39A      0.270575    40A      0.276210    41A      0.281552  
      42A      0.283437    43A      0.285941    44A      0.293222  
      45A      0.293977    46A      0.308922    47A      0.311569  
      48A      0.313661    49A      0.324255    50A      0.336065  
      51A      0.344039    52A      0.345846    53A      0.355459  
      54A      0.357365    55A      0.377277    56A      0.382684  
      57A      0.386291    58A      0.395048    59A      0.398655  
      60A      0.410859    61A      0.413593    62A      0.417911  
      63A      0.425881    64A      0.431250    65A      0.451178  
      66A      0.457625    67A      0.469597    68A      0.470713  
      69A      0.478200    70A      0.488132    71A      0.499196  
      72A      0.499930    73A      0.511772    74A      0.517862  
      75A      0.525938    76A      0.541363    77A      0.552687  
      78A      0.573752    79A      0.583780    80A      0.600341  
      81A      0.604298    82A      0.622513    83A      0.637222  
      84A      0.653386    85A      0.653657    86A      0.659781  
      87A      0.666803    88A      0.676098    89A      0.685907  
      90A      0.701883    91A      0.706120    92A      0.708442  
      93A      0.711535    94A      0.725909    95A      0.731669  
      96A      0.735216    97A      0.737187    98A      0.742904  
      99A      0.753868   100A      0.755555   101A      0.761265  
     102A      0.776293   103A      0.781786   104A      0.791208  
     105A      0.797688   106A      0.798690   107A      0.832194  
     108A      0.837511   109A      0.840579   110A      0.843009  
     111A      0.859797   112A      0.873343   113A      0.876907  
     114A      0.881716   115A      0.889804   116A      0.894011  
     117A      0.900144   118A      0.908431   119A      0.925661  
     120A      0.926702   121A      0.931047   122A      0.936025  
     123A      0.945767   124A      0.961871   125A      0.964825  
     126A      0.976026   127A      0.986605   128A      0.990677  
     129A      0.994324   130A      1.005249   131A      1.011846  
     132A      1.020696   133A      1.033940   134A      1.037761  
     135A      1.062574   136A      1.068432   137A      1.078161  
     138A      1.094180   139A      1.102437   140A      1.132398  
     141A      1.143531   142A      1.146939   143A      1.151406  
     144A      1.153918   145A      1.166256   146A      1.176593  
     147A      1.183349   148A      1.199931   149A      1.212199  
     150A      1.214299   151A      1.226927   152A      1.234270  
     153A      1.255929   154A      1.259810   155A      1.279362  
     156A      1.294759   157A      1.306631   158A      1.313283  
     159A      1.314282   160A      1.362888   161A      1.369252  
     162A      1.372663   163A      1.374588   164A      1.390544  
     165A      1.402186   166A      1.433561   167A      1.447536  
     168A      1.459683   169A      1.482880   170A      1.493861  
     171A      1.510134   172A      1.518593   173A      1.546309  
     174A      1.561533   175A      1.578832   176A      1.583736  
     177A      1.589129   178A      1.596517   179A      1.619791  
     180A      1.625079   181A      1.633896   182A      1.660182  
     183A      1.662615   184A      1.683648   185A      1.694418  
     186A      1.701836   187A      1.709489   188A      1.720685  
     189A      1.724430   190A      1.742895   191A      1.747438  
     192A      1.762433   193A      1.767004   194A      1.776098  
     195A      1.792339   196A      1.802878   197A      1.827060  
     198A      1.850793   199A      1.850948   200A      1.874839  
     201A      1.883510   202A      1.892281   203A      1.901221  
     204A      1.907399   205A      1.918072   206A      1.922785  
     207A      1.943703   208A      1.955148   209A      1.972892  
     210A      1.976355   211A      1.986709   212A      1.992054  
     213A      2.003830   214A      2.014461   215A      2.028525  
     216A      2.034020   217A      2.035537   218A      2.050515  
     219A      2.061159   220A      2.063009   221A      2.072127  
     222A      2.080048   223A      2.097826   224A      2.102031  
     225A      2.112262   226A      2.137962   227A      2.143348  
     228A      2.145560   229A      2.152332   230A      2.159076  
     231A      2.165953   232A      2.171075   233A      2.178539  
     234A      2.190300   235A      2.213217   236A      2.215534  
     237A      2.230318   238A      2.233071   239A      2.253807  
     240A      2.259116   241A      2.268089   242A      2.279978  
     243A      2.283268   244A      2.293240   245A      2.304258  
     246A      2.320425   247A      2.337296   248A      2.349262  
     249A      2.359592   250A      2.365031   251A      2.373064  
     252A      2.383050   253A      2.401708   254A      2.415842  
     255A      2.422166   256A      2.432313   257A      2.437437  
     258A      2.463391   259A      2.491775   260A      2.514457  
     261A      2.518048   262A      2.538524   263A      2.562114  
     264A      2.571806   265A      2.587580   266A      2.602773  
     267A      2.635524   268A      2.650599   269A      2.658756  
     270A      2.658985   271A      2.674663   272A      2.698807  
     273A      2.713057   274A      2.713419   275A      2.726891  
     276A      2.752972   277A      2.762671   278A      2.763565  
     279A      2.793220   280A      2.798642   281A      2.814801  
     282A      2.827924   283A      2.843615   284A      2.844893  
     285A      2.864860   286A      2.892992   287A      2.893739  
     288A      2.920389   289A      2.926098   290A      2.928124  
     291A      2.957049   292A      2.965411   293A      2.989525  
     294A      3.008431   295A      3.031765   296A      3.033589  
     297A      3.052263   298A      3.072987   299A      3.073605  
     300A      3.090506   301A      3.105119   302A      3.107786  
     303A      3.127668   304A      3.131943   305A      3.136791  
     306A      3.157912   307A      3.158197   308A      3.186002  
     309A      3.208603   310A      3.215507   311A      3.226698  
     312A      3.240519   313A      3.256348   314A      3.281162  
     315A      3.298915   316A      3.300769   317A      3.321029  
     318A      3.359066   319A      3.404301   320A      3.415583  
     321A      3.421954   322A      3.480987   323A      3.518771  
     324A      3.549803   325A      3.589127   326A      3.660404  
     327A      3.676535   328A      3.691971   329A      3.699913  
     330A      3.709624   331A      3.716537   332A      3.723210  
     333A      3.731157   334A      3.736021   335A      3.754195  
     336A      3.763154   337A      3.799574   338A      3.804484  
     339A      3.884672   340A      3.891107   341A      3.911651  
     342A      3.923876   343A      3.936404   344A      3.954055  
     345A      3.980124   346A      3.998330   347A      4.025794  
     348A      4.035395   349A      4.049099   350A      4.051684  
     351A      4.084247   352A      4.095493   353A      4.109768  
     354A      4.155321   355A      4.166219   356A      4.181238  
     357A      4.191468   358A      4.224716   359A      4.250745  
     360A      4.308466   361A      4.322271   362A      4.328478  
     363A      4.349258   364A      4.355671   365A      4.368626  
     366A      4.391676   367A      4.403255   368A      4.411769  
     369A      4.440503   370A      4.464577   371A      4.491484  
     372A      4.517713   373A      4.602153   374A      4.620135  
     375A      4.640668   376A      4.698131   377A      4.722912  
     378A      4.759849   379A      4.786209   380A      4.805834  
     381A      4.831819   382A      4.843883   383A      4.859194  
     384A      4.964552   385A      4.971063   386A      4.980772  
     387A      5.018391   388A      5.020645   389A      5.058310  
     390A      5.073458   391A      5.096115   392A      5.173825  
     393A      5.193846   394A      5.208816   395A      5.248414  
     396A      5.295853   397A      5.477726   398A      5.579659  
     399A      5.601043   400A      5.664835   401A      5.949394  
     402A      5.969930   403A      6.120298   404A      6.151249  
     405A      6.173723   406A      6.213929   407A      6.260892  
     408A      6.264252   409A      6.278653   410A      6.294840  
     411A      6.434772   412A      6.446988   413A      6.481196  
     414A      6.487247   415A      6.517840   416A      6.581107  
     417A      6.618679   418A      6.623470   419A      6.711619  
     420A      6.750971   421A      6.768949   422A      6.814618  
     423A      6.829373   424A      6.848984   425A      6.871298  
     426A      6.919393   427A      6.924051   428A      6.931488  
     429A      6.933344   430A      6.946094   431A      6.951602  
     432A      6.957907   433A      6.985288   434A      7.022849  
     435A      7.040452   436A      7.041437   437A      7.094687  
     438A      7.122452   439A      7.164890   440A      7.176703  
     441A      7.183084   442A      7.196146   443A      7.238700  
     444A      7.255543   445A      7.271300   446A      7.271418  
     447A      7.282987   448A      7.283641   449A      7.292301  
     450A      7.303540   451A      7.329903   452A      7.371712  
     453A      7.377565   454A      7.380551   455A      7.468526  
     456A      7.507036   457A      7.567446   458A      7.591815  
     459A      7.629924   460A      7.645790   461A      7.657621  
     462A      7.691746   463A      7.746872   464A      7.803592  
     465A      7.816478   466A      7.844749   467A      7.856646  
     468A      7.879382   469A      7.884679   470A      7.899937  
     471A      7.904062   472A      7.917953   473A      7.945355  
     474A      7.947295   475A      7.969365   476A      7.973610  
     477A      8.117948   478A      8.130045   479A      8.135034  
     480A      8.189432   481A      8.190898   482A      8.207394  
     483A      8.299254   484A      8.401478   485A      8.490293  
     486A      8.526712   487A      8.531994   488A      8.533516  
     489A      8.548360   490A      8.557812   491A      8.574890  
     492A      8.589761   493A      8.654344   494A      8.663762  
     495A      8.670104   496A      8.675862   497A      8.711503  
     498A      8.801898   499A      8.862350   500A      8.945993  
     501A      8.956740   502A      9.015827   503A      9.046084  
     504A      9.069432   505A      9.088633   506A      9.117680  
     507A      9.122812   508A      9.136006   509A      9.160613  
     510A      9.163192   511A      9.212240   512A      9.223350  
     513A      9.234866   514A      9.294233   515A      9.297566  
     516A      9.300144   517A      9.319908   518A      9.320114  
     519A      9.380628   520A      9.423584   521A      9.433329  
     522A      9.449203   523A      9.455285   524A      9.502349  
     525A      9.557502   526A      9.587281   527A      9.623940  
     528A      9.639118   529A      9.644516   530A      9.662442  
     531A      9.680297   532A      9.776517   533A      9.777324  
     534A      9.800946   535A      9.804243   536A      9.818255  
     537A      9.819772   538A      9.925746   539A      9.981345  
     540A      9.992005   541A     10.045734   542A     10.056157  
     543A     10.066922   544A     10.079906   545A     10.138236  
     546A     10.178661   547A     10.189662   548A     10.199461  
     549A     10.241558   550A     10.244621   551A     10.280404  
     552A     10.282296   553A     10.325443   554A     10.356068  
     555A     10.386132   556A     10.419065   557A     10.446424  
     558A     10.463392   559A     10.540124   560A     10.541508  
     561A     10.618878   562A     10.630131   563A     10.645408  
     564A     10.688213   565A     10.727290   566A     10.750836  
     567A     10.942860   568A     10.997591   569A     11.009383  
     570A     11.030398   571A     11.046877   572A     11.066143  
     573A     11.078216   574A     11.150606   575A     11.250030  
     576A     11.261524   577A     11.303688   578A     11.435024  
     579A     11.539892   580A     11.541476   581A     11.555407  
     582A     11.791748   583A     11.844898   584A     11.965665  
     585A     12.214310   586A     12.266704   587A     12.488296  
     588A     12.554752   589A     12.847415   590A     13.191500  
     591A     13.241313   592A     13.259109   593A     13.283691  
     594A     13.390750   595A     13.577141   596A     13.666980  
     597A     13.909655   598A     14.041759   599A     14.130312  
     600A     14.352846   601A     15.169278   602A     16.710529  
     603A     17.410583   604A     17.453751   605A     18.066916  
     606A     29.808438   607A     68.949679   608A     69.426089  

    Final Occupation by Irrep:
              A 
    DOCC [     5 ]

  @DF-RHF Final Energy:   -40.21631183928893

   => Energetics <=

    Nuclear Repulsion Energy =             13.4894678370649483
    One-Electron Energy =                 -79.8401651898330584
    Two-Electron Energy =                  26.1343855134791809
    Total Energy =                        -40.2163118392889274

Computation Completed


Properties will be evaluated at   0.000000,   0.000000,   0.000000 [a0]

Properties computed using the SCF density matrix

  Nuclear Dipole Moment: [e a0]
     X:   -46.2681      Y:    -0.2835      Z:    -0.0018

  Electronic Dipole Moment: [e a0]
     X:    46.2678      Y:     0.2837      Z:     0.0018

  Dipole Moment: [e a0]
     X:    -0.0003      Y:     0.0002      Z:     0.0000     Total:     0.0004

  Dipole Moment: [D]
     X:    -0.0008      Y:     0.0005      Z:     0.0000     Total:     0.0010


*** tstop() called on node43.bme.utexas.edu at Sat Apr 11 16:30:19 2020
Module time:
	user time   =      66.14 seconds =       1.10 minutes
	system time =       1.77 seconds =       0.03 minutes
	total time  =         13 seconds =       0.22 minutes
Total time:
	user time   =     118.38 seconds =       1.97 minutes
	system time =       4.17 seconds =       0.07 minutes
	total time  =         25 seconds =       0.42 minutes

*** tstart() called on node43.bme.utexas.edu
*** at Sat Apr 11 16:30:19 2020


  //>>>>>>>>>>>>>>>>>>>>>>>>>>>>>>>>>>>//
  //               DFMP2               //
  //<<<<<<<<<<<<<<<<<<<<<<<<<<<<<<<<<<<//

   => Loading Basis Set <=

    Name: (AUG-CC-PVQZ AUX)
    Role: RIFIT
    Keyword: DF_BASIS_MP2
    atoms 1, 4, 7        entry C          line   184 file /home/liuchw/anaconda3/envs/psi4env/share/psi4/basis/aug-cc-pvqz-ri.gbs 
    atoms 2-3, 5-6, 8-11 entry H          line    30 file /home/liuchw/anaconda3/envs/psi4env/share/psi4/basis/aug-cc-pvqz-ri.gbs 

	 --------------------------------------------------------
	                          DF-MP2                         
	      2nd-Order Density-Fitted Moller-Plesset Theory     
	              RMP2 Wavefunction,   6 Threads             
	                                                         
	        Rob Parrish, Justin Turney, Andy Simmonett,      
	           Ed Hohenstein, and C. David Sherrill          
	 --------------------------------------------------------

   => Auxiliary Basis Set <=

  Basis Set: (AUG-CC-PVQZ AUX)
    Blend: AUG-CC-PVQZ-RI
    Number of shells: 268
    Number of basis function: 1144
    Number of Cartesian functions: 1551
    Spherical Harmonics?: true
    Max angular momentum: 5

	 --------------------------------------------------------
	                 NBF =   608, NAUX =  1144
	 --------------------------------------------------------
	   CLASS    FOCC     OCC    AOCC    AVIR     VIR    FVIR
	   PAIRS       0       5       5     603     603       0
	 --------------------------------------------------------

	-----------------------------------------------------------
	 ==================> DF-MP2 Energies <==================== 
	-----------------------------------------------------------
	 Reference Energy          =     -40.2163118392889274 [Eh]
	 Singles Energy            =      -0.0000000000000000 [Eh]
	 Same-Spin Energy          =      -0.0416163026630204 [Eh]
	 Opposite-Spin Energy      =      -0.1987771797978125 [Eh]
	 Correlation Energy        =      -0.2403934824608328 [Eh]
	 Total Energy              =     -40.4567053217497588 [Eh]
	-----------------------------------------------------------
	 ================> DF-SCS-MP2 Energies <================== 
	-----------------------------------------------------------
	 SCS Same-Spin Scale       =       0.3333333333333333 [-]
	 SCS Opposite-Spin Scale   =       1.2000000000000000 [-]
	 SCS Same-Spin Energy      =      -0.0138721008876735 [Eh]
	 SCS Opposite-Spin Energy  =      -0.2385326157573749 [Eh]
	 SCS Correlation Energy    =      -0.2524047166450484 [Eh]
	 SCS Total Energy          =     -40.4687165559339732 [Eh]
	-----------------------------------------------------------


*** tstop() called on node43.bme.utexas.edu at Sat Apr 11 16:30:25 2020
Module time:
	user time   =      28.52 seconds =       0.48 minutes
	system time =       0.87 seconds =       0.01 minutes
	total time  =          6 seconds =       0.10 minutes
Total time:
	user time   =     146.91 seconds =       2.45 minutes
	system time =       5.04 seconds =       0.08 minutes
	total time  =         31 seconds =       0.52 minutes

  //>>>>>>>>>>>>>>>>>>>>>>>>>>>>>>>>>>>//
  //  CBS Results: mp2/aug-cc-pv[tq]z  //
  //<<<<<<<<<<<<<<<<<<<<<<<<<<<<<<<<<<<//


   ==> HF <==

   HI-zeta (4) Energy:               -40.216311839289


   ==> Helgaker 2-point correlated extrapolation for method: MP2 <==

   LO-zeta (3) Energy:               -40.433356753531
   HI-zeta (4) Energy:               -40.456705321750
   Alpha (exponent) Value:             3.000000000000
   Extrapolated Energy:              -40.473743466125

   @Extrapolated MP2/(T,Q):          -40.473743466125



   ==> Helgaker 2-point correlated extrapolation for method: HF <==

   LO-zeta (3) Energy:               -40.213687339201
   HI-zeta (4) Energy:               -40.216311839289
   Alpha (exponent) Value:             3.000000000000
   Extrapolated Energy:              -40.218227015029

   @Extrapolated HF/(T,Q):           -40.218227015029


   ==> Components <==

  ---------------------------------------------------------------------------------------------------------
                          Method / Basis                      Rqd      Energy [Eh]   Variable
[...]
     125A      0.874804   126A      0.884445   127A      0.889383  
     128A      0.896424   129A      0.908501   130A      0.913085  
     131A      0.915992   132A      0.929852   133A      0.940385  
     134A      0.956187   135A      0.956968   136A      0.962607  
     137A      0.990169   138A      1.004453   139A      1.010674  
     140A      1.017541   141A      1.031571   142A      1.033322  
     143A      1.039070   144A      1.063124   145A      1.101201  
     146A      1.105360   147A      1.107610   148A      1.117568  
     149A      1.152678   150A      1.154975   151A      1.159711  
     152A      1.173082   153A      1.181836   154A      1.188225  
     155A      1.201118   156A      1.203395   157A      1.210604  
     158A      1.222259   159A      1.227404   160A      1.235060  
     161A      1.245769   162A      1.261514   163A      1.263798  
     164A      1.271822   165A      1.296504   166A      1.304271  
     167A      1.305470   168A      1.316313   169A      1.341561  
     170A      1.342806   171A      1.362241   172A      1.370224  
     173A      1.370803   174A      1.385691   175A      1.388061  
     176A      1.407266   177A      1.429315   178A      1.460253  
     179A      1.469197   180A      1.490024   181A      1.490643  
     182A      1.501709   183A      1.518895   184A      1.535430  
     185A      1.544877   186A      1.581205   187A      1.584286  
     188A      1.588780   189A      1.601907   190A      1.616808  
     191A      1.624820   192A      1.636431   193A      1.641625  
     194A      1.662553   195A      1.687629   196A      1.700718  
     197A      1.707129   198A      1.717641   199A      1.721263  
     200A      1.733551   201A      1.768891   202A      1.772732  
     203A      1.773839   204A      1.790201   205A      1.826140  
     206A      1.839996   207A      1.846481   208A      1.859791  
     209A      1.870115   210A      1.871056   211A      1.872249  
     212A      1.876172   213A      1.894208   214A      1.916651  
     215A      1.934690   216A      1.943298   217A      1.961332  
     218A      1.964342   219A      1.967471   220A      1.987840  
     221A      1.991848   222A      1.999398   223A      2.006615  
     224A      2.010938   225A      2.032261   226A      2.032952  
     227A      2.043808   228A      2.044697   229A      2.051297  
     230A      2.077628   231A      2.091336   232A      2.095272  
     233A      2.111069   234A      2.111338   235A      2.113957  
     236A      2.124656   237A      2.132593   238A      2.133792  
     239A      2.141192   240A      2.144232   241A      2.147698  
     242A      2.171608   243A      2.172218   244A      2.178756  
     245A      2.188805   246A      2.198105   247A      2.228190  
     248A      2.228428   249A      2.233497   250A      2.242713  
     251A      2.263604   252A      2.269500   253A      2.279334  
     254A      2.299322   255A      2.303435   256A      2.311098  
     257A      2.313057   258A      2.325744   259A      2.330131  
     260A      2.340667   261A      2.358903   262A      2.365891  
     263A      2.368420   264A      2.377063   265A      2.385640  
     266A      2.398683   267A      2.418246   268A      2.419050  
     269A      2.432214   270A      2.437106   271A      2.457592  
     272A      2.469783   273A      2.496852   274A      2.512117  
     275A      2.521118   276A      2.528352   277A      2.545068  
     278A      2.564729   279A      2.568895   280A      2.586351  
     281A      2.604882   282A      2.615086   283A      2.654570  
     284A      2.660582   285A      2.686486   286A      2.700306  
     287A      2.730817   288A      2.744327   289A      2.744874  
     290A      2.762244   291A      2.763105   292A      2.774170  
     293A      2.797717   294A      2.800827   295A      2.806743  
     296A      2.828909   297A      2.847331   298A      2.847982  
     299A      2.860549   300A      2.865051   301A      2.882175  
     302A      2.900352   303A      2.932029   304A      2.934865  
     305A      2.938649   306A      2.950187   307A      2.964491  
     308A      2.983145   309A      2.984557   310A      3.043413  
     311A      3.057904   312A      3.061439   313A      3.078251  
     314A      3.094950   315A      3.105824   316A      3.106633  
     317A      3.121737   318A      3.135236   319A      3.152183  
     320A      3.188702   321A      3.199972   322A      3.210729  
     323A      3.228034   324A      3.248667   325A      3.262765  
     326A      3.281813   327A      3.393339   328A      3.399252  
     329A      3.403933   330A      3.413192   331A      3.429199  
     332A      3.469989   333A      3.536201   334A      3.543499  
     335A      3.671579   336A      3.684671   337A      3.696130  
     338A      3.703438   339A      3.713192   340A      3.721982  
     341A      3.725384   342A      3.737464   343A      3.738371  
     344A      3.759142   345A      3.763183   346A      3.791259  
     347A      3.807071   348A      3.810896   349A      3.884017  
     350A      3.902815   351A      3.923328   352A      3.944187  
     353A      3.946948   354A      3.974075   355A      3.974513  
     356A      3.999820   357A      4.011969   358A      4.019762  
     359A      4.044803   360A      4.047563   361A      4.083828  
     362A      4.090840   363A      4.098546   364A      4.125660  
     365A      4.155279   366A      4.186988   367A      4.199287  
     368A      4.234515   369A      4.246828   370A      4.273875  
     371A      4.276338   372A      4.316247   373A      4.328664  
     374A      4.340548   375A      4.357648   376A      4.377926  
     377A      4.380130   378A      4.389418   379A      4.420321  
     380A      4.444700   381A      4.447385   382A      4.474803  
     383A      4.503529   384A      4.523329   385A      4.541896  
     386A      4.590407   387A      4.592638   388A      4.613974  
     389A      4.706403   390A      4.729185   391A      4.766669  
     392A      4.779476   393A      4.821004   394A      4.851786  
     395A      4.854838   396A      4.925810   397A      4.962894  
     398A      4.969058   399A      5.058132   400A      5.104786  
     401A      5.171603   402A      5.210570   403A      5.253740  
     404A      5.274405   405A      5.468459   406A      5.857370  
     407A      5.876490   408A      5.924640   409A      5.992379  
     410A      5.999337   411A      6.037810   412A      6.055135  
     413A      6.060296   414A      6.123302   415A      6.161470  
     416A      6.171614   417A      6.250336   418A      6.251827  
     419A      6.257410   420A      6.287482   421A      6.295394  
     422A      6.340397   423A      6.343709   424A      6.375566  
     425A      6.381684   426A      6.432997   427A      6.451645  
     428A      6.452962   429A      6.525710   430A      6.542486  
     431A      6.573104   432A      6.621898   433A      6.631819  
     434A      6.640204   435A      6.652832   436A      6.696901  
     437A      6.703645   438A      6.746156   439A      6.769667  
     440A      6.822521   441A      6.833253   442A      6.847034  
     443A      6.870125   444A      6.872189   445A      6.899501  
     446A      6.916699   447A      6.920520   448A      6.928765  
     449A      6.929561   450A      6.938730   451A      6.957069  
     452A      6.974477   453A      6.975446   454A      7.014604  
     455A      7.015705   456A      7.032060   457A      7.048741  
     458A      7.061833   459A      7.068053   460A      7.125228  
     461A      7.148842   462A      7.181604   463A      7.213211  
     464A      7.240449   465A      7.250405   466A      7.279276  
     467A      7.295771   468A      7.314382   469A      7.335350  
     470A      7.363068   471A      7.442046   472A      7.447287  
     473A      7.482124   474A      7.490460   475A      7.490759  
     476A      7.594337   477A      7.653447   478A      7.670656  
     479A      7.686520   480A      7.729330   481A      7.754560  
     482A      7.757562   483A      7.778072   484A      7.786793  
     485A      7.808738   486A      7.860876   487A      7.875404  
     488A      7.885639   489A      7.898482   490A      7.902589  
     491A      7.916377   492A      7.926204   493A      7.957911  
     494A      7.959813   495A      8.007233   496A      8.063430  
     497A      8.076304   498A      8.121622   499A      8.188477  
     500A      8.189528   501A      8.320446   502A      8.334753  
     503A      8.401432   504A      8.430745   505A      8.484989  
     506A      8.510537   507A      8.527274   508A      8.531182  
     509A      8.531514   510A      8.580741   511A      8.589819  
     512A      8.609722   513A      8.648980   514A      8.662361  
     515A      8.663656   516A      8.675624   517A      8.708129  
     518A      8.750354   519A      8.799895   520A      8.805582  
     521A      8.865861   522A      8.882627   523A      8.925448  
     524A      8.946276   525A      8.970418   526A      9.086338  
     527A      9.100793   528A      9.118761   529A      9.121902  
     530A      9.133798   531A      9.148755   532A      9.197208  
     533A      9.210871   534A      9.225516   535A      9.280919  
     536A      9.294192   537A      9.294272   538A      9.316091  
     539A      9.354965   540A      9.369057   541A      9.456984  
     542A      9.477599   543A      9.495345   544A      9.545827  
     545A      9.566446   546A      9.583370   547A      9.624674  
     548A      9.625307   549A      9.655954   550A      9.678491  
     551A      9.719533   552A      9.737306   553A      9.784787  
     554A      9.828203   555A      9.851984   556A      9.861006  
     557A      9.967281   558A      9.998912   559A     10.005918  
     560A     10.021635   561A     10.037409   562A     10.067862  
     563A     10.081684   564A     10.135282   565A     10.223584  
     566A     10.255225   567A     10.278009   568A     10.279253  
     569A     10.285617   570A     10.306388   571A     10.325613  
     572A     10.357506   573A     10.387989   574A     10.398829  
     575A     10.538042   576A     10.560865   577A     10.577010  
     578A     10.618613   579A     10.629468   580A     10.643261  
     581A     10.674151   582A     10.712561   583A     10.736678  
     584A     10.923313   585A     10.994653   586A     11.011645  
     587A     11.053796   588A     11.065352   589A     11.155754  
     590A     11.159512   591A     11.469005   592A     11.502145  
     593A     11.537780   594A     11.540146   595A     11.552728  
     596A     11.760354   597A     12.315593   598A     12.915376  
     599A     13.042932   600A     13.257283   601A     13.278081  
     602A     13.328913   603A     13.400151   604A     13.672875  
     605A     13.919529   606A     26.755974   607A     27.071245  
     608A     29.806890  

    Final Occupation by Irrep:
              A 
    DOCC [    13 ]

  @DF-RHF Final Energy:  -118.28509886332961

   => Energetics <=

    Nuclear Repulsion Energy =             68.6208670550780511
    One-Electron Energy =                -293.4212421111288904
    Two-Electron Energy =                 106.5152761927212168
    Total Energy =                       -118.2850988633296083

Computation Completed


Properties will be evaluated at   0.000000,   0.000000,   0.000000 [a0]

Properties computed using the SCF density matrix

  Nuclear Dipole Moment: [e a0]
     X:    -3.9318      Y:    -0.0232      Z:    -0.0001

  Electronic Dipole Moment: [e a0]
     X:     3.9174      Y:     0.0236      Z:     0.0001

  Dipole Moment: [e a0]
     X:    -0.0144      Y:     0.0004      Z:    -0.0000     Total:     0.0144

  Dipole Moment: [D]
     X:    -0.0365      Y:     0.0010      Z:    -0.0001     Total:     0.0365


*** tstop() called on node43.bme.utexas.edu at Sat Apr 11 16:31:18 2020
Module time:
	user time   =      71.29 seconds =       1.19 minutes
	system time =       1.84 seconds =       0.03 minutes
	total time  =         13 seconds =       0.22 minutes
Total time:
	user time   =     400.17 seconds =       6.67 minutes
	system time =      13.17 seconds =       0.22 minutes
	total time  =         84 seconds =       1.40 minutes

*** tstart() called on node43.bme.utexas.edu
*** at Sat Apr 11 16:31:18 2020


  //>>>>>>>>>>>>>>>>>>>>>>>>>>>>>>>>>>>//
  //               DFMP2               //
  //<<<<<<<<<<<<<<<<<<<<<<<<<<<<<<<<<<<//

   => Loading Basis Set <=

    Name: (AUG-CC-PVQZ AUX)
    Role: RIFIT
    Keyword: DF_BASIS_MP2
    atoms 1, 4, 7        entry C          line   184 file /home/liuchw/anaconda3/envs/psi4env/share/psi4/basis/aug-cc-pvqz-ri.gbs 
    atoms 2-3, 5-6, 8-11 entry H          line    30 file /home/liuchw/anaconda3/envs/psi4env/share/psi4/basis/aug-cc-pvqz-ri.gbs 

	 --------------------------------------------------------
	                          DF-MP2                         
	      2nd-Order Density-Fitted Moller-Plesset Theory     
	              RMP2 Wavefunction,   6 Threads             
	                                                         
	        Rob Parrish, Justin Turney, Andy Simmonett,      
	           Ed Hohenstein, and C. David Sherrill          
	 --------------------------------------------------------

   => Auxiliary Basis Set <=

  Basis Set: (AUG-CC-PVQZ AUX)
    Blend: AUG-CC-PVQZ-RI
    Number of shells: 268
    Number of basis function: 1144
    Number of Cartesian functions: 1551
    Spherical Harmonics?: true
    Max angular momentum: 5

	 --------------------------------------------------------
	                 NBF =   608, NAUX =  1144
	 --------------------------------------------------------
	   CLASS    FOCC     OCC    AOCC    AVIR     VIR    FVIR
	   PAIRS       0      13      13     595     595       0
	 --------------------------------------------------------

	-----------------------------------------------------------
	 ==================> DF-MP2 Energies <==================== 
	-----------------------------------------------------------
	 Reference Energy          =    -118.2850988633296083 [Eh]
	 Singles Energy            =      -0.0000000000000000 [Eh]
	 Same-Spin Energy          =      -0.1240255485177620 [Eh]
	 Opposite-Spin Energy      =      -0.5338366096518545 [Eh]
	 Correlation Energy        =      -0.6578621581696165 [Eh]
	 Total Energy              =    -118.9429610214992294 [Eh]
	-----------------------------------------------------------
	 ================> DF-SCS-MP2 Energies <================== 
	-----------------------------------------------------------
	 SCS Same-Spin Scale       =       0.3333333333333333 [-]
	 SCS Opposite-Spin Scale   =       1.2000000000000000 [-]
	 SCS Same-Spin Energy      =      -0.0413418495059207 [Eh]
	 SCS Opposite-Spin Energy  =      -0.6406039315822254 [Eh]
	 SCS Correlation Energy    =      -0.6819457810881461 [Eh]
	 SCS Total Energy          =    -118.9670446444177543 [Eh]
	-----------------------------------------------------------


*** tstop() called on node43.bme.utexas.edu at Sat Apr 11 16:31:25 2020
Module time:
	user time   =      32.10 seconds =       0.54 minutes
	system time =       1.05 seconds =       0.02 minutes
	total time  =          7 seconds =       0.12 minutes
Total time:
	user time   =     432.28 seconds =       7.20 minutes
	system time =      14.22 seconds =       0.24 minutes
	total time  =         91 seconds =       1.52 minutes

  //>>>>>>>>>>>>>>>>>>>>>>>>>>>>>>>>>>>//
  //  CBS Results: mp2/aug-cc-pv[tq]z  //
  //<<<<<<<<<<<<<<<<<<<<<<<<<<<<<<<<<<<//


   ==> HF <==

   HI-zeta (4) Energy:               -118.285098863330


   ==> Helgaker 2-point correlated extrapolation for method: MP2 <==

   LO-zeta (3) Energy:               -118.874998550853
   HI-zeta (4) Energy:               -118.942961021499
   Alpha (exponent) Value:             3.000000000000
   Extrapolated Energy:              -118.992555256835

   @Extrapolated MP2/(T,Q):          -118.992555256835



   ==> Helgaker 2-point correlated extrapolation for method: HF <==

   LO-zeta (3) Energy:               -118.277773420477
   HI-zeta (4) Energy:               -118.285098863330
   Alpha (exponent) Value:             3.000000000000
   Extrapolated Energy:              -118.290444456763

   @Extrapolated HF/(T,Q):           -118.290444456763


   ==> Components <==

  ---------------------------------------------------------------------------------------------------------
                          Method / Basis                      Rqd      Energy [Eh]   Variable
  ---------------------------------------------------------------------------------------------------------
                              hf / aug-cc-pvtz                  *    -118.27777342   HF TOTAL ENERGY
                             mp2 / aug-cc-pvtz                  *    -118.87499855   MP2 TOTAL ENERGY
                              hf / aug-cc-pvqz                  *    -118.28509886   HF TOTAL ENERGY
                             mp2 / aug-cc-pvqz                  *    -118.94296102   MP2 TOTAL ENERGY
  ---------------------------------------------------------------------------------------------------------

   ==> Stages <==

  ---------------------------------------------------------------------------------------------------------
      Stage               Method / Basis                       Wt      Energy [Eh]   Scheme
  ---------------------------------------------------------------------------------------------------------
        scf                   hf / aug-cc-pvqz                  1    -118.28509886   xtpl_highest_1
       corl                  mp2 / aug-cc-pv[tq]z               1    -118.99255526   corl_xtpl_helgaker_2
       corl                   hf / aug-cc-pv[tq]z              -1    -118.29044446   corl_xtpl_helgaker_2
  ---------------------------------------------------------------------------------------------------------

   ==> CBS <==

  ---------------------------------------------------------------------------------------------------------
      Stage               Method / Basis                               Energy [Eh]   Scheme
  ---------------------------------------------------------------------------------------------------------
        scf                   hf / aug-cc-pvqz                       -118.28509886   xtpl_highest_1
       corl                  mp2 / aug-cc-pv[tq]z                      -0.70211080   corl_xtpl_helgaker_2
      total                  CBS                                     -118.98720966   
  ---------------------------------------------------------------------------------------------------------
   => Loading Basis Set <=

    Name: DEF2-SVP
    Role: ORBITAL
    Keyword: BASIS
    atoms 1, 4, 7        entry C          line    90 file /home/liuchw/anaconda3/envs/psi4env/share/psi4/basis/def2-svp.gbs 
    atoms 2-3, 5-6, 8-11 entry H          line    15 file /home/liuchw/anaconda3/envs/psi4env/share/psi4/basis/def2-svp.gbs 


       N-Body: Complex Energy (fragments = (1, 2), basis = (1, 2):  -118.98720966340206)

   ==> N-Body: Counterpoise Corrected (CP) energies <==

   n-Body     Total Energy [Eh]       I.E. [kcal/mol]      Delta [kcal/mol]
        1     -118.985883762844        0.000000000000        0.000000000000
        2     -118.987282814269       -0.877918023710       -0.877918023710

   => Loading Basis Set <=

    Name: DEF2-SVP
    Role: ORBITAL
    Keyword: BASIS
    atoms 1, 4, 7        entry C          line    90 file /home/liuchw/anaconda3/envs/psi4env/share/psi4/basis/def2-svp.gbs 
    atoms 2-3, 5-6, 8-11 entry H          line    15 file /home/liuchw/anaconda3/envs/psi4env/share/psi4/basis/def2-svp.gbs 


    Psi4 stopped on: Saturday, 11 April 2020 04:31PM
    Psi4 wall time for execution: 0:01:31.64

*** Psi4 exiting successfully. Buy a developer a beer!
