
    -----------------------------------------------------------------------
          Psi4: An Open-Source Ab Initio Electronic Structure Package
                               Psi4 1.4a2.dev224 

                         Git: Rev {master} e453b16 


    R. M. Parrish, L. A. Burns, D. G. A. Smith, A. C. Simmonett,
    A. E. DePrince III, E. G. Hohenstein, U. Bozkaya, A. Yu. Sokolov,
    R. Di Remigio, R. M. Richard, J. F. Gonthier, A. M. James,
    H. R. McAlexander, A. Kumar, M. Saitow, X. Wang, B. P. Pritchard,
    P. Verma, H. F. Schaefer III, K. Patkowski, R. A. King, E. F. Valeev,
    F. A. Evangelista, J. M. Turney, T. D. Crawford, and C. D. Sherrill,
    J. Chem. Theory Comput. 13(7) pp 3185--3197 (2017).
    (doi: 10.1021/acs.jctc.7b00174)


                         Additional Contributions by
    P. Kraus, H. Kruse, M. H. Lechner, M. C. Schieber, R. A. Shaw,
    A. Alenaizan, R. Galvelis, Z. L. Glick, S. Lehtola, and J. P. Misiewicz

    -----------------------------------------------------------------------


    Psi4 started on: Saturday, 11 April 2020 04:30PM

    Process ID: 56507
    Host:       node59.bme.utexas.edu
    PSIDATADIR: /home/liuchw/anaconda3/envs/psi4env/share/psi4
    Memory:     500.0 MiB
    Threads:    6
    
  ==> Input File <==

--------------------------------------------------------------------------
#Generated by lconvert.py for cbs job

memory 40 GB

molecule  {
0 1
  C       -1.6354650    -0.5897110     0.0002600
  C       -1.2537280     0.6873690    -0.0002080
  H       -1.7991590    -1.1277920    -0.9224230
  H       -1.7980920    -1.1274340     0.9233410
  H       -1.0910530     1.2267530     0.9217400
  H       -1.0921080     1.2262650    -0.9226260
--
0 1
  N        1.4492741     0.0399142    -0.0003185
  H        1.8326471    -0.4302758     0.8091395
  H        0.4586141    -0.1690518    -0.0017605
  H        1.8364251    -0.4363028    -0.8044495
units angstrom
no_reorient
symmetry c1
}

set {
scf_type DF
mp2_type DF
e_convergence 7
reference rhf
}

energy('mp2/aug-cc-pv[tq]z', bsse_type='cp')
--------------------------------------------------------------------------

  Memory set to  37.253 GiB by Python driver.

Scratch directory: /scratch//


   ===> N-Body Interaction Abacus <===
        BSSE Treatment:                     cp
        Number of 1-body computations:     4
        Number of 2-body computations:     1

   ==> N-Body: Now computing 1-body complexes <==


       N-Body: Computing complex (1/4) with fragments (2,) in the basis of fragments (2,).


Scratch directory: /scratch//

  //>>>>>>>>>>>>>>>>>>>>>>>>>>>>>>>>>>>//
  //   CBS Setup: mp2/aug-cc-pv[tq]z   //
  //<<<<<<<<<<<<<<<<<<<<<<<<<<<<<<<<<<<//

    Naive listing of computations required.
             hf / aug-cc-pvqz              for  HF TOTAL ENERGY
            mp2 / aug-cc-pvtz              for  MP2 TOTAL ENERGY
            mp2 / aug-cc-pvqz              for  MP2 TOTAL ENERGY
             hf / aug-cc-pvtz              for  HF TOTAL ENERGY
             hf / aug-cc-pvqz              for  HF TOTAL ENERGY

    Enlightened listing of computations required.
            mp2 / aug-cc-pvtz              for  MP2 TOTAL ENERGY
            mp2 / aug-cc-pvqz              for  MP2 TOTAL ENERGY

    Full listing of computations to be obtained (required and bonus).
             hf / aug-cc-pvtz              for  HF TOTAL ENERGY
            mp2 / aug-cc-pvtz              for  MP2 TOTAL ENERGY
             hf / aug-cc-pvqz              for  HF TOTAL ENERGY
            mp2 / aug-cc-pvqz              for  MP2 TOTAL ENERGY

  //>>>>>>>>>>>>>>>>>>>>>>>>>>>>>>>>>>>>//
  // CBS Computation: MP2 / AUG-CC-PVTZ //
  //<<<<<<<<<<<<<<<<<<<<<<<<<<<<<<<<<<<<//


Scratch directory: /scratch//

*** tstart() called on node59.bme.utexas.edu
*** at Sat Apr 11 16:30:05 2020

   => Loading Basis Set <=

    Name: AUG-CC-PVTZ
    Role: ORBITAL
    Keyword: BASIS
    atoms 1   entry N          line   285 file /home/liuchw/anaconda3/envs/psi4env/share/psi4/basis/aug-cc-pvtz.gbs 
    atoms 2-4 entry H          line    40 file /home/liuchw/anaconda3/envs/psi4env/share/psi4/basis/aug-cc-pvtz.gbs 


         ---------------------------------------------------------
                                   SCF
               by Justin Turney, Rob Parrish, Andy Simmonett
                          and Daniel G. A. Smith
                              RHF Reference
                        6 Threads,  38146 MiB Core
         ---------------------------------------------------------

  ==> Geometry <==

    Molecular point group: c1
    Full point group: C1

    Geometry (in Angstrom), charge = 0, multiplicity = 1:

       Center              X                  Y                   Z               Mass       
    ------------   -----------------  -----------------  -----------------  -----------------
         N            1.805298236327     0.020241201863    -0.000299606394    14.003074004430
         H            2.188671236327    -0.449948798137     0.809158393606     1.007825032230
         H            0.814638236327    -0.188724798137    -0.001741606394     1.007825032230
         H            2.192449236327    -0.455975798137    -0.804430606394     1.007825032230

  Running in c1 symmetry.

  Rotational constants: A =      9.80861  B =      0.29872  C =      0.29400 [cm^-1]
  Rotational constants: A = 294054.62382  B =   8955.27192  C =   8813.86009 [MHz]
  Nuclear repulsion =   11.964915390055808

  Charge       = 0
  Multiplicity = 1
  Electrons    = 10
  Nalpha       = 5
  Nbeta        = 5

  ==> Algorithm <==

  SCF Algorithm Type is DF.
  DIIS enabled.
  MOM disabled.
  Fractional occupation disabled.
  Guess Type is SAD.
  Energy threshold   = 1.00e-07
  Density threshold  = 1.00e-08
  Integral threshold = 0.00e+00

  ==> Primary Basis <==

  Basis Set: AUG-CC-PVTZ
    Blend: AUG-CC-PVTZ
    Number of shells: 41
    Number of basis function: 115
    Number of Cartesian functions: 130
    Spherical Harmonics?: true
    Max angular momentum: 3

   => Loading Basis Set <=

    Name: (AUG-CC-PVTZ AUX)
    Role: JKFIT
    Keyword: DF_BASIS_SCF
    atoms 1   entry N          line   224 file /home/liuchw/anaconda3/envs/psi4env/share/psi4/basis/aug-cc-pvtz-jkfit.gbs 
    atoms 2-4 entry H          line    70 file /home/liuchw/anaconda3/envs/psi4env/share/psi4/basis/aug-cc-pvtz-jkfit.gbs 

  ==> Pre-Iterations <==

   -------------------------------------------------------
    Irrep   Nso     Nmo     Nalpha   Nbeta   Ndocc  Nsocc
   -------------------------------------------------------
     A        115     115       0       0       0       0
   -------------------------------------------------------
    Total     115     115       5       5       5       0
   -------------------------------------------------------

  ==> Integral Setup <==

  DFHelper Memory: AOs need 0.028 GiB; user supplied 27.940 GiB. Using in-core AOs.

  ==> MemDFJK: Density-Fitted J/K Matrices <==

    J tasked:                   Yes
    K tasked:                   Yes
    wK tasked:                   No
    OpenMP threads:               6
    Memory [MiB]:             28610
    Algorithm:                 Core
    Schwarz Cutoff:           1E-12
    Mask sparsity (%):       0.0000
    Fitting Condition:        1E-10

   => Auxiliary Basis Set <=

  Basis Set: (AUG-CC-PVTZ AUX)
    Blend: AUG-CC-PVTZ-JKFIT
    Number of shells: 72
    Number of basis function: 242
    Number of Cartesian functions: 296
    Spherical Harmonics?: true
    Max angular momentum: 4

  Minimum eigenvalue in the overlap matrix is 2.6929859199E-04.
  Using Symmetric Orthogonalization.

  SCF Guess: Superposition of Atomic Densities via on-the-fly atomic UHF.

  ==> Iterations <==

                           Total Energy        Delta E     RMS |[F,P]|

   @DF-RHF iter SAD:   -55.64538888871747   -5.56454e+01   0.00000e+00 
   @DF-RHF iter   1:   -56.12245214522421   -4.77063e-01   4.05669e-03 DIIS
   @DF-RHF iter   2:   -56.19137264963687   -6.89205e-02   2.35044e-03 DIIS
   @DF-RHF iter   3:   -56.21956633898877   -2.81937e-02   2.12696e-04 DIIS
   @DF-RHF iter   4:   -56.22020062025056   -6.34281e-04   3.97258e-05 DIIS
   @DF-RHF iter   5:   -56.22022170280933   -2.10826e-05   7.32432e-06 DIIS
   @DF-RHF iter   6:   -56.22022288405721   -1.18125e-06   1.72788e-06 DIIS
   @DF-RHF iter   7:   -56.22022295231957   -6.82624e-08   3.49466e-07 DIIS
   @DF-RHF iter   8:   -56.22022295522383   -2.90426e-09   5.35807e-08 DIIS
   @DF-RHF iter   9:   -56.22022295528544   -6.16041e-11   1.30070e-08 DIIS
   @DF-RHF iter  10:   -56.22022295528931   -3.87246e-12   2.74655e-09 DIIS
  Energy and wave function converged.


  ==> Post-Iterations <==

    Orbital Energies [Eh]
    ---------------------

    Doubly Occupied:                                                      

       1A    -15.542205     2A     -1.144029     3A     -0.627926  
       4A     -0.627494     5A     -0.431793  

    Virtual:                                                              

       6A      0.029436     7A      0.048680     8A      0.048710  
       9A      0.117717    10A      0.152515    11A      0.162386  
      12A      0.162419    13A      0.221551    14A      0.221585  
      15A      0.234932    16A      0.235049    17A      0.254476  
      18A      0.356254    19A      0.357599    20A      0.370681  
      21A      0.370730    22A      0.428554    23A      0.461045  
      24A      0.461133    25A      0.486737    26A      0.486886  
      27A      0.565018    28A      0.601151    29A      0.601405  
      30A      0.750039    31A      0.785550    32A      0.785699  
      33A      0.811639    34A      0.880997    35A      0.903737  
      36A      0.915166    37A      0.915379    38A      0.977488  
      39A      0.977654    40A      1.036052    41A      1.036742  
      42A      1.036915    43A      1.082168    44A      1.103401  
      45A      1.103421    46A      1.143342    47A      1.143539  
      48A      1.186534    49A      1.220217    50A      1.220563  
      51A      1.324177    52A      1.358101    53A      1.358839  
      54A      1.616275    55A      1.762541    56A      1.763081  
      57A      1.768920    58A      1.863201    59A      1.863616  
      60A      1.864872    61A      2.001865    62A      2.040876  
      63A      2.041049    64A      2.048208    65A      2.048692  
      66A      2.282414    67A      2.335131    68A      2.372408  
      69A      2.372936    70A      2.439083    71A      2.439445  
      72A      2.471449    73A      3.374698    74A      3.555216  
      75A      3.555999    76A      3.973111    77A      3.974478  
      78A      4.049333    79A      4.135140    80A      4.135842  
      81A      4.211156    82A      4.234764    83A      4.264313  
      84A      4.265222    85A      4.313373    86A      4.356002  
      87A      4.356805    88A      4.475398    89A      4.548823  
      90A      4.549663    91A      4.694861    92A      4.738049  
      93A      4.738786    94A      4.947853    95A      4.949508  
      96A      4.995584    97A      5.056229    98A      5.056559  
      99A      5.092077   100A      5.269705   101A      5.689911  
     102A      5.691443   103A      5.719659   104A      5.898827  
     105A      5.902255   106A      6.048382   107A      6.354039  
     108A      6.356966   109A      6.401173   110A      6.619823  
     111A      6.946077   112A      6.946257   113A      7.692873  
     114A      7.696547   115A     17.240146  

    Final Occupation by Irrep:
              A 
    DOCC [     5 ]

  @DF-RHF Final Energy:   -56.22022295528931

   => Energetics <=

    Nuclear Repulsion Energy =             11.9649153900558076
    One-Electron Energy =                 -99.6233831547653921
    Two-Electron Energy =                  31.4382448094202758
    Total Energy =                        -56.2202229552893087

Computation Completed


Properties will be evaluated at   0.000000,   0.000000,   0.000000 [a0]

Properties computed using the SCF density matrix

  Nuclear Dipole Moment: [e a0]
     X:    33.6992      Y:    -1.8008      Z:     0.0017

  Electronic Dipole Moment: [e a0]
     X:   -33.8212      Y:     1.1622      Z:     0.0004

  Dipole Moment: [e a0]
     X:    -0.1220      Y:    -0.6386      Z:     0.0021     Total:     0.6502

  Dipole Moment: [D]
     X:    -0.3100      Y:    -1.6233      Z:     0.0054     Total:     1.6526


*** tstop() called on node59.bme.utexas.edu at Sat Apr 11 16:30:06 2020
Module time:
	user time   =       5.59 seconds =       0.09 minutes
	system time =       0.30 seconds =       0.01 minutes
	total time  =          1 seconds =       0.02 minutes
Total time:
	user time   =       5.59 seconds =       0.09 minutes
	system time =       0.30 seconds =       0.01 minutes
	total time  =          1 seconds =       0.02 minutes

*** tstart() called on node59.bme.utexas.edu
*** at Sat Apr 11 16:30:06 2020


  //>>>>>>>>>>>>>>>>>>>>>>>>>>>>>>>>>>>//
  //               DFMP2               //
  //<<<<<<<<<<<<<<<<<<<<<<<<<<<<<<<<<<<//

   => Loading Basis Set <=

    Name: (AUG-CC-PVTZ AUX)
    Role: RIFIT
    Keyword: DF_BASIS_MP2
    atoms 1   entry N          line   206 file /home/liuchw/anaconda3/envs/psi4env/share/psi4/basis/aug-cc-pvtz-ri.gbs 
    atoms 2-4 entry H          line    30 file /home/liuchw/anaconda3/envs/psi4env/share/psi4/basis/aug-cc-pvtz-ri.gbs 

	 --------------------------------------------------------
	                          DF-MP2                         
	      2nd-Order Density-Fitted Moller-Plesset Theory     
	              RMP2 Wavefunction,   6 Threads             
	                                                         
	        Rob Parrish, Justin Turney, Andy Simmonett,      
	           Ed Hohenstein, and C. David Sherrill          
	 --------------------------------------------------------

   => Auxiliary Basis Set <=

  Basis Set: (AUG-CC-PVTZ AUX)
    Blend: AUG-CC-PVTZ-RI
    Number of shells: 70
    Number of basis function: 244
    Number of Cartesian functions: 301
    Spherical Harmonics?: true
    Max angular momentum: 4

	 --------------------------------------------------------
	                 NBF =   115, NAUX =   244
	 --------------------------------------------------------
	   CLASS    FOCC     OCC    AOCC    AVIR     VIR    FVIR
	   PAIRS       0       5       5     110     110       0
	 --------------------------------------------------------

	-----------------------------------------------------------
	 ==================> DF-MP2 Energies <==================== 
	-----------------------------------------------------------
	 Reference Energy          =     -56.2202229552893087 [Eh]
	 Singles Energy            =      -0.0000000000000000 [Eh]
	 Same-Spin Energy          =      -0.0560761858849993 [Eh]
	 Opposite-Spin Energy      =      -0.2010803755943011 [Eh]
	 Correlation Energy        =      -0.2571565614793004 [Eh]
	 Total Energy              =     -56.4773795167686075 [Eh]
	-----------------------------------------------------------
	 ================> DF-SCS-MP2 Energies <================== 
	-----------------------------------------------------------
	 SCS Same-Spin Scale       =       0.3333333333333333 [-]
	 SCS Opposite-Spin Scale   =       1.2000000000000000 [-]
	 SCS Same-Spin Energy      =      -0.0186920619616664 [Eh]
	 SCS Opposite-Spin Energy  =      -0.2412964507131613 [Eh]
	 SCS Correlation Energy    =      -0.2599885126748278 [Eh]
	 SCS Total Energy          =     -56.4802114679641392 [Eh]
	-----------------------------------------------------------


*** tstop() called on node59.bme.utexas.edu at Sat Apr 11 16:30:06 2020
Module time:
	user time   =       2.48 seconds =       0.04 minutes
	system time =       0.14 seconds =       0.00 minutes
	total time  =          0 seconds =       0.00 minutes
Total time:
	user time   =       8.08 seconds =       0.13 minutes
	system time =       0.44 seconds =       0.01 minutes
	total time  =          1 seconds =       0.02 minutes

  //>>>>>>>>>>>>>>>>>>>>>>>>>>>>>>>>>>>>//
  // CBS Computation: MP2 / AUG-CC-PVQZ //
  //<<<<<<<<<<<<<<<<<<<<<<<<<<<<<<<<<<<<//


Scratch directory: /scratch//

*** tstart() called on node59.bme.utexas.edu
*** at Sat Apr 11 16:30:06 2020

   => Loading Basis Set <=

    Name: AUG-CC-PVQZ
    Role: ORBITAL
    Keyword: BASIS
    atoms 1   entry N          line   363 file /home/liuchw/anaconda3/envs/psi4env/share/psi4/basis/aug-cc-pvqz.gbs 
    atoms 2-4 entry H          line    40 file /home/liuchw/anaconda3/envs/psi4env/share/psi4/basis/aug-cc-pvqz.gbs 


         ---------------------------------------------------------
                                   SCF
               by Justin Turney, Rob Parrish, Andy Simmonett
                          and Daniel G. A. Smith
                              RHF Reference
                        6 Threads,  38146 MiB Core
         ---------------------------------------------------------

  ==> Geometry <==

    Molecular point group: c1
    Full point group: C1

    Geometry (in Angstrom), charge = 0, multiplicity = 1:

       Center              X                  Y                   Z               Mass       
    ------------   -----------------  -----------------  -----------------  -----------------
         N            1.805298236327     0.020241201863    -0.000299606394    14.003074004430
         H            2.188671236327    -0.449948798137     0.809158393606     1.007825032230
         H            0.814638236327    -0.188724798137    -0.001741606394     1.007825032230
         H            2.192449236327    -0.455975798137    -0.804430606394     1.007825032230

  Running in c1 symmetry.

  Rotational constants: A =      9.80861  B =      0.29872  C =      0.29400 [cm^-1]
  Rotational constants: A = 294054.62382  B =   8955.27192  C =   8813.86009 [MHz]
  Nuclear repulsion =   11.964915390055808

  Charge       = 0
  Multiplicity = 1
  Electrons    = 10
  Nalpha       = 5
  Nbeta        = 5

  ==> Algorithm <==

  SCF Algorithm Type is DF.
  DIIS enabled.
  MOM disabled.
  Fractional occupation disabled.
  Guess Type is SAD.
  Energy threshold   = 1.00e-07
  Density threshold  = 1.00e-08
  Integral threshold = 0.00e+00

  ==> Primary Basis <==

  Basis Set: AUG-CC-PVQZ
    Blend: AUG-CC-PVQZ
    Number of shells: 62
    Number of basis function: 218
    Number of Cartesian functions: 270
    Spherical Harmonics?: true
    Max angular momentum: 4

   => Loading Basis Set <=

    Name: (AUG-CC-PVQZ AUX)
    Role: JKFIT
    Keyword: DF_BASIS_SCF
    atoms 1   entry N          line   248 file /home/liuchw/anaconda3/envs/psi4env/share/psi4/basis/aug-cc-pvqz-jkfit.gbs 
    atoms 2-4 entry H          line    70 file /home/liuchw/anaconda3/envs/psi4env/share/psi4/basis/aug-cc-pvqz-jkfit.gbs 

  ==> Pre-Iterations <==

   -------------------------------------------------------
    Irrep   Nso     Nmo     Nalpha   Nbeta   Ndocc  Nsocc
   -------------------------------------------------------
     A        218     218       0       0       0       0
   -------------------------------------------------------
    Total     218     218       5       5       5       0
   -------------------------------------------------------

  ==> Integral Setup <==

  DFHelper Memory: AOs need 0.146 GiB; user supplied 27.940 GiB. Using in-core AOs.

  ==> MemDFJK: Density-Fitted J/K Matrices <==

    J tasked:                   Yes
    K tasked:                   Yes
    wK tasked:                   No
    OpenMP threads:               6
    Memory [MiB]:             28610
    Algorithm:                 Core
    Schwarz Cutoff:           1E-12
    Mask sparsity (%):       0.0000
    Fitting Condition:        1E-10

   => Auxiliary Basis Set <=

  Basis Set: (AUG-CC-PVQZ AUX)
    Blend: AUG-CC-PVQZ-JKFIT
    Number of shells: 88
    Number of basis function: 370
    Number of Cartesian functions: 501
    Spherical Harmonics?: true
    Max angular momentum: 5

  Minimum eigenvalue in the overlap matrix is 5.1326106893E-05.
  Using Symmetric Orthogonalization.

  SCF Guess: Superposition of Atomic Densities via on-the-fly atomic UHF.

  ==> Iterations <==

                           Total Energy        Delta E     RMS |[F,P]|

   @DF-RHF iter SAD:   -55.64851680998510   -5.56485e+01   0.00000e+00 
   @DF-RHF iter   1:   -56.12575791910104   -4.77241e-01   2.14410e-03 DIIS
   @DF-RHF iter   2:   -56.19484605167843   -6.90881e-02   1.24479e-03 DIIS
   @DF-RHF iter   3:   -56.22321286711016   -2.83668e-02   1.12805e-04 DIIS
   @DF-RHF iter   4:   -56.22385095485356   -6.38088e-04   2.13525e-05 DIIS
   @DF-RHF iter   5:   -56.22387260540930   -2.16506e-05   3.98563e-06 DIIS
   @DF-RHF iter   6:   -56.22387385231028   -1.24690e-06   9.66283e-07 DIIS
   @DF-RHF iter   7:   -56.22387392597070   -7.36604e-08   2.06657e-07 DIIS
   @DF-RHF iter   8:   -56.22387392934860   -3.37790e-09   2.94766e-08 DIIS
   @DF-RHF iter   9:   -56.22387392941381   -6.52065e-11   7.06804e-09 DIIS
  Energy and wave function converged.


  ==> Post-Iterations <==

    Orbital Energies [Eh]
    ---------------------

    Doubly Occupied:                                                      

       1A    -15.540605     2A     -1.143736     3A     -0.628027  
       4A     -0.627595     5A     -0.432002  

    Virtual:                                                              

       6A      0.026483     7A      0.043759     8A      0.043786  
       9A      0.097589    10A      0.132248    11A      0.139405  
      12A      0.139443    13A      0.183565    14A      0.183624  
      15A      0.188679    16A      0.188737    17A      0.209465  
      18A      0.284015    19A      0.292800    20A      0.297819  
      21A      0.297883    22A      0.354904    23A      0.382060  
      24A      0.382212    25A      0.389958    26A      0.390079  
      27A      0.423709    28A      0.472805    29A      0.473002  
      30A      0.557929    31A      0.558089    32A      0.558255  
      33A      0.595577    34A      0.681992    35A      0.682074  
      36A      0.697418    37A      0.702404    38A      0.718251  
      39A      0.718409    40A      0.751509    41A      0.779673  
      42A      0.779802    43A      0.782498    44A      0.831770  
      45A      0.831919    46A      0.852932    47A      0.856724  
      48A      0.857071    49A      0.872890    50A      0.872971  
      51A      0.979997    52A      1.012363    53A      1.013136  
      54A      1.134591    55A      1.220336    56A      1.220494  
      57A      1.351409    58A      1.355516    59A      1.355591  
      60A      1.372097    61A      1.376961    62A      1.451960  
      63A      1.452429    64A      1.515396    65A      1.536108  
      66A      1.536376    67A      1.576803    68A      1.604911  
      69A      1.661911    70A      1.662005    71A      1.700461  
      72A      1.700912    73A      1.733992    74A      1.749207  
      75A      1.749234    76A      1.816857    77A      1.830434  
      78A      1.830663    79A      1.853868    80A      1.899072  
      81A      1.900141    82A      1.983030    83A      1.983594  
      84A      2.020282    85A      2.020493    86A      2.042607  
      87A      2.065300    88A      2.103248    89A      2.113007  
      90A      2.113393    91A      2.188066    92A      2.263734  
      93A      2.264374    94A      2.284895    95A      2.400839  
      96A      2.401098    97A      2.785054    98A      2.911588  
      99A      2.912570   100A      2.919909   101A      2.935921  
     102A      2.936445   103A      2.945247   104A      3.005711  
     105A      3.006030   106A      3.028712   107A      3.029414  
     108A      3.068574   109A      3.104005   110A      3.142653  
     111A      3.207429   112A      3.208536   113A      3.263969  
     114A      3.264934   115A      3.394826   116A      3.394999  
     117A      3.468490   118A      3.549262   119A      3.550477  
     120A      3.603905   121A      3.720813   122A      3.904396  
     123A      3.911942   124A      3.912647   125A      4.136048  
     126A      4.137882   127A      4.146616   128A      4.185037  
     129A      4.185688   130A      4.217626   131A      4.238397  
     132A      4.295326   133A      4.366898   134A      4.367959  
     135A      4.715511   136A      4.715827   137A      4.958486  
     138A      4.959239   139A      5.075432   140A      5.190978  
     141A      5.191155   142A      5.352099   143A      5.352529  
     144A      5.451592   145A      5.641379   146A      6.829776  
     147A      6.830308   148A      6.907586   149A      6.933757  
     150A      6.936977   151A      7.006667   152A      7.390080  
     153A      7.393588   154A      7.394290   155A      7.425172  
     156A      7.426561   157A      7.612596   158A      7.687792  
     159A      7.709797   160A      7.709833   161A      7.861384  
     162A      7.862308   163A      7.923549   164A      7.925645  
     165A      7.996515   166A      8.200474   167A      8.314793  
     168A      8.317795   169A      8.335605   170A      8.512469  
     171A      8.564738   172A      8.567676   173A      8.638318  
     174A      8.640620   175A      8.867791   176A      8.917878  
     177A      8.917883   178A      8.953676   179A      8.990930  
     180A      9.011133   181A      9.024118   182A      9.026208  
     183A      9.221112   184A      9.294047   185A      9.295372  
     186A      9.442761   187A      9.443201   188A      9.524962  
     189A      9.525112   190A      9.590775   191A      9.796179  
     192A      9.831749   193A      9.924662   194A      9.926079  
     195A     10.121484   196A     10.121764   197A     10.122353  
     198A     10.294088   199A     10.295941   200A     10.553358  
     201A     10.555722   202A     10.776171   203A     10.853612  
     204A     10.982936   205A     10.984618   206A     11.727997  
     207A     12.196670   208A     12.202486   209A     12.274363  
     210A     12.363940   211A     12.368415   212A     13.039973  
     213A     13.121484   214A     13.123746   215A     14.701351  
     216A     15.053435   217A     15.061245   218A     36.683043  

    Final Occupation by Irrep:
              A 
    DOCC [     5 ]

  @DF-RHF Final Energy:   -56.22387392941381

   => Energetics <=

    Nuclear Repulsion Energy =             11.9649153900558076
    One-Electron Energy =                 -99.6336470617513328
    Two-Electron Energy =                  31.4448577422817195
    Total Energy =                        -56.2238739294138057

Computation Completed


Properties will be evaluated at   0.000000,   0.000000,   0.000000 [a0]

Properties computed using the SCF density matrix

  Nuclear Dipole Moment: [e a0]
     X:    33.6992      Y:    -1.8008      Z:     0.0017

  Electronic Dipole Moment: [e a0]
     X:   -33.8212      Y:     1.1620      Z:     0.0004

  Dipole Moment: [e a0]
     X:    -0.1220      Y:    -0.6388      Z:     0.0021     Total:     0.6504

  Dipole Moment: [D]
     X:    -0.3101      Y:    -1.6237      Z:     0.0054     Total:     1.6531


*** tstop() called on node59.bme.utexas.edu at Sat Apr 11 16:30:09 2020
Module time:
	user time   =      10.51 seconds =       0.18 minutes
	system time =       0.52 seconds =       0.01 minutes
	total time  =          3 seconds =       0.05 minutes
Total time:
	user time   =      18.62 seconds =       0.31 minutes
	system time =       0.97 seconds =       0.02 minutes
	total time  =          4 seconds =       0.07 minutes

*** tstart() called on node59.bme.utexas.edu
*** at Sat Apr 11 16:30:09 2020


  //>>>>>>>>>>>>>>>>>>>>>>>>>>>>>>>>>>>//
  //               DFMP2               //
  //<<<<<<<<<<<<<<<<<<<<<<<<<<<<<<<<<<<//

   => Loading Basis Set <=

    Name: (AUG-CC-PVQZ AUX)
    Role: RIFIT
    Keyword: DF_BASIS_MP2
    atoms 1   entry N          line   258 file /home/liuchw/anaconda3/envs/psi4env/share/psi4/basis/aug-cc-pvqz-ri.gbs 
    atoms 2-4 entry H          line    30 file /home/liuchw/anaconda3/envs/psi4env/share/psi4/basis/aug-cc-pvqz-ri.gbs 

	 --------------------------------------------------------
	                          DF-MP2                         
	      2nd-Order Density-Fitted Moller-Plesset Theory     
	              RMP2 Wavefunction,   6 Threads             
	                                                         
	        Rob Parrish, Justin Turney, Andy Simmonett,      
	           Ed Hohenstein, and C. David Sherrill          
	 --------------------------------------------------------

   => Auxiliary Basis Set <=

  Basis Set: (AUG-CC-PVQZ AUX)
    Blend: AUG-CC-PVQZ-RI
    Number of shells: 96
    Number of basis function: 408
    Number of Cartesian functions: 552
    Spherical Harmonics?: true
    Max angular momentum: 5

	 --------------------------------------------------------
	                 NBF =   218, NAUX =   408
	 --------------------------------------------------------
	   CLASS    FOCC     OCC    AOCC    AVIR     VIR    FVIR
	   PAIRS       0       5       5     213     213       0
	 --------------------------------------------------------

	-----------------------------------------------------------
	 ==================> DF-MP2 Energies <==================== 
	-----------------------------------------------------------
	 Reference Energy          =     -56.2238739294138057 [Eh]
	 Singles Energy            =      -0.0000000000000000 [Eh]
	 Same-Spin Energy          =      -0.0594016593067406 [Eh]
	 Opposite-Spin Energy      =      -0.2248019796173440 [Eh]
	 Correlation Energy        =      -0.2842036389240847 [Eh]
	 Total Energy              =     -56.5080775683378889 [Eh]
	-----------------------------------------------------------
	 ================> DF-SCS-MP2 Energies <================== 
	-----------------------------------------------------------
	 SCS Same-Spin Scale       =       0.3333333333333333 [-]
	 SCS Opposite-Spin Scale   =       1.2000000000000000 [-]
	 SCS Same-Spin Energy      =      -0.0198005531022469 [Eh]
	 SCS Opposite-Spin Energy  =      -0.2697623755408128 [Eh]
	 SCS Correlation Energy    =      -0.2895629286430597 [Eh]
	 SCS Total Energy          =     -56.5134368580568633 [Eh]
	-----------------------------------------------------------


*** tstop() called on node59.bme.utexas.edu at Sat Apr 11 16:30:09 2020
Module time:
	user time   =       3.91 seconds =       0.07 minutes
	system time =       0.20 seconds =       0.00 minutes
	total time  =          0 seconds =       0.00 minutes
Total time:
	user time   =      22.53 seconds =       0.38 minutes
	system time =       1.18 seconds =       0.02 minutes
	total time  =          4 seconds =       0.07 minutes

  //>>>>>>>>>>>>>>>>>>>>>>>>>>>>>>>>>>>//
  //  CBS Results: mp2/aug-cc-pv[tq]z  //
  //<<<<<<<<<<<<<<<<<<<<<<<<<<<<<<<<<<<//


   ==> HF <==

   HI-zeta (4) Energy:               -56.223873929414


   ==> Helgaker 2-point correlated extrapolation for method: MP2 <==

   LO-zeta (3) Energy:               -56.477379516769
   HI-zeta (4) Energy:               -56.508077568338
   Alpha (exponent) Value:             3.000000000000
   Extrapolated Energy:              -56.530478849213

   @Extrapolated MP2/(T,Q):          -56.530478849213



   ==> Helgaker 2-point correlated extrapolation for method: HF <==

   LO-zeta (3) Energy:               -56.220222955289
   HI-zeta (4) Energy:               -56.223873929414
   Alpha (exponent) Value:             3.000000000000
   Extrapolated Energy:              -56.226538153775

   @Extrapolated HF/(T,Q):           -56.226538153775


   ==> Components <==

  ---------------------------------------------------------------------------------------------------------
                          Method / Basis                      Rqd      Energy [Eh]   Variable
  ---------------------------------------------------------------------------------------------------------
                              hf / aug-cc-pvtz                  *     -56.22022296   HF TOTAL ENERGY
                             mp2 / aug-cc-pvtz                  *     -56.47737952   MP2 TOTAL ENERGY
                              hf / aug-cc-pvqz                  *     -56.22387393   HF TOTAL ENERGY
                             mp2 / aug-cc-pvqz                  *     -56.50807757   MP2 TOTAL ENERGY
  ---------------------------------------------------------------------------------------------------------

   ==> Stages <==

  ---------------------------------------------------------------------------------------------------------
      Stage               Method / Basis                       Wt      Energy [Eh]   Scheme
  ---------------------------------------------------------------------------------------------------------
        scf                   hf / aug-cc-pvqz                  1     -56.22387393   xtpl_highest_1
       corl                  mp2 / aug-cc-pv[tq]z               1     -56.53047885   corl_xtpl_helgaker_2
       corl                   hf / aug-cc-pv[tq]z              -1     -56.22653815   corl_xtpl_helgaker_2
  ---------------------------------------------------------------------------------------------------------

   ==> CBS <==

  ---------------------------------------------------------------------------------------------------------
      Stage               Method / Basis                               Energy [Eh]   Scheme
  ---------------------------------------------------------------------------------------------------------
        scf                   hf / aug-cc-pvqz                        -56.22387393   xtpl_highest_1
       corl                  mp2 / aug-cc-pv[tq]z                      -0.30394070   corl_xtpl_helgaker_2
      total                  CBS                                      -56.52781462   
  ---------------------------------------------------------------------------------------------------------
   => Loading Basis Set <=

    Name: DEF2-SVP
    Role: ORBITAL
    Keyword: BASIS
    atoms 1   entry N          line   110 file /home/liuchw/anaconda3/envs/psi4env/share/psi4/basis/def2-svp.gbs 
    atoms 2-4 entry H          line    15 file /home/liuchw/anaconda3/envs/psi4env/share/psi4/basis/def2-svp.gbs 


       N-Body: Complex Energy (fragments = (2,), basis = (2,):   -56.52781462485166)

       N-Body: Computing complex (2/4) with fragments (2,) in the basis of fragments (1, 2).


Scratch directory: /scratch//

  //>>>>>>>>>>>>>>>>>>>>>>>>>>>>>>>>>>>//
  //   CBS Setup: mp2/aug-cc-pv[tq]z   //
  //<<<<<<<<<<<<<<<<<<<<<<<<<<<<<<<<<<<//

    Naive listing of computations required.
             hf / aug-cc-pvqz              for  HF TOTAL ENERGY
            mp2 / aug-cc-pvtz              for  MP2 TOTAL ENERGY
            mp2 / aug-cc-pvqz              for  MP2 TOTAL ENERGY
             hf / aug-cc-pvtz              for  HF TOTAL ENERGY
             hf / aug-cc-pvqz              for  HF TOTAL ENERGY

    Enlightened listing of computations required.
            mp2 / aug-cc-pvtz              for  MP2 TOTAL ENERGY
            mp2 / aug-cc-pvqz              for  MP2 TOTAL ENERGY

    Full listing of computations to be obtained (required and bonus).
             hf / aug-cc-pvtz              for  HF TOTAL ENERGY
            mp2 / aug-cc-pvtz              for  MP2 TOTAL ENERGY
             hf / aug-cc-pvqz              for  HF TOTAL ENERGY
            mp2 / aug-cc-pvqz              for  MP2 TOTAL ENERGY

  //>>>>>>>>>>>>>>>>>>>>>>>>>>>>>>>>>>>>//
  // CBS Computation: MP2 / AUG-CC-PVTZ //
  //<<<<<<<<<<<<<<<<<<<<<<<<<<<<<<<<<<<<//


Scratch directory: /scratch//

*** tstart() called on node59.bme.utexas.edu
*** at Sat Apr 11 16:30:10 2020

   => Loading Basis Set <=

    Name: AUG-CC-PVTZ
    Role: ORBITAL
    Keyword: BASIS
    atoms 1-2       entry C          line   239 file /home/liuchw/anaconda3/envs/psi4env/share/psi4/basis/aug-cc-pvtz.gbs 
    atoms 3-6, 8-10 entry H          line    40 file /home/liuchw/anaconda3/envs/psi4env/share/psi4/basis/aug-cc-pvtz.gbs 
    atoms 7         entry N          line   285 file /home/liuchw/anaconda3/envs/psi4env/share/psi4/basis/aug-cc-pvtz.gbs 


         ---------------------------------------------------------
                                   SCF
               by Justin Turney, Rob Parrish, Andy Simmonett
                          and Daniel G. A. Smith
                              RHF Reference
                        6 Threads,  38146 MiB Core
         ---------------------------------------------------------

  ==> Geometry <==

    Molecular point group: c1
    Full point group: C1

    Geometry (in Angstrom), charge = 0, multiplicity = 1:

       Center              X                  Y                   Z               Mass       
    ------------   -----------------  -----------------  -----------------  -----------------
      Gh(C)          -1.279440863673    -0.609383998137     0.000278893606    12.000000000000
      Gh(C)          -0.897703863673     0.667696001863    -0.000189106394    12.000000000000
      Gh(H)          -1.443134863673    -1.147464998137    -0.922404106394     1.007825032230
      Gh(H)          -1.442067863673    -1.147106998137     0.923359893606     1.007825032230
      Gh(H)          -0.735028863673     1.207080001863     0.921758893606     1.007825032230
      Gh(H)          -0.736083863673     1.206592001863    -0.922607106394     1.007825032230
         N            1.805298236327     0.020241201863    -0.000299606394    14.003074004430
         H            2.188671236327    -0.449948798137     0.809158393606     1.007825032230
         H            0.814638236327    -0.188724798137    -0.001741606394     1.007825032230
         H            2.192449236327    -0.455975798137    -0.804430606394     1.007825032230

  Running in c1 symmetry.

  Rotational constants: A =      0.82089  B =      0.17675  C =      0.15839 [cm^-1]
  Rotational constants: A =  24609.57852  B =   5298.69786  C =   4748.55562 [MHz]
  Nuclear repulsion =   11.964915390055808

  Charge       = 0
  Multiplicity = 1
  Electrons    = 10
  Nalpha       = 5
  Nbeta        = 5

  ==> Algorithm <==

  SCF Algorithm Type is DF.
  DIIS enabled.
  MOM disabled.
  Fractional occupation disabled.
  Guess Type is SAD.
  Energy threshold   = 1.00e-07
  Density threshold  = 1.00e-08
  Integral threshold = 0.00e+00

  ==> Primary Basis <==

  Basis Set: AUG-CC-PVTZ
    Blend: AUG-CC-PVTZ
    Number of shells: 105
    Number of basis function: 299
    Number of Cartesian functions: 340
    Spherical Harmonics?: true
    Max angular momentum: 3

   => Loading Basis Set <=

    Name: (AUG-CC-PVTZ AUX)
    Role: JKFIT
    Keyword: DF_BASIS_SCF
    atoms 1-2       entry C          line   162 file /home/liuchw/anaconda3/envs/psi4env/share/psi4/basis/aug-cc-pvtz-jkfit.gbs 
    atoms 3-6, 8-10 entry H          line    70 file /home/liuchw/anaconda3/envs/psi4env/share/psi4/basis/aug-cc-pvtz-jkfit.gbs 
    atoms 7         entry N          line   224 file /home/liuchw/anaconda3/envs/psi4env/share/psi4/basis/aug-cc-pvtz-jkfit.gbs 

  ==> Pre-Iterations <==

   -------------------------------------------------------
    Irrep   Nso     Nmo     Nalpha   Nbeta   Ndocc  Nsocc
   -------------------------------------------------------
     A        299     299       0       0       0       0
   -------------------------------------------------------
    Total     299     299       5       5       5       0
   -------------------------------------------------------

  ==> Integral Setup <==

  DFHelper Memory: AOs need 0.445 GiB; user supplied 27.940 GiB. Using in-core AOs.

  ==> MemDFJK: Density-Fitted J/K Matrices <==

    J tasked:                   Yes
    K tasked:                   Yes
    wK tasked:                   No
    OpenMP threads:               6
    Memory [MiB]:             28610
    Algorithm:                 Core
    Schwarz Cutoff:           1E-12
    Mask sparsity (%):       0.5884
    Fitting Condition:        1E-10

   => Auxiliary Basis Set <=

  Basis Set: (AUG-CC-PVTZ AUX)
    Blend: AUG-CC-PVTZ-JKFIT
    Number of shells: 188
    Number of basis function: 634
    Number of Cartesian functions: 778
    Spherical Harmonics?: true
    Max angular momentum: 4

  Minimum eigenvalue in the overlap matrix is 4.3214967219E-06.
  Using Symmetric Orthogonalization.

  SCF Guess: Superposition of Atomic Densities via on-the-fly atomic UHF.

  ==> Iterations <==

                           Total Energy        Delta E     RMS |[F,P]|

   @DF-RHF iter SAD:   -55.64538894255855   -5.56454e+01   0.00000e+00 
   @DF-RHF iter   1:   -56.12249019058886   -4.77101e-01   1.56040e-03 DIIS
   @DF-RHF iter   2:   -56.19142457421186   -6.89344e-02   9.04196e-04 DIIS
   @DF-RHF iter   3:   -56.21962319738157   -2.81986e-02   8.18115e-05 DIIS
   @DF-RHF iter   4:   -56.22025753316585   -6.34336e-04   1.52933e-05 DIIS
   @DF-RHF iter   5:   -56.22027868895601   -2.11558e-05   2.82442e-06 DIIS
   @DF-RHF iter   6:   -56.22027987751895   -1.18856e-06   6.66435e-07 DIIS
   @DF-RHF iter   7:   -56.22027994635160   -6.88326e-08   1.35100e-07 DIIS
   @DF-RHF iter   8:   -56.22027994928622   -2.93463e-09   2.06712e-08 DIIS
   @DF-RHF iter   9:   -56.22027994934828   -6.20588e-11   5.05028e-09 DIIS
  Energy and wave function converged.


  ==> Post-Iterations <==

    Orbital Energies [Eh]
    ---------------------

    Doubly Occupied:                                                      

       1A    -15.542185     2A     -1.144028     3A     -0.627924  
       4A     -0.627484     5A     -0.431791  

    Virtual:                                                              

       6A      0.020027     7A      0.038932     8A      0.040244  
       9A      0.041767    10A      0.060823    11A      0.062169  
      12A      0.073345    13A      0.092433    14A      0.103468  
      15A      0.104784    16A      0.119129    17A      0.125979  
      18A      0.126338    19A      0.150280    20A      0.158693  
      21A      0.164574    22A      0.171143    23A      0.178404  
      24A      0.208163    25A      0.223479    26A      0.234988  
      27A      0.236408    28A      0.255587    29A      0.272494  
      30A      0.284725    31A      0.293974    32A      0.298577  
      33A      0.300885    34A      0.303586    35A      0.321415  
      36A      0.326062    37A      0.347960    38A      0.350878  
      39A      0.356069    40A      0.359974    41A      0.369510  
      42A      0.383036    43A      0.391182    44A      0.392111  
      45A      0.405542    46A      0.417361    47A      0.423907  
      48A      0.434255    49A      0.450483    50A      0.450822  
      51A      0.466955    52A      0.471715    53A      0.472354  
      54A      0.507363    55A      0.511991    56A      0.522968  
      57A      0.540710    58A      0.550644    59A      0.574524  
      60A      0.576835    61A      0.594689    62A      0.612774  
      63A      0.618028    64A      0.618916    65A      0.646138  
      66A      0.646772    67A      0.655790    68A      0.666111  
      69A      0.671052    70A      0.689876    71A      0.700318  
      72A      0.709239    73A      0.767057    74A      0.774306  
      75A      0.803457    76A      0.829414    77A      0.873629  
      78A      0.880922    79A      0.896174    80A      0.926360  
      81A      0.934995    82A      0.947085    83A      0.954648  
      84A      0.972379    85A      0.976987    86A      0.979478  
      87A      0.992687    88A      1.007498    89A      1.017646  
      90A      1.039432    91A      1.043742    92A      1.056988  
      93A      1.068383    94A      1.090114    95A      1.096903  
      96A      1.098130    97A      1.115179    98A      1.126237  
      99A      1.132029   100A      1.140062   101A      1.150404  
     102A      1.153653   103A      1.162509   104A      1.178883  
     105A      1.185146   106A      1.187970   107A      1.217773  
     108A      1.219246   109A      1.229545   110A      1.231660  
     111A      1.266995   112A      1.290756   113A      1.296931  
     114A      1.310797   115A      1.315144   116A      1.357850  
     117A      1.361151   118A      1.369978   119A      1.375619  
     120A      1.390235   121A      1.394231   122A      1.406218  
     123A      1.420555   124A      1.440644   125A      1.444073  
     126A      1.479103   127A      1.486288   128A      1.511094  
     129A      1.518688   130A      1.529525   131A      1.561011  
     132A      1.584493   133A      1.614825   134A      1.636384  
     135A      1.694796   136A      1.695596   137A      1.736204  
     138A      1.780219   139A      1.782269   140A      1.797870  
     141A      1.812356   142A      1.818064   143A      1.838292  
     144A      1.893138   145A      1.924038   146A      1.944412  
     147A      1.962792   148A      1.999640   149A      2.022668  
     150A      2.023321   151A      2.045438   152A      2.078815  
     153A      2.079323   154A      2.081092   155A      2.129245  
     156A      2.174525   157A      2.175284   158A      2.193399  
     159A      2.201832   160A      2.207236   161A      2.231665  
     162A      2.243498   163A      2.299507   164A      2.315434  
     165A      2.331582   166A      2.351738   167A      2.352988  
     168A      2.367343   169A      2.404629   170A      2.430166  
     171A      2.436698   172A      2.449911   173A      2.468538  
     174A      2.482100   175A      2.518671   176A      2.530798  
     177A      2.621409   178A      2.690739   179A      2.692489  
     180A      2.706347   181A      2.724615   182A      2.792351  
     183A      2.848151   184A      2.978964   185A      3.253441  
     186A      3.337644   187A      3.526456   188A      3.663242  
     189A      3.735357   190A      3.807194   191A      3.927919  
     192A      3.992240   193A      4.000457   194A      4.032113  
     195A      4.062732   196A      4.086577   197A      4.112796  
     198A      4.137794   199A      4.140853   200A      4.172309  
     201A      4.183881   202A      4.199927   203A      4.229792  
     204A      4.233102   205A      4.280818   206A      4.283012  
     207A      4.288842   208A      4.312516   209A      4.315316  
     210A      4.337043   211A      4.385682   212A      4.388198  
     213A      4.419548   214A      4.420324   215A      4.444432  
     216A      4.466902   217A      4.490797   218A      4.525165  
     219A      4.549696   220A      4.581269   221A      4.607385  
     222A      4.622756   223A      4.669950   224A      4.671548  
     225A      4.713051   226A      4.736926   227A      4.780995  
     228A      4.818748   229A      4.832031   230A      4.859489  
     231A      4.892853   232A      4.909507   233A      4.924828  
     234A      4.937568   235A      4.950847   236A      4.979705  
     237A      5.004764   238A      5.017147   239A      5.078121  
     240A      5.087388   241A      5.126150   242A      5.144447  
     243A      5.149565   244A      5.202884   245A      5.279258  
     246A      5.307119   247A      5.346572   248A      5.355252  
     249A      5.409348   250A      5.431805   251A      5.450533  
     252A      5.515700   253A      5.531362   254A      5.552231  
     255A      5.624254   256A      5.654771   257A      5.661708  
     258A      5.688928   259A      5.749689   260A      5.782438  
     261A      5.819463   262A      5.823528   263A      5.874014  
     264A      5.949869   265A      5.974528   266A      6.001991  
     267A      6.035367   268A      6.090388   269A      6.111799  
     270A      6.155734   271A      6.221264   272A      6.245018  
     273A      6.260716   274A      6.386482   275A      6.432257  
     276A      6.460496   277A      6.592745   278A      6.764379  
     279A      6.898766   280A      6.973764   281A      7.024722  
     282A      7.129285   283A      7.202251   284A      7.361501  
     285A      7.566710   286A      7.637568   287A      7.703824  
     288A      7.767171   289A      7.785285   290A      7.891632  
     291A      8.108334   292A      8.305146   293A      8.397889  
     294A      8.915004   295A     10.607801   296A     10.986986  
     297A     18.711723   298A     52.043869   299A     52.850589  

    Final Occupation by Irrep:
              A 
    DOCC [     5 ]

  @DF-RHF Final Energy:   -56.22027994934828

   => Energetics <=

    Nuclear Repulsion Energy =             11.9649153900558076
    One-Electron Energy =                 -99.6235631558704142
    Two-Electron Energy =                  31.4383678164663287
    Total Energy =                        -56.2202799493482814

Computation Completed


Properties will be evaluated at   0.000000,   0.000000,   0.000000 [a0]

Properties computed using the SCF density matrix

  Nuclear Dipole Moment: [e a0]
     X:    33.6992      Y:    -1.8008      Z:     0.0017

  Electronic Dipole Moment: [e a0]
     X:   -33.8214      Y:     1.1616      Z:     0.0004

  Dipole Moment: [e a0]
     X:    -0.1223      Y:    -0.6392      Z:     0.0021     Total:     0.6508

  Dipole Moment: [D]
     X:    -0.3107      Y:    -1.6247      Z:     0.0054     Total:     1.6541


*** tstop() called on node59.bme.utexas.edu at Sat Apr 11 16:30:14 2020
Module time:
	user time   =      15.85 seconds =       0.26 minutes
	system time =       0.60 seconds =       0.01 minutes
	total time  =          4 seconds =       0.07 minutes
Total time:
	user time   =      40.01 seconds =       0.67 minutes
	system time =       1.85 seconds =       0.03 minutes
	total time  =          9 seconds =       0.15 minutes

*** tstart() called on node59.bme.utexas.edu
*** at Sat Apr 11 16:30:14 2020


  //>>>>>>>>>>>>>>>>>>>>>>>>>>>>>>>>>>>//
  //               DFMP2               //
  //<<<<<<<<<<<<<<<<<<<<<<<<<<<<<<<<<<<//

   => Loading Basis Set <=

    Name: (AUG-CC-PVTZ AUX)
    Role: RIFIT
    Keyword: DF_BASIS_MP2
    atoms 1-2       entry C          line   148 file /home/liuchw/anaconda3/envs/psi4env/share/psi4/basis/aug-cc-pvtz-ri.gbs 
    atoms 3-6, 8-10 entry H          line    30 file /home/liuchw/anaconda3/envs/psi4env/share/psi4/basis/aug-cc-pvtz-ri.gbs 
    atoms 7         entry N          line   206 file /home/liuchw/anaconda3/envs/psi4env/share/psi4/basis/aug-cc-pvtz-ri.gbs 

	 --------------------------------------------------------
	                          DF-MP2                         
	      2nd-Order Density-Fitted Moller-Plesset Theory     
	              RMP2 Wavefunction,   6 Threads             
	                                                         
	        Rob Parrish, Justin Turney, Andy Simmonett,      
	           Ed Hohenstein, and C. David Sherrill          
	 --------------------------------------------------------

   => Auxiliary Basis Set <=

  Basis Set: (AUG-CC-PVTZ AUX)
    Blend: AUG-CC-PVTZ-RI
    Number of shells: 182
    Number of basis function: 640
    Number of Cartesian functions: 793
    Spherical Harmonics?: true
    Max angular momentum: 4

	 --------------------------------------------------------
	                 NBF =   299, NAUX =   640
	 --------------------------------------------------------
	   CLASS    FOCC     OCC    AOCC    AVIR     VIR    FVIR
	   PAIRS       0       5       5     294     294       0
	 --------------------------------------------------------

	-----------------------------------------------------------
	 ==================> DF-MP2 Energies <==================== 
	-----------------------------------------------------------
	 Reference Energy          =     -56.2202799493482814 [Eh]
	 Singles Energy            =      -0.0000000000000000 [Eh]
	 Same-Spin Energy          =      -0.0561529102096775 [Eh]
	 Opposite-Spin Energy      =      -0.2021590951940302 [Eh]
	 Correlation Energy        =      -0.2583120054037077 [Eh]
	 Total Energy              =     -56.4785919547519910 [Eh]
	-----------------------------------------------------------
	 ================> DF-SCS-MP2 Energies <================== 
	-----------------------------------------------------------
	 SCS Same-Spin Scale       =       0.3333333333333333 [-]
	 SCS Opposite-Spin Scale   =       1.2000000000000000 [-]
	 SCS Same-Spin Energy      =      -0.0187176367365592 [Eh]
	 SCS Opposite-Spin Energy  =      -0.2425909142328362 [Eh]
	 SCS Correlation Energy    =      -0.2613085509693954 [Eh]
	 SCS Total Energy          =     -56.4815885003176774 [Eh]
	-----------------------------------------------------------


*** tstop() called on node59.bme.utexas.edu at Sat Apr 11 16:30:15 2020
Module time:
	user time   =       6.35 seconds =       0.11 minutes
	system time =       0.27 seconds =       0.00 minutes
	total time  =          1 seconds =       0.02 minutes
Total time:
	user time   =      46.36 seconds =       0.77 minutes
	system time =       2.12 seconds =       0.04 minutes
	total time  =         10 seconds =       0.17 minutes

  //>>>>>>>>>>>>>>>>>>>>>>>>>>>>>>>>>>>>//
  // CBS Computation: MP2 / AUG-CC-PVQZ //
  //<<<<<<<<<<<<<<<<<<<<<<<<<<<<<<<<<<<<//


Scratch directory: /scratch//

*** tstart() called on node59.bme.utexas.edu
*** at Sat Apr 11 16:30:15 2020

   => Loading Basis Set <=

    Name: AUG-CC-PVQZ
    Role: ORBITAL
    Keyword: BASIS
    atoms 1-2       entry C          line   303 file /home/liuchw/anaconda3/envs/psi4env/share/psi4/basis/aug-cc-pvqz.gbs 
    atoms 3-6, 8-10 entry H          line    40 file /home/liuchw/anaconda3/envs/psi4env/share/psi4/basis/aug-cc-pvqz.gbs 
    atoms 7         entry N          line   363 file /home/liuchw/anaconda3/envs/psi4env/share/psi4/basis/aug-cc-pvqz.gbs 


         ---------------------------------------------------------
                                   SCF
               by Justin Turney, Rob Parrish, Andy Simmonett
                          and Daniel G. A. Smith
                              RHF Reference
                        6 Threads,  38146 MiB Core
         ---------------------------------------------------------

  ==> Geometry <==

    Molecular point group: c1
    Full point group: C1

    Geometry (in Angstrom), charge = 0, multiplicity = 1:

       Center              X                  Y                   Z               Mass       
    ------------   -----------------  -----------------  -----------------  -----------------
      Gh(C)          -1.279440863673    -0.609383998137     0.000278893606    12.000000000000
      Gh(C)          -0.897703863673     0.667696001863    -0.000189106394    12.000000000000
      Gh(H)          -1.443134863673    -1.147464998137    -0.922404106394     1.007825032230
      Gh(H)          -1.442067863673    -1.147106998137     0.923359893606     1.007825032230
      Gh(H)          -0.735028863673     1.207080001863     0.921758893606     1.007825032230
      Gh(H)          -0.736083863673     1.206592001863    -0.922607106394     1.007825032230
         N            1.805298236327     0.020241201863    -0.000299606394    14.003074004430
         H            2.188671236327    -0.449948798137     0.809158393606     1.007825032230
         H            0.814638236327    -0.188724798137    -0.001741606394     1.007825032230
         H            2.192449236327    -0.455975798137    -0.804430606394     1.007825032230

  Running in c1 symmetry.

  Rotational constants: A =      0.82089  B =      0.17675  C =      0.15839 [cm^-1]
  Rotational constants: A =  24609.57852  B =   5298.69786  C =   4748.55562 [MHz]
  Nuclear repulsion =   11.964915390055808

  Charge       = 0
  Multiplicity = 1
  Electrons    = 10
  Nalpha       = 5
  Nbeta        = 5

  ==> Algorithm <==

  SCF Algorithm Type is DF.
  DIIS enabled.
  MOM disabled.
  Fractional occupation disabled.
  Guess Type is SAD.
  Energy threshold   = 1.00e-07
  Density threshold  = 1.00e-08
  Integral threshold = 0.00e+00

  ==> Primary Basis <==

  Basis Set: AUG-CC-PVQZ
    Blend: AUG-CC-PVQZ
    Number of shells: 158
    Number of basis function: 562
    Number of Cartesian functions: 700
    Spherical Harmonics?: true
    Max angular momentum: 4

   => Loading Basis Set <=

    Name: (AUG-CC-PVQZ AUX)
    Role: JKFIT
    Keyword: DF_BASIS_SCF
    atoms 1-2       entry C          line   178 file /home/liuchw/anaconda3/envs/psi4env/share/psi4/basis/aug-cc-pvqz-jkfit.gbs 
    atoms 3-6, 8-10 entry H          line    70 file /home/liuchw/anaconda3/envs/psi4env/share/psi4/basis/aug-cc-pvqz-jkfit.gbs 
    atoms 7         entry N          line   248 file /home/liuchw/anaconda3/envs/psi4env/share/psi4/basis/aug-cc-pvqz-jkfit.gbs 

  ==> Pre-Iterations <==

   -------------------------------------------------------
    Irrep   Nso     Nmo     Nalpha   Nbeta   Ndocc  Nsocc
   -------------------------------------------------------
     A        562     562       0       0       0       0
   -------------------------------------------------------
    Total     562     562       5       5       5       0
   -------------------------------------------------------

  ==> Integral Setup <==

  DFHelper Memory: AOs need 2.291 GiB; user supplied 27.940 GiB. Using in-core AOs.

  ==> MemDFJK: Density-Fitted J/K Matrices <==

    J tasked:                   Yes
    K tasked:                   Yes
    wK tasked:                   No
    OpenMP threads:               6
    Memory [MiB]:             28610
    Algorithm:                 Core
    Schwarz Cutoff:           1E-12
    Mask sparsity (%):       2.7545
    Fitting Condition:        1E-10

   => Auxiliary Basis Set <=

  Basis Set: (AUG-CC-PVQZ AUX)
    Blend: AUG-CC-PVQZ-JKFIT
    Number of shells: 228
    Number of basis function: 958
    Number of Cartesian functions: 1301
    Spherical Harmonics?: true
    Max angular momentum: 5

  Minimum eigenvalue in the overlap matrix is 1.6442180728E-06.
  Using Symmetric Orthogonalization.

  SCF Guess: Superposition of Atomic Densities via on-the-fly atomic UHF.

  ==> Iterations <==

                           Total Energy        Delta E     RMS |[F,P]|

   @DF-RHF iter SAD:   -55.64851685546286   -5.56485e+01   0.00000e+00 
   @DF-RHF iter   1:   -56.12576890113886   -4.77252e-01   8.31699e-04 DIIS
   @DF-RHF iter   2:   -56.19486006597370   -6.90912e-02   4.82876e-04 DIIS
   @DF-RHF iter   3:   -56.22322614883810   -2.83661e-02   4.37591e-05 DIIS
   @DF-RHF iter   4:   -56.22386425548805   -6.38107e-04   8.28268e-06 DIIS
   @DF-RHF iter   5:   -56.22388590645015   -2.16510e-05   1.54701e-06 DIIS
   @DF-RHF iter   6:   -56.22388715518635   -1.24874e-06   3.75006e-07 DIIS
   @DF-RHF iter   7:   -56.22388722896151   -7.37752e-08   8.03165e-08 DIIS
   @DF-RHF iter   8:   -56.22388723235481   -3.39330e-09   1.14434e-08 DIIS
   @DF-RHF iter   9:   -56.22388723241955   -6.47375e-11   2.74845e-09 DIIS
  Energy and wave function converged.


  ==> Post-Iterations <==

    Orbital Energies [Eh]
    ---------------------

    Doubly Occupied:                                                      

       1A    -15.540612     2A     -1.143733     3A     -0.628026  
       4A     -0.627592     5A     -0.432000  

    Virtual:                                                              

       6A      0.018070     7A      0.034839     8A      0.036402  
       9A      0.037584    10A      0.053805    11A      0.056355  
      12A      0.066562    13A      0.081581    14A      0.089122  
      15A      0.090220    16A      0.104701    17A      0.110584  
      18A      0.111081    19A      0.129652    20A      0.135471  
      21A      0.139765    22A      0.151626    23A      0.154934  
      24A      0.181438    25A      0.189555    26A      0.195375  
      27A      0.201181    28A      0.215225    29A      0.225991  
      30A      0.241814    31A      0.246552    32A      0.251476  
      33A      0.255454    34A      0.255919    35A      0.264528  
      36A      0.271172    37A      0.288570    38A      0.289653  
      39A      0.292538    40A      0.298352    41A      0.310245  
      42A      0.311205    43A      0.328158    44A      0.328869  
      45A      0.330649    46A      0.337670    47A      0.346660  
      48A      0.351174    49A      0.369751    50A      0.370155  
      51A      0.381420    52A      0.385925    53A      0.393298  
      54A      0.405028    55A      0.418508    56A      0.425959  
      57A      0.434580    58A      0.436221    59A      0.451868  
      60A      0.452341    61A      0.471686    62A      0.482892  
      63A      0.490682    64A      0.492248    65A      0.508435  
      66A      0.509327    67A      0.521748    68A      0.528926  
      69A      0.532972    70A      0.547882    71A      0.557159  
      72A      0.566402    73A      0.589748    74A      0.639991  
      75A      0.641486    76A      0.648151    77A      0.659162  
      78A      0.674716    79A      0.682206    80A      0.698441  
      81A      0.698857    82A      0.708622    83A      0.720763  
      84A      0.735189    85A      0.741732    86A      0.747706  
      87A      0.753072    88A      0.760685    89A      0.772628  
      90A      0.780757    91A      0.790610    92A      0.805330  
      93A      0.807438    94A      0.809635    95A      0.824184  
      96A      0.827734    97A      0.834183    98A      0.842290  
      99A      0.851961   100A      0.856911   101A      0.860616  
     102A      0.874772   103A      0.877779   104A      0.891012  
     105A      0.899595   106A      0.915119   107A      0.917301  
     108A      0.920840   109A      0.937263   110A      0.947544  
     111A      0.953966   112A      0.967854   113A      0.971872  
     114A      0.994754   115A      0.996396   116A      0.999083  
     117A      1.015395   118A      1.032859   119A      1.034358  
     120A      1.036401   121A      1.047880   122A      1.053506  
     123A      1.062583   124A      1.078965   125A      1.083589  
     126A      1.085231   127A      1.120357   128A      1.122893  
     129A      1.154481   130A      1.155972   131A      1.179783  
     132A      1.189500   133A      1.191570   134A      1.213486  
     135A      1.246663   136A      1.249798   137A      1.284339  
     138A      1.312951   139A      1.322909   140A      1.329774  
     141A      1.332912   142A      1.339467   143A      1.359837  
     144A      1.406608   145A      1.409889   146A      1.425052  
     147A      1.445419   148A      1.456568   149A      1.486583  
     150A      1.506961   151A      1.508984   152A      1.517163  
     153A      1.526592   154A      1.532865   155A      1.562382  
     156A      1.566623   157A      1.567988   158A      1.572545  
     159A      1.580734   160A      1.581820   161A      1.593667  
     162A      1.607927   163A      1.634862   164A      1.640221  
     165A      1.668373   166A      1.677744   167A      1.684545  
     168A      1.696980   169A      1.702139   170A      1.745982  
     171A      1.747509   172A      1.751621   173A      1.752198  
     174A      1.775007   175A      1.793907   176A      1.802316  
     177A      1.812471   178A      1.812628   179A      1.836584  
     180A      1.849357   181A      1.859696   182A      1.872037  
     183A      1.883661   184A      1.902670   185A      1.904861  
     186A      1.908404   187A      1.911606   188A      1.949242  
     189A      1.950762   190A      1.954326   191A      1.974646  
     192A      1.979857   193A      1.987494   194A      2.002136  
     195A      2.014627   196A      2.015534   197A      2.029820  
     198A      2.041816   199A      2.057909   200A      2.062605  
     201A      2.077610   202A      2.079004   203A      2.094005  
     204A      2.117229   205A      2.138236   206A      2.139278  
     207A      2.153799   208A      2.178837   209A      2.185323  
     210A      2.189067   211A      2.209795   212A      2.214887  
     213A      2.224450   214A      2.247769   215A      2.251773  
     216A      2.262334   217A      2.303489   218A      2.312929  
     219A      2.325499   220A      2.332434   221A      2.346470  
     222A      2.383677   223A      2.384764   224A      2.424204  
     225A      2.426817   226A      2.434138   227A      2.442152  
     228A      2.461892   229A      2.488440   230A      2.499456  
     231A      2.515012   232A      2.528159   233A      2.550302  
     234A      2.582856   235A      2.591256   236A      2.600452  
     237A      2.639546   238A      2.642144   239A      2.683010  
     240A      2.685112   241A      2.712548   242A      2.739270  
     243A      2.741162   244A      2.773362   245A      2.774964  
     246A      2.803750   247A      2.808420   248A      2.814451  
     249A      2.863651   250A      2.878112   251A      2.878528  
     252A      2.903075   253A      2.966831   254A      2.969697  
     255A      2.980401   256A      3.004341   257A      3.018485  
     258A      3.035159   259A      3.045456   260A      3.048605  
     261A      3.083090   262A      3.088627   263A      3.093044  
     264A      3.101884   265A      3.104958   266A      3.121940  
     267A      3.146907   268A      3.170847   269A      3.173629  
     270A      3.178306   271A      3.183526   272A      3.196714  
     273A      3.215115   274A      3.235112   275A      3.253616  
     276A      3.269766   277A      3.281080   278A      3.282050  
     279A      3.302403   280A      3.343768   281A      3.348285  
     282A      3.364009   283A      3.376981   284A      3.386276  
     285A      3.418088   286A      3.421481   287A      3.447457  
     288A      3.465974   289A      3.466764   290A      3.486434  
     291A      3.511570   292A      3.515476   293A      3.566799  
     294A      3.594747   295A      3.624367   296A      3.657270  
     297A      3.658960   298A      3.677037   299A      3.719819  
     300A      3.728069   301A      3.739194   302A      3.771467  
     303A      3.812744   304A      3.816485   305A      3.836412  
     306A      3.842356   307A      3.850220   308A      3.921527  
     309A      3.966375   310A      3.979142   311A      4.006091  
     312A      4.028634   313A      4.030615   314A      4.032477  
     315A      4.051591   316A      4.073005   317A      4.094269  
     318A      4.105974   319A      4.161384   320A      4.173098  
     321A      4.194190   322A      4.216987   323A      4.235066  
     324A      4.254328   325A      4.322262   326A      4.336689  
     327A      4.338603   328A      4.359197   329A      4.387751  
     330A      4.442192   331A      4.451282   332A      4.483254  
     333A      4.495589   334A      4.532477   335A      4.546951  
     336A      4.574798   337A      4.581336   338A      4.619470  
     339A      4.659928   340A      4.689710   341A      4.717178  
     342A      4.795471   343A      4.838764   344A      4.856746  
     345A      4.870635   346A      4.880110   347A      4.983186  
     348A      4.988841   349A      4.999907   350A      5.037924  
     351A      5.060661   352A      5.073363   353A      5.107602  
     354A      5.129078   355A      5.137924   356A      5.149274  
     357A      5.204549   358A      5.222732   359A      5.234004  
     360A      5.260043   361A      5.283490   362A      5.463487  
     363A      5.520768   364A      5.540319   365A      5.568976  
     366A      5.602130   367A      5.611385   368A      5.682094  
     369A      5.702481   370A      5.859968   371A      5.929857  
     372A      6.019948   373A      6.228226   374A      6.505946  
     375A      6.665196   376A      6.759074   377A      6.770088  
     378A      6.773285   379A      6.798932   380A      6.829250  
     381A      6.891258   382A      6.899763   383A      6.937503  
     384A      6.961970   385A      6.988101   386A      6.989840  
     387A      7.046662   388A      7.060148   389A      7.069442  
     390A      7.076743   391A      7.148158   392A      7.176469  
     393A      7.228261   394A      7.256552   395A      7.257673  
     396A      7.304323   397A      7.306586   398A      7.313245  
     399A      7.344296   400A      7.356108   401A      7.378447  
     402A      7.405481   403A      7.428696   404A      7.442848  
     405A      7.450582   406A      7.464316   407A      7.517287  
     408A      7.518493   409A      7.570956   410A      7.576316  
     411A      7.660414   412A      7.704681   413A      7.732139  
     414A      7.733478   415A      7.760247   416A      7.797681  
     417A      7.828032   418A      7.844400   419A      7.909083  
     420A      7.921607   421A      7.933642   422A      7.941144  
     423A      7.998653   424A      8.038377   425A      8.058440  
     426A      8.083770   427A      8.104729   428A      8.129978  
     429A      8.147529   430A      8.194575   431A      8.204744  
     432A      8.219929   433A      8.250366   434A      8.354059  
     435A      8.424933   436A      8.456316   437A      8.486815  
     438A      8.552660   439A      8.566151   440A      8.583843  
     441A      8.612976   442A      8.632959   443A      8.690355  
     444A      8.723805   445A      8.742266   446A      8.751062  
     447A      8.806358   448A      8.813756   449A      8.942429  
     450A      8.948265   451A      8.956898   452A      8.983528  
     453A      8.989261   454A      9.009264   455A      9.080942  
     456A      9.095259   457A      9.107119   458A      9.118912  
     459A      9.134428   460A      9.145198   461A      9.165010  
     462A      9.182112   463A      9.216187   464A      9.270104  
     465A      9.336096   466A      9.366899   467A      9.428997  
     468A      9.430367   469A      9.446730   470A      9.459193  
     471A      9.529986   472A      9.543939   473A      9.553280  
     474A      9.567014   475A      9.610519   476A      9.616798  
     477A      9.630665   478A      9.671973   479A      9.687505  
     480A      9.694114   481A      9.759714   482A      9.773019  
     483A      9.788277   484A      9.807078   485A      9.821728  
     486A      9.873746   487A      9.878978   488A      9.916271  
     489A      9.932706   490A      9.957273   491A     10.027896  
     492A     10.029921   493A     10.070486   494A     10.070662  
     495A     10.189940   496A     10.204203   497A     10.206874  
     498A     10.230453   499A     10.239776   500A     10.268826  
     501A     10.313616   502A     10.335263   503A     10.426055  
     504A     10.443386   505A     10.475261   506A     10.515093  
     507A     10.539736   508A     10.551494   509A     10.623203  
     510A     10.628563   511A     10.682451   512A     10.720018  
     513A     10.739770   514A     10.750144   515A     10.862636  
     516A     10.909013   517A     10.931476   518A     10.981785  
     519A     11.027556   520A     11.068604   521A     11.127779  
     522A     11.190939   523A     11.209967   524A     11.219138  
     525A     11.296898   526A     11.305830   527A     11.422536  
     528A     11.784015   529A     11.823469   530A     11.940216  
     531A     11.969207   532A     12.230421   533A     12.252733  
     534A     12.269638   535A     12.280561   536A     12.365086  
     537A     12.400219   538A     12.426383   539A     12.512316  
     540A     12.620973   541A     12.854755   542A     13.077838  
     543A     13.186497   544A     13.200285   545A     13.259211  
     546A     13.466884   547A     13.577489   548A     13.923374  
     549A     14.121346   550A     14.321302   551A     14.498717  
     552A     14.926334   553A     15.166727   554A     15.204147  
     555A     15.333801   556A     16.808874   557A     17.455065  
     558A     17.469894   559A     18.135977   560A     36.913366  
     561A     69.382082   562A     70.218200  

    Final Occupation by Irrep:
              A 
    DOCC [     5 ]

  @DF-RHF Final Energy:   -56.22388723241955

   => Energetics <=

    Nuclear Repulsion Energy =             11.9649153900558076
    One-Electron Energy =                 -99.6336769564003077
    Two-Electron Energy =                  31.4448743339249503
    Total Energy =                        -56.2238872324195498

Computation Completed


Properties will be evaluated at   0.000000,   0.000000,   0.000000 [a0]

Properties computed using the SCF density matrix

  Nuclear Dipole Moment: [e a0]
     X:    33.6992      Y:    -1.8008      Z:     0.0017

  Electronic Dipole Moment: [e a0]
     X:   -33.8213      Y:     1.1617      Z:     0.0004

  Dipole Moment: [e a0]
     X:    -0.1221      Y:    -0.6391      Z:     0.0021     Total:     0.6507

  Dipole Moment: [D]
     X:    -0.3104      Y:    -1.6244      Z:     0.0054     Total:     1.6538


*** tstop() called on node59.bme.utexas.edu at Sat Apr 11 16:30:26 2020
Module time:
	user time   =      57.85 seconds =       0.96 minutes
	system time =       1.59 seconds =       0.03 minutes
	total time  =         11 seconds =       0.18 minutes
Total time:
	user time   =     104.24 seconds =       1.74 minutes
	system time =       3.71 seconds =       0.06 minutes
	total time  =         21 seconds =       0.35 minutes

*** tstart() called on node59.bme.utexas.edu
*** at Sat Apr 11 16:30:26 2020


  //>>>>>>>>>>>>>>>>>>>>>>>>>>>>>>>>>>>//
  //               DFMP2               //
  //<<<<<<<<<<<<<<<<<<<<<<<<<<<<<<<<<<<//

   => Loading Basis Set <=

    Name: (AUG-CC-PVQZ AUX)
    Role: RIFIT
    Keyword: DF_BASIS_MP2
    atoms 1-2       entry C          line   184 file /home/liuchw/anaconda3/envs/psi4env/share/psi4/basis/aug-cc-pvqz-ri.gbs 
    atoms 3-6, 8-10 entry H          line    30 file /home/liuchw/anaconda3/envs/psi4env/share/psi4/basis/aug-cc-pvqz-ri.gbs 
    atoms 7         entry N          line   258 file /home/liuchw/anaconda3/envs/psi4env/share/psi4/basis/aug-cc-pvqz-ri.gbs 

	 --------------------------------------------------------
	                          DF-MP2                         
	      2nd-Order Density-Fitted Moller-Plesset Theory     
	              RMP2 Wavefunction,   6 Threads             
	                                                         
	        Rob Parrish, Justin Turney, Andy Simmonett,      
	           Ed Hohenstein, and C. David Sherrill          
	 --------------------------------------------------------

   => Auxiliary Basis Set <=

  Basis Set: (AUG-CC-PVQZ AUX)
    Blend: AUG-CC-PVQZ-RI
    Number of shells: 248
    Number of basis function: 1064
    Number of Cartesian functions: 1446
    Spherical Harmonics?: true
    Max angular momentum: 5

	 --------------------------------------------------------
	                 NBF =   562, NAUX =  1064
	 --------------------------------------------------------
	   CLASS    FOCC     OCC    AOCC    AVIR     VIR    FVIR
	   PAIRS       0       5       5     557     557       0
	 --------------------------------------------------------

	-----------------------------------------------------------
	 ==================> DF-MP2 Energies <==================== 
	-----------------------------------------------------------
	 Reference Energy          =     -56.2238872324195498 [Eh]
	 Singles Energy            =      -0.0000000000000000 [Eh]
	 Same-Spin Energy          =      -0.0594290409604352 [Eh]
	 Opposite-Spin Energy      =      -0.2250549130231869 [Eh]
	 Correlation Energy        =      -0.2844839539836221 [Eh]
	 Total Energy              =     -56.5083711864031741 [Eh]
	-----------------------------------------------------------
	 ================> DF-SCS-MP2 Energies <================== 
	-----------------------------------------------------------
	 SCS Same-Spin Scale       =       0.3333333333333333 [-]
	 SCS Opposite-Spin Scale   =       1.2000000000000000 [-]
	 SCS Same-Spin Energy      =      -0.0198096803201451 [Eh]
	 SCS Opposite-Spin Energy  =      -0.2700658956278242 [Eh]
	 SCS Correlation Energy    =      -0.2898755759479693 [Eh]
	 SCS Total Energy          =     -56.5137628083675168 [Eh]
	-----------------------------------------------------------


*** tstop() called on node59.bme.utexas.edu at Sat Apr 11 16:30:31 2020
Module time:
	user time   =      23.11 seconds =       0.39 minutes
	system time =       0.73 seconds =       0.01 minutes
	total time  =          5 seconds =       0.08 minutes
Total time:
	user time   =     127.36 seconds =       2.12 minutes
	system time =       4.44 seconds =       0.07 minutes
	total time  =         26 seconds =       0.43 minutes

  //>>>>>>>>>>>>>>>>>>>>>>>>>>>>>>>>>>>//
  //  CBS Results: mp2/aug-cc-pv[tq]z  //
  //<<<<<<<<<<<<<<<<<<<<<<<<<<<<<<<<<<<//


   ==> HF <==

   HI-zeta (4) Energy:               -56.223887232420


   ==> Helgaker 2-point correlated extrapolation for method: MP2 <==

   LO-zeta (3) Energy:               -56.478591954752
   HI-zeta (4) Energy:               -56.508371186403
   Alpha (exponent) Value:             3.000000000000
   Extrapolated Energy:              -56.530101977068

   @Extrapolated MP2/(T,Q):          -56.530101977068



   ==> Helgaker 2-point correlated extrapolation for method: HF <==

   LO-zeta (3) Energy:               -56.220279949348
   HI-zeta (4) Energy:               -56.223887232420
   Alpha (exponent) Value:             3.000000000000
   Extrapolated Energy:              -56.226519574120

   @Extrapolated HF/(T,Q):           -56.226519574120


   ==> Components <==

  ---------------------------------------------------------------------------------------------------------
                          Method / Basis                      Rqd      Energy [Eh]   Variable
  ---------------------------------------------------------------------------------------------------------
                              hf / aug-cc-pvtz                  *     -56.22027995   HF TOTAL ENERGY
                             mp2 / aug-cc-pvtz                  *     -56.47859195   MP2 TOTAL ENERGY
                              hf / aug-cc-pvqz                  *     -56.22388723   HF TOTAL ENERGY
                             mp2 / aug-cc-pvqz                  *     -56.50837119   MP2 TOTAL ENERGY
  ---------------------------------------------------------------------------------------------------------

   ==> Stages <==

  ---------------------------------------------------------------------------------------------------------
      Stage               Method / Basis                       Wt      Energy [Eh]   Scheme
  ---------------------------------------------------------------------------------------------------------
        scf                   hf / aug-cc-pvqz                  1     -56.22388723   xtpl_highest_1
       corl                  mp2 / aug-cc-pv[tq]z               1     -56.53010198   corl_xtpl_helgaker_2
       corl                   hf / aug-cc-pv[tq]z              -1     -56.22651957   corl_xtpl_helgaker_2
  ---------------------------------------------------------------------------------------------------------

   ==> CBS <==

  ---------------------------------------------------------------------------------------------------------
      Stage               Method / Basis                               Energy [Eh]   Scheme
  ---------------------------------------------------------------------------------------------------------
        scf                   hf / aug-cc-pvqz                        -56.22388723   xtpl_highest_1
       corl                  mp2 / aug-cc-pv[tq]z                      -0.30358240   corl_xtpl_helgaker_2
      total                  CBS                                      -56.52746964   
  ---------------------------------------------------------------------------------------------------------
   => Loading Basis Set <=

    Name: DEF2-SVP
    Role: ORBITAL
    Keyword: BASIS
    atoms 1-2       entry C          line    90 file /home/liuchw/anaconda3/envs/psi4env/share/psi4/basis/def2-svp.gbs 
[...]
      92A      0.719396    93A      0.720856    94A      0.721499  
      95A      0.735992    96A      0.742129    97A      0.748132  
      98A      0.749975    99A      0.757743   100A      0.775475  
     101A      0.792853   102A      0.796226   103A      0.799461  
     104A      0.807084   105A      0.825468   106A      0.830920  
     107A      0.834157   108A      0.837841   109A      0.842854  
     110A      0.851689   111A      0.861182   112A      0.863088  
     113A      0.875895   114A      0.878063   115A      0.887642  
     116A      0.913292   117A      0.929622   118A      0.931517  
     119A      0.942236   120A      0.946960   121A      0.961989  
     122A      0.972778   123A      0.980584   124A      0.987761  
     125A      1.000971   126A      1.012665   127A      1.015360  
     128A      1.034815   129A      1.049887   130A      1.052015  
     131A      1.063358   132A      1.085271   133A      1.113786  
     134A      1.122007   135A      1.123181   136A      1.144842  
     137A      1.149501   138A      1.178388   139A      1.183650  
     140A      1.191127   141A      1.196734   142A      1.213382  
     143A      1.240068   144A      1.245688   145A      1.260002  
     146A      1.269934   147A      1.282813   148A      1.290007  
     149A      1.322125   150A      1.325110   151A      1.330865  
     152A      1.334440   153A      1.348791   154A      1.377567  
     155A      1.383754   156A      1.404610   157A      1.423545  
     158A      1.435702   159A      1.446371   160A      1.461466  
     161A      1.472442   162A      1.482690   163A      1.500323  
     164A      1.517636   165A      1.519422   166A      1.535055  
     167A      1.543610   168A      1.572450   169A      1.574637  
     170A      1.595768   171A      1.597021   172A      1.604005  
     173A      1.622844   174A      1.638998   175A      1.649888  
     176A      1.675159   177A      1.695583   178A      1.697593  
     179A      1.723123   180A      1.729430   181A      1.751395  
     182A      1.759965   183A      1.772135   184A      1.788933  
     185A      1.792792   186A      1.801392   187A      1.821928  
     188A      1.835900   189A      1.851464   190A      1.861479  
     191A      1.864442   192A      1.878529   193A      1.895006  
     194A      1.909454   195A      1.920603   196A      1.941773  
     197A      1.945221   198A      1.948176   199A      1.961994  
     200A      1.966387   201A      1.983616   202A      2.009460  
     203A      2.015623   204A      2.021566   205A      2.023267  
     206A      2.042587   207A      2.046599   208A      2.061157  
     209A      2.078481   210A      2.079057   211A      2.098295  
     212A      2.108583   213A      2.110850   214A      2.115652  
     215A      2.132671   216A      2.157017   217A      2.173381  
     218A      2.174109   219A      2.184272   220A      2.185039  
     221A      2.205998   222A      2.215434   223A      2.221093  
     224A      2.233357   225A      2.241288   226A      2.271849  
     227A      2.289816   228A      2.296382   229A      2.307004  
     230A      2.332263   231A      2.342403   232A      2.366867  
     233A      2.374453   234A      2.378290   235A      2.388291  
     236A      2.404114   237A      2.417168   238A      2.426424  
     239A      2.453419   240A      2.459928   241A      2.485334  
     242A      2.489118   243A      2.510151   244A      2.521305  
     245A      2.553129   246A      2.564066   247A      2.590608  
     248A      2.592564   249A      2.616614   250A      2.628271  
     251A      2.629828   252A      2.636324   253A      2.673183  
     254A      2.690270   255A      2.695963   256A      2.710417  
     257A      2.733637   258A      2.757859   259A      2.772607  
     260A      2.850032   261A      2.851643   262A      2.855930  
     263A      2.874438   264A      2.885418   265A      2.897715  
     266A      2.939661   267A      2.943515   268A      2.964446  
     269A      2.975143   270A      2.987585   271A      3.010744  
     272A      3.026172   273A      3.034429   274A      3.057528  
     275A      3.062542   276A      3.078427   277A      3.089088  
     278A      3.107785   279A      3.110776   280A      3.122076  
     281A      3.133279   282A      3.148541   283A      3.159076  
     284A      3.181765   285A      3.185272   286A      3.211948  
     287A      3.228984   288A      3.240953   289A      3.252212  
     290A      3.324891   291A      3.342055   292A      3.358339  
     293A      3.366181   294A      3.381189   295A      3.395960  
     296A      3.420456   297A      3.442682   298A      3.447528  
     299A      3.490538   300A      3.515901   301A      3.521710  
     302A      3.559180   303A      3.569572   304A      3.610281  
     305A      3.634609   306A      3.672078   307A      3.677574  
     308A      3.681994   309A      3.710745   310A      3.720140  
     311A      3.745365   312A      3.765659   313A      3.809327  
     314A      3.828720   315A      3.835196   316A      3.850326  
     317A      3.864819   318A      3.892036   319A      3.925412  
     320A      3.932174   321A      3.952092   322A      3.982741  
     323A      3.998352   324A      4.016039   325A      4.040809  
     326A      4.055300   327A      4.058028   328A      4.072747  
     329A      4.137119   330A      4.173335   331A      4.211584  
     332A      4.215603   333A      4.222192   334A      4.260152  
     335A      4.285288   336A      4.296889   337A      4.327798  
     338A      4.331166   339A      4.388089   340A      4.396789  
     341A      4.413450   342A      4.438413   343A      4.449230  
     344A      4.484604   345A      4.522883   346A      4.534121  
     347A      4.539019   348A      4.550202   349A      4.571933  
     350A      4.588942   351A      4.612753   352A      4.626509  
     353A      4.641234   354A      4.730109   355A      4.761298  
     356A      4.808878   357A      4.856950   358A      4.893076  
     359A      4.954501   360A      4.955062   361A      5.009486  
     362A      5.084601   363A      5.106844   364A      5.119283  
     365A      5.194868   366A      5.210526   367A      5.241583  
     368A      5.264611   369A      5.297505   370A      5.440289  
     371A      5.498730   372A      5.525218   373A      5.543517  
     374A      5.614286   375A      5.788439   376A      5.957584  
     377A      6.045539   378A      6.172948   379A      6.185179  
     380A      6.217630   381A      6.264953   382A      6.288201  
     383A      6.313040   384A      6.376108   385A      6.393083  
     386A      6.497657   387A      6.502495   388A      6.522196  
     389A      6.525963   390A      6.601973   391A      6.646953  
     392A      6.653720   393A      6.733201   394A      6.758106  
     395A      6.767431   396A      6.831307   397A      6.864766  
     398A      6.866961   399A      6.902502   400A      6.909571  
     401A      6.926037   402A      6.956974   403A      7.004023  
     404A      7.018041   405A      7.018892   406A      7.042857  
     407A      7.043307   408A      7.060649   409A      7.086479  
     410A      7.102703   411A      7.144580   412A      7.148393  
     413A      7.176154   414A      7.202788   415A      7.262754  
     416A      7.298278   417A      7.303271   418A      7.319667  
     419A      7.333913   420A      7.415236   421A      7.437229  
     422A      7.444257   423A      7.451790   424A      7.463337  
     425A      7.505562   426A      7.524788   427A      7.580069  
     428A      7.588370   429A      7.635640   430A      7.677135  
     431A      7.698921   432A      7.739980   433A      7.750819  
     434A      7.761230   435A      7.775091   436A      7.782462  
     437A      7.798999   438A      7.893877   439A      7.909463  
     440A      7.932539   441A      7.955976   442A      8.006363  
     443A      8.021541   444A      8.024916   445A      8.035134  
     446A      8.112653   447A      8.130414   448A      8.164702  
     449A      8.196572   450A      8.233578   451A      8.301543  
     452A      8.342565   453A      8.368476   454A      8.400106  
     455A      8.425668   456A      8.477940   457A      8.531811  
     458A      8.544652   459A      8.623574   460A      8.642646  
     461A      8.647282   462A      8.684392   463A      8.711787  
     464A      8.724702   465A      8.748780   466A      8.767892  
     467A      8.783154   468A      8.793084   469A      8.830773  
     470A      8.866845   471A      8.892934   472A      8.918291  
     473A      8.921970   474A      8.947313   475A      8.972086  
     476A      8.994967   477A      9.018921   478A      9.065766  
     479A      9.101555   480A      9.128708   481A      9.135861  
     482A      9.150445   483A      9.175413   484A      9.177616  
     485A      9.206499   486A      9.253297   487A      9.294478  
     488A      9.441192   489A      9.465471   490A      9.480061  
     491A      9.515727   492A      9.518955   493A      9.545561  
     494A      9.546594   495A      9.584778   496A      9.595499  
     497A      9.611887   498A      9.661657   499A      9.681032  
     500A      9.706307   501A      9.742299   502A      9.771498  
     503A      9.789964   504A      9.820148   505A      9.833202  
     506A      9.855377   507A      9.938962   508A      9.971404  
     509A     10.000857   510A     10.007179   511A     10.020699  
     512A     10.036462   513A     10.053213   514A     10.122544  
     515A     10.176346   516A     10.246815   517A     10.284806  
     518A     10.316784   519A     10.318081   520A     10.335007  
     521A     10.413568   522A     10.486912   523A     10.490354  
     524A     10.531937   525A     10.533769   526A     10.560266  
     527A     10.622138   528A     10.666414   529A     10.680991  
     530A     10.711021   531A     10.736803   532A     10.772294  
     533A     10.916835   534A     10.947891   535A     10.980972  
     536A     11.088198   537A     11.139560   538A     11.200202  
     539A     11.207652   540A     11.507904   541A     11.532144  
     542A     11.781510   543A     11.945938   544A     12.253964  
     545A     12.294499   546A     12.298436   547A     12.380129  
     548A     12.417446   549A     12.453471   550A     13.004525  
     551A     13.093115   552A     13.197792   553A     13.212706  
     554A     13.218436   555A     13.346307   556A     13.687216  
     557A     14.927622   558A     15.183415   559A     15.326724  
     560A     27.068350   561A     27.633071   562A     36.936743  

    Final Occupation by Irrep:
              A 
    DOCC [    13 ]

  @DF-RHF Final Energy:  -134.27593594560815

   => Energetics <=

    Nuclear Repulsion Energy =             73.8333951046063675
    One-Electron Energy =                -326.7064294904124608
    Two-Electron Energy =                 118.5970984401979251
    Total Energy =                       -134.2759359456081540

Computation Completed


Properties will be evaluated at   0.000000,   0.000000,   0.000000 [a0]

Properties computed using the SCF density matrix

  Nuclear Dipole Moment: [e a0]
     X:     0.7817      Y:    -0.9146      Z:     0.0029

  Electronic Dipole Moment: [e a0]
     X:    -1.0300      Y:     0.3711      Z:    -0.0010

  Dipole Moment: [e a0]
     X:    -0.2483      Y:    -0.5435      Z:     0.0019     Total:     0.5975

  Dipole Moment: [D]
     X:    -0.6311      Y:    -1.3814      Z:     0.0049     Total:     1.5188


*** tstop() called on node59.bme.utexas.edu at Sat Apr 11 16:31:20 2020
Module time:
	user time   =      66.29 seconds =       1.10 minutes
	system time =       1.86 seconds =       0.03 minutes
	total time  =         12 seconds =       0.20 minutes
Total time:
	user time   =     361.91 seconds =       6.03 minutes
	system time =      12.54 seconds =       0.21 minutes
	total time  =         75 seconds =       1.25 minutes

*** tstart() called on node59.bme.utexas.edu
*** at Sat Apr 11 16:31:20 2020


  //>>>>>>>>>>>>>>>>>>>>>>>>>>>>>>>>>>>//
  //               DFMP2               //
  //<<<<<<<<<<<<<<<<<<<<<<<<<<<<<<<<<<<//

   => Loading Basis Set <=

    Name: (AUG-CC-PVQZ AUX)
    Role: RIFIT
    Keyword: DF_BASIS_MP2
    atoms 1-2       entry C          line   184 file /home/liuchw/anaconda3/envs/psi4env/share/psi4/basis/aug-cc-pvqz-ri.gbs 
    atoms 3-6, 8-10 entry H          line    30 file /home/liuchw/anaconda3/envs/psi4env/share/psi4/basis/aug-cc-pvqz-ri.gbs 
    atoms 7         entry N          line   258 file /home/liuchw/anaconda3/envs/psi4env/share/psi4/basis/aug-cc-pvqz-ri.gbs 

	 --------------------------------------------------------
	                          DF-MP2                         
	      2nd-Order Density-Fitted Moller-Plesset Theory     
	              RMP2 Wavefunction,   6 Threads             
	                                                         
	        Rob Parrish, Justin Turney, Andy Simmonett,      
	           Ed Hohenstein, and C. David Sherrill          
	 --------------------------------------------------------

   => Auxiliary Basis Set <=

  Basis Set: (AUG-CC-PVQZ AUX)
    Blend: AUG-CC-PVQZ-RI
    Number of shells: 248
    Number of basis function: 1064
    Number of Cartesian functions: 1446
    Spherical Harmonics?: true
    Max angular momentum: 5

	 --------------------------------------------------------
	                 NBF =   562, NAUX =  1064
	 --------------------------------------------------------
	   CLASS    FOCC     OCC    AOCC    AVIR     VIR    FVIR
	   PAIRS       0      13      13     549     549       0
	 --------------------------------------------------------

	-----------------------------------------------------------
	 ==================> DF-MP2 Energies <==================== 
	-----------------------------------------------------------
	 Reference Energy          =    -134.2759359456081540 [Eh]
	 Singles Energy            =      -0.0000000000000000 [Eh]
	 Same-Spin Energy          =      -0.1455815157634680 [Eh]
	 Opposite-Spin Energy      =      -0.5648240911421725 [Eh]
	 Correlation Energy        =      -0.7104056069056405 [Eh]
	 Total Energy              =    -134.9863415525138066 [Eh]
	-----------------------------------------------------------
	 ================> DF-SCS-MP2 Energies <================== 
	-----------------------------------------------------------
	 SCS Same-Spin Scale       =       0.3333333333333333 [-]
	 SCS Opposite-Spin Scale   =       1.2000000000000000 [-]
	 SCS Same-Spin Energy      =      -0.0485271719211560 [Eh]
	 SCS Opposite-Spin Energy  =      -0.6777889093706070 [Eh]
	 SCS Correlation Energy    =      -0.7263160812917629 [Eh]
	 SCS Total Energy          =    -135.0022520268999244 [Eh]
	-----------------------------------------------------------


*** tstop() called on node59.bme.utexas.edu at Sat Apr 11 16:31:26 2020
Module time:
	user time   =      26.90 seconds =       0.45 minutes
	system time =       0.89 seconds =       0.01 minutes
	total time  =          6 seconds =       0.10 minutes
Total time:
	user time   =     388.81 seconds =       6.48 minutes
	system time =      13.43 seconds =       0.22 minutes
	total time  =         81 seconds =       1.35 minutes

  //>>>>>>>>>>>>>>>>>>>>>>>>>>>>>>>>>>>//
  //  CBS Results: mp2/aug-cc-pv[tq]z  //
  //<<<<<<<<<<<<<<<<<<<<<<<<<<<<<<<<<<<//


   ==> HF <==

   HI-zeta (4) Energy:               -134.275935945608


   ==> Helgaker 2-point correlated extrapolation for method: MP2 <==

   LO-zeta (3) Energy:               -134.912107244950
   HI-zeta (4) Energy:               -134.986341552514
   Alpha (exponent) Value:             3.000000000000
   Extrapolated Energy:              -135.040512533709

   @Extrapolated MP2/(T,Q):          -135.040512533709



   ==> Helgaker 2-point correlated extrapolation for method: HF <==

   LO-zeta (3) Energy:               -134.267702104178
   HI-zeta (4) Energy:               -134.275935945608
   Alpha (exponent) Value:             3.000000000000
   Extrapolated Energy:              -134.281944424489

   @Extrapolated HF/(T,Q):           -134.281944424489


   ==> Components <==

  ---------------------------------------------------------------------------------------------------------
                          Method / Basis                      Rqd      Energy [Eh]   Variable
  ---------------------------------------------------------------------------------------------------------
                              hf / aug-cc-pvtz                  *    -134.26770210   HF TOTAL ENERGY
                             mp2 / aug-cc-pvtz                  *    -134.91210724   MP2 TOTAL ENERGY
                              hf / aug-cc-pvqz                  *    -134.27593595   HF TOTAL ENERGY
                             mp2 / aug-cc-pvqz                  *    -134.98634155   MP2 TOTAL ENERGY
  ---------------------------------------------------------------------------------------------------------

   ==> Stages <==

  ---------------------------------------------------------------------------------------------------------
      Stage               Method / Basis                       Wt      Energy [Eh]   Scheme
  ---------------------------------------------------------------------------------------------------------
        scf                   hf / aug-cc-pvqz                  1    -134.27593595   xtpl_highest_1
       corl                  mp2 / aug-cc-pv[tq]z               1    -135.04051253   corl_xtpl_helgaker_2
       corl                   hf / aug-cc-pv[tq]z              -1    -134.28194442   corl_xtpl_helgaker_2
  ---------------------------------------------------------------------------------------------------------

   ==> CBS <==

  ---------------------------------------------------------------------------------------------------------
      Stage               Method / Basis                               Energy [Eh]   Scheme
  ---------------------------------------------------------------------------------------------------------
        scf                   hf / aug-cc-pvqz                       -134.27593595   xtpl_highest_1
       corl                  mp2 / aug-cc-pv[tq]z                      -0.75856811   corl_xtpl_helgaker_2
      total                  CBS                                     -135.03450405   
  ---------------------------------------------------------------------------------------------------------
   => Loading Basis Set <=

    Name: DEF2-SVP
    Role: ORBITAL
    Keyword: BASIS
    atoms 1-2       entry C          line    90 file /home/liuchw/anaconda3/envs/psi4env/share/psi4/basis/def2-svp.gbs 
    atoms 3-6, 8-10 entry H          line    15 file /home/liuchw/anaconda3/envs/psi4env/share/psi4/basis/def2-svp.gbs 
    atoms 7         entry N          line   110 file /home/liuchw/anaconda3/envs/psi4env/share/psi4/basis/def2-svp.gbs 


       N-Body: Complex Energy (fragments = (1, 2), basis = (1, 2):  -135.03450405482781)

   ==> N-Body: Counterpoise Corrected (CP) energies <==

   n-Body     Total Energy [Eh]       I.E. [kcal/mol]      Delta [kcal/mol]
        1     -135.041808456127        0.000000000000        0.000000000000
        2     -135.034626791319        4.506562704908        4.506562704908

   => Loading Basis Set <=

    Name: DEF2-SVP
    Role: ORBITAL
    Keyword: BASIS
    atoms 1-2       entry C          line    90 file /home/liuchw/anaconda3/envs/psi4env/share/psi4/basis/def2-svp.gbs 
    atoms 3-6, 8-10 entry H          line    15 file /home/liuchw/anaconda3/envs/psi4env/share/psi4/basis/def2-svp.gbs 
    atoms 7         entry N          line   110 file /home/liuchw/anaconda3/envs/psi4env/share/psi4/basis/def2-svp.gbs 


    Psi4 stopped on: Saturday, 11 April 2020 04:31PM
    Psi4 wall time for execution: 0:01:22.46

*** Psi4 exiting successfully. Buy a developer a beer!
