
    -----------------------------------------------------------------------
          Psi4: An Open-Source Ab Initio Electronic Structure Package
                               Psi4 1.4a2.dev224 

                         Git: Rev {master} e453b16 


    R. M. Parrish, L. A. Burns, D. G. A. Smith, A. C. Simmonett,
    A. E. DePrince III, E. G. Hohenstein, U. Bozkaya, A. Yu. Sokolov,
    R. Di Remigio, R. M. Richard, J. F. Gonthier, A. M. James,
    H. R. McAlexander, A. Kumar, M. Saitow, X. Wang, B. P. Pritchard,
    P. Verma, H. F. Schaefer III, K. Patkowski, R. A. King, E. F. Valeev,
    F. A. Evangelista, J. M. Turney, T. D. Crawford, and C. D. Sherrill,
    J. Chem. Theory Comput. 13(7) pp 3185--3197 (2017).
    (doi: 10.1021/acs.jctc.7b00174)


                         Additional Contributions by
    P. Kraus, H. Kruse, M. H. Lechner, M. C. Schieber, R. A. Shaw,
    A. Alenaizan, R. Galvelis, Z. L. Glick, S. Lehtola, and J. P. Misiewicz

    -----------------------------------------------------------------------


    Psi4 started on: Saturday, 11 April 2020 04:34PM

    Process ID: 20687
    Host:       node36.bme.utexas.edu
    PSIDATADIR: /home/liuchw/anaconda3/envs/psi4env/share/psi4
    Memory:     500.0 MiB
    Threads:    6
    
  ==> Input File <==

--------------------------------------------------------------------------
#Generated by lconvert.py for cbs job

memory 40 GB

molecule  {
0 1
  C       -1.2592080     0.6613710    -0.0012880
  C       -1.8138340    -0.5508520     0.0004330
  H       -1.8733130     1.5512530    -0.0025230
  H       -0.1848620     0.7870610    -0.0020300
  H       -1.2047970    -1.4442860     0.0031610
  H       -2.8862820    -0.6856040     0.0009570
--
0 1
  N        2.5057837    -0.0158685    -0.0028686
  H        3.3965947     0.4633895    -0.0325796
  H        2.5276357    -0.5819995     0.8357174
  H        2.5135577    -0.6661625    -0.7783446
units angstrom
no_reorient
symmetry c1
}

set {
scf_type DF
mp2_type DF
e_convergence 7
reference rhf
}

energy('mp2/aug-cc-pv[tq]z', bsse_type='cp')
--------------------------------------------------------------------------

  Memory set to  37.253 GiB by Python driver.

Scratch directory: /scratch//


   ===> N-Body Interaction Abacus <===
        BSSE Treatment:                     cp
        Number of 1-body computations:     4
        Number of 2-body computations:     1

   ==> N-Body: Now computing 1-body complexes <==


       N-Body: Computing complex (1/4) with fragments (2,) in the basis of fragments (2,).


Scratch directory: /scratch//

  //>>>>>>>>>>>>>>>>>>>>>>>>>>>>>>>>>>>//
  //   CBS Setup: mp2/aug-cc-pv[tq]z   //
  //<<<<<<<<<<<<<<<<<<<<<<<<<<<<<<<<<<<//

    Naive listing of computations required.
             hf / aug-cc-pvqz              for  HF TOTAL ENERGY
            mp2 / aug-cc-pvtz              for  MP2 TOTAL ENERGY
            mp2 / aug-cc-pvqz              for  MP2 TOTAL ENERGY
             hf / aug-cc-pvtz              for  HF TOTAL ENERGY
             hf / aug-cc-pvqz              for  HF TOTAL ENERGY

    Enlightened listing of computations required.
            mp2 / aug-cc-pvtz              for  MP2 TOTAL ENERGY
            mp2 / aug-cc-pvqz              for  MP2 TOTAL ENERGY

    Full listing of computations to be obtained (required and bonus).
             hf / aug-cc-pvtz              for  HF TOTAL ENERGY
            mp2 / aug-cc-pvtz              for  MP2 TOTAL ENERGY
             hf / aug-cc-pvqz              for  HF TOTAL ENERGY
            mp2 / aug-cc-pvqz              for  MP2 TOTAL ENERGY

  //>>>>>>>>>>>>>>>>>>>>>>>>>>>>>>>>>>>>//
  // CBS Computation: MP2 / AUG-CC-PVTZ //
  //<<<<<<<<<<<<<<<<<<<<<<<<<<<<<<<<<<<<//


Scratch directory: /scratch//

*** tstart() called on node36.bme.utexas.edu
*** at Sat Apr 11 16:34:22 2020

   => Loading Basis Set <=

    Name: AUG-CC-PVTZ
    Role: ORBITAL
    Keyword: BASIS
    atoms 1   entry N          line   285 file /home/liuchw/anaconda3/envs/psi4env/share/psi4/basis/aug-cc-pvtz.gbs 
    atoms 2-4 entry H          line    40 file /home/liuchw/anaconda3/envs/psi4env/share/psi4/basis/aug-cc-pvtz.gbs 


         ---------------------------------------------------------
                                   SCF
               by Justin Turney, Rob Parrish, Andy Simmonett
                          and Daniel G. A. Smith
                              RHF Reference
                        6 Threads,  38146 MiB Core
         ---------------------------------------------------------

  ==> Geometry <==

    Molecular point group: c1
    Full point group: C1

    Geometry (in Angstrom), charge = 0, multiplicity = 1:

       Center              X                  Y                   Z               Mass       
    ------------   -----------------  -----------------  -----------------  -----------------
         N            2.494273773269    -0.027479390966    -0.002294218070    14.003074004430
         H            3.385084773269     0.451778609034    -0.032005218070     1.007825032230
         H            2.516125773269    -0.593610390966     0.836291781930     1.007825032230
         H            2.502047773269    -0.677773390966    -0.777770218070     1.007825032230

  Running in c1 symmetry.

  Rotational constants: A =      7.37045  B =      0.14999  C =      0.14953 [cm^-1]
  Rotational constants: A = 220960.43002  B =   4496.63615  C =   4482.85038 [MHz]
  Nuclear repulsion =   11.963497745726924

  Charge       = 0
  Multiplicity = 1
  Electrons    = 10
  Nalpha       = 5
  Nbeta        = 5

  ==> Algorithm <==

  SCF Algorithm Type is DF.
  DIIS enabled.
  MOM disabled.
  Fractional occupation disabled.
  Guess Type is SAD.
  Energy threshold   = 1.00e-07
  Density threshold  = 1.00e-08
  Integral threshold = 0.00e+00

  ==> Primary Basis <==

  Basis Set: AUG-CC-PVTZ
    Blend: AUG-CC-PVTZ
    Number of shells: 41
    Number of basis function: 115
    Number of Cartesian functions: 130
    Spherical Harmonics?: true
    Max angular momentum: 3

   => Loading Basis Set <=

    Name: (AUG-CC-PVTZ AUX)
    Role: JKFIT
    Keyword: DF_BASIS_SCF
    atoms 1   entry N          line   224 file /home/liuchw/anaconda3/envs/psi4env/share/psi4/basis/aug-cc-pvtz-jkfit.gbs 
    atoms 2-4 entry H          line    70 file /home/liuchw/anaconda3/envs/psi4env/share/psi4/basis/aug-cc-pvtz-jkfit.gbs 

  ==> Pre-Iterations <==

   -------------------------------------------------------
    Irrep   Nso     Nmo     Nalpha   Nbeta   Ndocc  Nsocc
   -------------------------------------------------------
     A        115     115       0       0       0       0
   -------------------------------------------------------
    Total     115     115       5       5       5       0
   -------------------------------------------------------

  ==> Integral Setup <==

  DFHelper Memory: AOs need 0.028 GiB; user supplied 27.940 GiB. Using in-core AOs.

  ==> MemDFJK: Density-Fitted J/K Matrices <==

    J tasked:                   Yes
    K tasked:                   Yes
    wK tasked:                   No
    OpenMP threads:               6
    Memory [MiB]:             28610
    Algorithm:                 Core
    Schwarz Cutoff:           1E-12
    Mask sparsity (%):       0.0000
    Fitting Condition:        1E-10

   => Auxiliary Basis Set <=

  Basis Set: (AUG-CC-PVTZ AUX)
    Blend: AUG-CC-PVTZ-JKFIT
    Number of shells: 72
    Number of basis function: 242
    Number of Cartesian functions: 296
    Spherical Harmonics?: true
    Max angular momentum: 4

  Minimum eigenvalue in the overlap matrix is 2.6929217995E-04.
  Using Symmetric Orthogonalization.

  SCF Guess: Superposition of Atomic Densities via on-the-fly atomic UHF.

  ==> Iterations <==

                           Total Energy        Delta E     RMS |[F,P]|

   @DF-RHF iter SAD:   -55.64537134076969   -5.56454e+01   0.00000e+00 
   @DF-RHF iter   1:   -56.12242361414044   -4.77052e-01   4.05620e-03 DIIS
   @DF-RHF iter   2:   -56.19133702914048   -6.89134e-02   2.35076e-03 DIIS
   @DF-RHF iter   3:   -56.21954220183508   -2.82052e-02   2.12727e-04 DIIS
   @DF-RHF iter   4:   -56.22017672297363   -6.34521e-04   3.97515e-05 DIIS
   @DF-RHF iter   5:   -56.22019783627859   -2.11133e-05   7.33435e-06 DIIS
   @DF-RHF iter   6:   -56.22019901977854   -1.18350e-06   1.72581e-06 DIIS
   @DF-RHF iter   7:   -56.22019908780276   -6.80242e-08   3.48503e-07 DIIS
   @DF-RHF iter   8:   -56.22019909068181   -2.87905e-09   5.33097e-08 DIIS
   @DF-RHF iter   9:   -56.22019909074237   -6.05596e-11   1.28623e-08 DIIS
   @DF-RHF iter  10:   -56.22019909074620   -3.82983e-12   2.73034e-09 DIIS
  Energy and wave function converged.


  ==> Post-Iterations <==

    Orbital Energies [Eh]
    ---------------------

    Doubly Occupied:                                                      

       1A    -15.542313     2A     -1.144079     3A     -0.627947  
       4A     -0.627105     5A     -0.432016  

    Virtual:                                                              

       6A      0.029426     7A      0.048678     8A      0.048718  
       9A      0.117707    10A      0.152515    11A      0.162393  
      12A      0.162432    13A      0.221546    14A      0.221568  
      15A      0.234875    16A      0.235032    17A      0.254450  
      18A      0.356274    19A      0.357554    20A      0.370679  
      21A      0.370727    22A      0.428547    23A      0.461079  
      24A      0.461086    25A      0.486681    26A      0.486907  
      27A      0.565151    28A      0.601002    29A      0.601340  
      30A      0.750067    31A      0.785329    32A      0.785707  
      33A      0.811660    34A      0.880733    35A      0.903841  
      36A      0.915195    37A      0.915470    38A      0.977220  
      39A      0.977250    40A      1.036107    41A      1.036771  
      42A      1.037018    43A      1.082215    44A      1.103330  
      45A      1.103376    46A      1.143423    47A      1.143622  
      48A      1.186569    49A      1.220222    50A      1.220700  
      51A      1.324433    52A      1.357508    53A      1.358521  
      54A      1.616237    55A      1.762750    56A      1.763242  
      57A      1.769322    58A      1.863070    59A      1.863476  
      60A      1.864840    61A      2.001644    62A      2.040311  
      63A      2.041210    64A      2.048093    65A      2.048651  
      66A      2.283400    67A      2.334217    68A      2.372557  
      69A      2.372690    70A      2.439128    71A      2.439643  
      72A      2.470962    73A      3.373256    74A      3.554625  
      75A      3.555156    76A      3.973307    77A      3.974741  
      78A      4.049719    79A      4.134351    80A      4.135214  
      81A      4.210562    82A      4.235791    83A      4.264426  
      84A      4.265393    85A      4.312150    86A      4.355595  
      87A      4.356319    88A      4.475585    89A      4.548823  
      90A      4.549080    91A      4.694739    92A      4.736913  
      93A      4.737804    94A      4.948447    95A      4.949902  
      96A      4.996359    97A      5.055471    98A      5.055512  
      99A      5.094362   100A      5.270766   101A      5.690958  
     102A      5.693122   103A      5.718008   104A      5.898287  
     105A      5.901372   106A      6.046264   107A      6.354989  
     108A      6.360006   109A      6.397985   110A      6.617887  
     111A      6.945151   112A      6.946208   113A      7.693158  
     114A      7.696032   115A     17.233644  

    Final Occupation by Irrep:
              A 
    DOCC [     5 ]

  @DF-RHF Final Energy:   -56.22019909074620

   => Energetics <=

    Nuclear Repulsion Energy =             11.9634977457269240
    One-Electron Energy =                 -99.6204731783535777
    Two-Electron Energy =                  31.4367763418804529
    Total Energy =                        -56.2201990907461990

Computation Completed


Properties will be evaluated at   0.000000,   0.000000,   0.000000 [a0]

Properties computed using the SCF density matrix

  Nuclear Dipole Moment: [e a0]
     X:    48.8743      Y:    -1.9123      Z:     0.0198

  Electronic Dipole Moment: [e a0]
     X:   -48.3662      Y:     1.5048      Z:    -0.0020

  Dipole Moment: [e a0]
     X:     0.5081      Y:    -0.4076      Z:     0.0177     Total:     0.6516

  Dipole Moment: [D]
     X:     1.2915      Y:    -1.0359      Z:     0.0451     Total:     1.6563


*** tstop() called on node36.bme.utexas.edu at Sat Apr 11 16:34:23 2020
Module time:
	user time   =       6.40 seconds =       0.11 minutes
	system time =       0.42 seconds =       0.01 minutes
	total time  =          1 seconds =       0.02 minutes
Total time:
	user time   =       6.40 seconds =       0.11 minutes
	system time =       0.42 seconds =       0.01 minutes
	total time  =          1 seconds =       0.02 minutes

*** tstart() called on node36.bme.utexas.edu
*** at Sat Apr 11 16:34:23 2020


  //>>>>>>>>>>>>>>>>>>>>>>>>>>>>>>>>>>>//
  //               DFMP2               //
  //<<<<<<<<<<<<<<<<<<<<<<<<<<<<<<<<<<<//

   => Loading Basis Set <=

    Name: (AUG-CC-PVTZ AUX)
    Role: RIFIT
    Keyword: DF_BASIS_MP2
    atoms 1   entry N          line   206 file /home/liuchw/anaconda3/envs/psi4env/share/psi4/basis/aug-cc-pvtz-ri.gbs 
    atoms 2-4 entry H          line    30 file /home/liuchw/anaconda3/envs/psi4env/share/psi4/basis/aug-cc-pvtz-ri.gbs 

	 --------------------------------------------------------
	                          DF-MP2                         
	      2nd-Order Density-Fitted Moller-Plesset Theory     
	              RMP2 Wavefunction,   6 Threads             
	                                                         
	        Rob Parrish, Justin Turney, Andy Simmonett,      
	           Ed Hohenstein, and C. David Sherrill          
	 --------------------------------------------------------

   => Auxiliary Basis Set <=

  Basis Set: (AUG-CC-PVTZ AUX)
    Blend: AUG-CC-PVTZ-RI
    Number of shells: 70
    Number of basis function: 244
    Number of Cartesian functions: 301
    Spherical Harmonics?: true
    Max angular momentum: 4

	 --------------------------------------------------------
	                 NBF =   115, NAUX =   244
	 --------------------------------------------------------
	   CLASS    FOCC     OCC    AOCC    AVIR     VIR    FVIR
	   PAIRS       0       5       5     110     110       0
	 --------------------------------------------------------

	-----------------------------------------------------------
	 ==================> DF-MP2 Energies <==================== 
	-----------------------------------------------------------
	 Reference Energy          =     -56.2201990907461990 [Eh]
	 Singles Energy            =      -0.0000000000000000 [Eh]
	 Same-Spin Energy          =      -0.0560791380242268 [Eh]
	 Opposite-Spin Energy      =      -0.2010925395008315 [Eh]
	 Correlation Energy        =      -0.2571716775250583 [Eh]
	 Total Energy              =     -56.4773707682712569 [Eh]
	-----------------------------------------------------------
	 ================> DF-SCS-MP2 Energies <================== 
	-----------------------------------------------------------
	 SCS Same-Spin Scale       =       0.3333333333333333 [-]
	 SCS Opposite-Spin Scale   =       1.2000000000000000 [-]
	 SCS Same-Spin Energy      =      -0.0186930460080756 [Eh]
	 SCS Opposite-Spin Energy  =      -0.2413110474009978 [Eh]
	 SCS Correlation Energy    =      -0.2600040934090734 [Eh]
	 SCS Total Energy          =     -56.4802031841552719 [Eh]
	-----------------------------------------------------------


*** tstop() called on node36.bme.utexas.edu at Sat Apr 11 16:34:24 2020
Module time:
	user time   =       2.71 seconds =       0.05 minutes
	system time =       0.18 seconds =       0.00 minutes
	total time  =          1 seconds =       0.02 minutes
Total time:
	user time   =       9.12 seconds =       0.15 minutes
	system time =       0.60 seconds =       0.01 minutes
	total time  =          2 seconds =       0.03 minutes

  //>>>>>>>>>>>>>>>>>>>>>>>>>>>>>>>>>>>>//
  // CBS Computation: MP2 / AUG-CC-PVQZ //
  //<<<<<<<<<<<<<<<<<<<<<<<<<<<<<<<<<<<<//


Scratch directory: /scratch//

*** tstart() called on node36.bme.utexas.edu
*** at Sat Apr 11 16:34:24 2020

   => Loading Basis Set <=

    Name: AUG-CC-PVQZ
    Role: ORBITAL
    Keyword: BASIS
    atoms 1   entry N          line   363 file /home/liuchw/anaconda3/envs/psi4env/share/psi4/basis/aug-cc-pvqz.gbs 
    atoms 2-4 entry H          line    40 file /home/liuchw/anaconda3/envs/psi4env/share/psi4/basis/aug-cc-pvqz.gbs 


         ---------------------------------------------------------
                                   SCF
               by Justin Turney, Rob Parrish, Andy Simmonett
                          and Daniel G. A. Smith
                              RHF Reference
                        6 Threads,  38146 MiB Core
         ---------------------------------------------------------

  ==> Geometry <==

    Molecular point group: c1
    Full point group: C1

    Geometry (in Angstrom), charge = 0, multiplicity = 1:

       Center              X                  Y                   Z               Mass       
    ------------   -----------------  -----------------  -----------------  -----------------
         N            2.494273773269    -0.027479390966    -0.002294218070    14.003074004430
         H            3.385084773269     0.451778609034    -0.032005218070     1.007825032230
         H            2.516125773269    -0.593610390966     0.836291781930     1.007825032230
         H            2.502047773269    -0.677773390966    -0.777770218070     1.007825032230

  Running in c1 symmetry.

  Rotational constants: A =      7.37045  B =      0.14999  C =      0.14953 [cm^-1]
  Rotational constants: A = 220960.43002  B =   4496.63615  C =   4482.85038 [MHz]
  Nuclear repulsion =   11.963497745726924

  Charge       = 0
  Multiplicity = 1
  Electrons    = 10
  Nalpha       = 5
  Nbeta        = 5

  ==> Algorithm <==

  SCF Algorithm Type is DF.
  DIIS enabled.
  MOM disabled.
  Fractional occupation disabled.
  Guess Type is SAD.
  Energy threshold   = 1.00e-07
  Density threshold  = 1.00e-08
  Integral threshold = 0.00e+00

  ==> Primary Basis <==

  Basis Set: AUG-CC-PVQZ
    Blend: AUG-CC-PVQZ
    Number of shells: 62
    Number of basis function: 218
    Number of Cartesian functions: 270
    Spherical Harmonics?: true
    Max angular momentum: 4

   => Loading Basis Set <=

    Name: (AUG-CC-PVQZ AUX)
    Role: JKFIT
    Keyword: DF_BASIS_SCF
    atoms 1   entry N          line   248 file /home/liuchw/anaconda3/envs/psi4env/share/psi4/basis/aug-cc-pvqz-jkfit.gbs 
    atoms 2-4 entry H          line    70 file /home/liuchw/anaconda3/envs/psi4env/share/psi4/basis/aug-cc-pvqz-jkfit.gbs 

  ==> Pre-Iterations <==

   -------------------------------------------------------
    Irrep   Nso     Nmo     Nalpha   Nbeta   Ndocc  Nsocc
   -------------------------------------------------------
     A        218     218       0       0       0       0
   -------------------------------------------------------
    Total     218     218       5       5       5       0
   -------------------------------------------------------

  ==> Integral Setup <==

  DFHelper Memory: AOs need 0.146 GiB; user supplied 27.940 GiB. Using in-core AOs.

  ==> MemDFJK: Density-Fitted J/K Matrices <==

    J tasked:                   Yes
    K tasked:                   Yes
    wK tasked:                   No
    OpenMP threads:               6
    Memory [MiB]:             28610
    Algorithm:                 Core
    Schwarz Cutoff:           1E-12
    Mask sparsity (%):       0.0000
    Fitting Condition:        1E-10

   => Auxiliary Basis Set <=

  Basis Set: (AUG-CC-PVQZ AUX)
    Blend: AUG-CC-PVQZ-JKFIT
    Number of shells: 88
    Number of basis function: 370
    Number of Cartesian functions: 501
    Spherical Harmonics?: true
    Max angular momentum: 5

  Minimum eigenvalue in the overlap matrix is 5.1288150438E-05.
  Using Symmetric Orthogonalization.

  SCF Guess: Superposition of Atomic Densities via on-the-fly atomic UHF.

  ==> Iterations <==

                           Total Energy        Delta E     RMS |[F,P]|

   @DF-RHF iter SAD:   -55.64849813106138   -5.56485e+01   0.00000e+00 
   @DF-RHF iter   1:   -56.12572906164676   -4.77231e-01   2.14384e-03 DIIS
   @DF-RHF iter   2:   -56.19480987072815   -6.90808e-02   1.24496e-03 DIIS
   @DF-RHF iter   3:   -56.22318816141387   -2.83783e-02   1.12822e-04 DIIS
   @DF-RHF iter   4:   -56.22382649026599   -6.38329e-04   2.13669e-05 DIIS
   @DF-RHF iter   5:   -56.22384817208184   -2.16818e-05   3.99106e-06 DIIS
   @DF-RHF iter   6:   -56.22384942136727   -1.24929e-06   9.65080e-07 DIIS
   @DF-RHF iter   7:   -56.22384949478159   -7.34143e-08   2.06111e-07 DIIS
   @DF-RHF iter   8:   -56.22384949813145   -3.34986e-09   2.93293e-08 DIIS
   @DF-RHF iter   9:   -56.22384949819591   -6.44604e-11   6.99159e-09 DIIS
  Energy and wave function converged.


  ==> Post-Iterations <==

    Orbital Energies [Eh]
    ---------------------

    Doubly Occupied:                                                      

       1A    -15.540714     2A     -1.143786     3A     -0.628048  
       4A     -0.627206     5A     -0.432225  

    Virtual:                                                              

       6A      0.026473     7A      0.043758     8A      0.043792  
       9A      0.097581    10A      0.132240    11A      0.139401  
      12A      0.139450    13A      0.183545    14A      0.183582  
      15A      0.188671    16A      0.188752    17A      0.209429  
      18A      0.284034    19A      0.292773    20A      0.297821  
      21A      0.297891    22A      0.354893    23A      0.381960  
      24A      0.382212    25A      0.389992    26A      0.390074  
      27A      0.423826    28A      0.472631    29A      0.472896  
      30A      0.557800    31A      0.557976    32A      0.558214  
      33A      0.595648    34A      0.681896    35A      0.682022  
      36A      0.697286    37A      0.702469    38A      0.718276  
      39A      0.718453    40A      0.751545    41A      0.779429  
      42A      0.779797    43A      0.782419    44A      0.831815  
      45A      0.832068    46A      0.853063    47A      0.856642  
      48A      0.857068    49A      0.872876    50A      0.873091  
      51A      0.980121    52A      1.011981    53A      1.012982  
      54A      1.134640    55A      1.220130    56A      1.220331  
      57A      1.351040    58A      1.355491    59A      1.355506  
      60A      1.372046    61A      1.377008    62A      1.452032  
      63A      1.452590    64A      1.515133    65A      1.535676  
      66A      1.536398    67A      1.576819    68A      1.604919  
      69A      1.662025    70A      1.662037    71A      1.700558  
      72A      1.701159    73A      1.734080    74A      1.749083  
      75A      1.749209    76A      1.816966    77A      1.830537  
      78A      1.830802    79A      1.854147    80A      1.899117  
      81A      1.900429    82A      1.982640    83A      1.983260  
      84A      2.020519    85A      2.020691    86A      2.043104  
      87A      2.065611    88A      2.103452    89A      2.112991  
      90A      2.113373    91A      2.187152    92A      2.263146  
      93A      2.263587    94A      2.284880    95A      2.399821  
      96A      2.400102    97A      2.785478    98A      2.912618  
      99A      2.913807   100A      2.919320   101A      2.935916  
     102A      2.936155   103A      2.945493   104A      3.006092  
     105A      3.006191   106A      3.027874   107A      3.028733  
     108A      3.068797   109A      3.103358   110A      3.142746  
     111A      3.208442   112A      3.209442   113A      3.263446  
     114A      3.264751   115A      3.393873   116A      3.394184  
     117A      3.468453   118A      3.549658   119A      3.550797  
     120A      3.603576   121A      3.721437   122A      3.904680  
     123A      3.911563   124A      3.912345   125A      4.135063  
     126A      4.137342   127A      4.145603   128A      4.185150  
     129A      4.185378   130A      4.217258   131A      4.238659  
     132A      4.295201   133A      4.365781   134A      4.366967  
     135A      4.715158   136A      4.715458   137A      4.958127  
     138A      4.958577   139A      5.074984   140A      5.190878  
     141A      5.191512   142A      5.351847   143A      5.352767  
     144A      5.450337   145A      5.640713   146A      6.829649  
     147A      6.830099   148A      6.908291   149A      6.933670  
     150A      6.936906   151A      7.005537   152A      7.390157  
     153A      7.391920   154A      7.392547   155A      7.425100  
     156A      7.425958   157A      7.613651   158A      7.688500  
     159A      7.708993   160A      7.709997   161A      7.860550  
     162A      7.860835   163A      7.921797   164A      7.924050  
     165A      7.997464   166A      8.200153   167A      8.314676  
     168A      8.316578   169A      8.334517   170A      8.511338  
     171A      8.563524   172A      8.566845   173A      8.636144  
     174A      8.638953   175A      8.867541   176A      8.918942  
     177A      8.918996   178A      8.954040   179A      8.989309  
     180A      9.012571   181A      9.026446   182A      9.028634  
     183A      9.222610   184A      9.293241   185A      9.295452  
     186A      9.442469   187A      9.443338   188A      9.526190  
     189A      9.527333   190A      9.591855   191A      9.797592  
     192A      9.833901   193A      9.923097   194A      9.925755  
     195A     10.120056   196A     10.122703   197A     10.123519  
     198A     10.293365   199A     10.296612   200A     10.552664  
     201A     10.555488   202A     10.773527   203A     10.852278  
     204A     10.981411   205A     10.982377   206A     11.726699  
     207A     12.196376   208A     12.200096   209A     12.273881  
     210A     12.365407   211A     12.365613   212A     13.036528  
     213A     13.121646   214A     13.121976   215A     14.700046  
     216A     15.054806   217A     15.058145   218A     36.683733  

    Final Occupation by Irrep:
              A 
    DOCC [     5 ]

  @DF-RHF Final Energy:   -56.22384949819591

   => Energetics <=

    Nuclear Repulsion Energy =             11.9634977457269240
    One-Electron Energy =                 -99.6307350636417794
    Two-Electron Energy =                  31.4433878197189429
    Total Energy =                        -56.2238494981959107

Computation Completed


Properties will be evaluated at   0.000000,   0.000000,   0.000000 [a0]

Properties computed using the SCF density matrix

  Nuclear Dipole Moment: [e a0]
     X:    48.8743      Y:    -1.9123      Z:     0.0198

  Electronic Dipole Moment: [e a0]
     X:   -48.3660      Y:     1.5046      Z:    -0.0020

  Dipole Moment: [e a0]
     X:     0.5083      Y:    -0.4077      Z:     0.0177     Total:     0.6518

  Dipole Moment: [D]
     X:     1.2919      Y:    -1.0362      Z:     0.0451     Total:     1.6568


*** tstop() called on node36.bme.utexas.edu at Sat Apr 11 16:34:27 2020
Module time:
	user time   =      11.39 seconds =       0.19 minutes
	system time =       0.62 seconds =       0.01 minutes
	total time  =          3 seconds =       0.05 minutes
Total time:
	user time   =      20.56 seconds =       0.34 minutes
	system time =       1.22 seconds =       0.02 minutes
	total time  =          5 seconds =       0.08 minutes

*** tstart() called on node36.bme.utexas.edu
*** at Sat Apr 11 16:34:27 2020


  //>>>>>>>>>>>>>>>>>>>>>>>>>>>>>>>>>>>//
  //               DFMP2               //
  //<<<<<<<<<<<<<<<<<<<<<<<<<<<<<<<<<<<//

   => Loading Basis Set <=

    Name: (AUG-CC-PVQZ AUX)
    Role: RIFIT
    Keyword: DF_BASIS_MP2
    atoms 1   entry N          line   258 file /home/liuchw/anaconda3/envs/psi4env/share/psi4/basis/aug-cc-pvqz-ri.gbs 
    atoms 2-4 entry H          line    30 file /home/liuchw/anaconda3/envs/psi4env/share/psi4/basis/aug-cc-pvqz-ri.gbs 

	 --------------------------------------------------------
	                          DF-MP2                         
	      2nd-Order Density-Fitted Moller-Plesset Theory     
	              RMP2 Wavefunction,   6 Threads             
	                                                         
	        Rob Parrish, Justin Turney, Andy Simmonett,      
	           Ed Hohenstein, and C. David Sherrill          
	 --------------------------------------------------------

   => Auxiliary Basis Set <=

  Basis Set: (AUG-CC-PVQZ AUX)
    Blend: AUG-CC-PVQZ-RI
    Number of shells: 96
    Number of basis function: 408
    Number of Cartesian functions: 552
    Spherical Harmonics?: true
    Max angular momentum: 5

	 --------------------------------------------------------
	                 NBF =   218, NAUX =   408
	 --------------------------------------------------------
	   CLASS    FOCC     OCC    AOCC    AVIR     VIR    FVIR
	   PAIRS       0       5       5     213     213       0
	 --------------------------------------------------------

	-----------------------------------------------------------
	 ==================> DF-MP2 Energies <==================== 
	-----------------------------------------------------------
	 Reference Energy          =     -56.2238494981959107 [Eh]
	 Singles Energy            =      -0.0000000000000000 [Eh]
	 Same-Spin Energy          =      -0.0594040439408294 [Eh]
	 Opposite-Spin Energy      =      -0.2248144548247249 [Eh]
	 Correlation Energy        =      -0.2842184987655543 [Eh]
	 Total Energy              =     -56.5080679969614650 [Eh]
	-----------------------------------------------------------
	 ================> DF-SCS-MP2 Energies <================== 
	-----------------------------------------------------------
	 SCS Same-Spin Scale       =       0.3333333333333333 [-]
	 SCS Opposite-Spin Scale   =       1.2000000000000000 [-]
	 SCS Same-Spin Energy      =      -0.0198013479802765 [Eh]
	 SCS Opposite-Spin Energy  =      -0.2697773457896699 [Eh]
	 SCS Correlation Energy    =      -0.2895786937699464 [Eh]
	 SCS Total Energy          =     -56.5134281919658576 [Eh]
	-----------------------------------------------------------


*** tstop() called on node36.bme.utexas.edu at Sat Apr 11 16:34:28 2020
Module time:
	user time   =       4.56 seconds =       0.08 minutes
	system time =       0.22 seconds =       0.00 minutes
	total time  =          1 seconds =       0.02 minutes
Total time:
	user time   =      25.13 seconds =       0.42 minutes
	system time =       1.44 seconds =       0.02 minutes
	total time  =          6 seconds =       0.10 minutes

  //>>>>>>>>>>>>>>>>>>>>>>>>>>>>>>>>>>>//
  //  CBS Results: mp2/aug-cc-pv[tq]z  //
  //<<<<<<<<<<<<<<<<<<<<<<<<<<<<<<<<<<<//


   ==> HF <==

   HI-zeta (4) Energy:               -56.223849498196


   ==> Helgaker 2-point correlated extrapolation for method: MP2 <==

   LO-zeta (3) Energy:               -56.477370768271
   HI-zeta (4) Energy:               -56.508067996961
   Alpha (exponent) Value:             3.000000000000
   Extrapolated Energy:              -56.530468677357

   @Extrapolated MP2/(T,Q):          -56.530468677357



   ==> Helgaker 2-point correlated extrapolation for method: HF <==

   LO-zeta (3) Energy:               -56.220199090746
   HI-zeta (4) Energy:               -56.223849498196
   Alpha (exponent) Value:             3.000000000000
   Extrapolated Energy:              -56.226513309038

   @Extrapolated HF/(T,Q):           -56.226513309038


   ==> Components <==

  ---------------------------------------------------------------------------------------------------------
                          Method / Basis                      Rqd      Energy [Eh]   Variable
  ---------------------------------------------------------------------------------------------------------
                              hf / aug-cc-pvtz                  *     -56.22019909   HF TOTAL ENERGY
                             mp2 / aug-cc-pvtz                  *     -56.47737077   MP2 TOTAL ENERGY
                              hf / aug-cc-pvqz                  *     -56.22384950   HF TOTAL ENERGY
                             mp2 / aug-cc-pvqz                  *     -56.50806800   MP2 TOTAL ENERGY
  ---------------------------------------------------------------------------------------------------------

   ==> Stages <==

  ---------------------------------------------------------------------------------------------------------
      Stage               Method / Basis                       Wt      Energy [Eh]   Scheme
  ---------------------------------------------------------------------------------------------------------
        scf                   hf / aug-cc-pvqz                  1     -56.22384950   xtpl_highest_1
       corl                  mp2 / aug-cc-pv[tq]z               1     -56.53046868   corl_xtpl_helgaker_2
       corl                   hf / aug-cc-pv[tq]z              -1     -56.22651331   corl_xtpl_helgaker_2
  ---------------------------------------------------------------------------------------------------------

   ==> CBS <==

  ---------------------------------------------------------------------------------------------------------
      Stage               Method / Basis                               Energy [Eh]   Scheme
  ---------------------------------------------------------------------------------------------------------
        scf                   hf / aug-cc-pvqz                        -56.22384950   xtpl_highest_1
       corl                  mp2 / aug-cc-pv[tq]z                      -0.30395537   corl_xtpl_helgaker_2
      total                  CBS                                      -56.52780487   
  ---------------------------------------------------------------------------------------------------------
   => Loading Basis Set <=

    Name: DEF2-SVP
    Role: ORBITAL
    Keyword: BASIS
    atoms 1   entry N          line   110 file /home/liuchw/anaconda3/envs/psi4env/share/psi4/basis/def2-svp.gbs 
    atoms 2-4 entry H          line    15 file /home/liuchw/anaconda3/envs/psi4env/share/psi4/basis/def2-svp.gbs 


       N-Body: Complex Energy (fragments = (2,), basis = (2,):   -56.52780486651533)

       N-Body: Computing complex (2/4) with fragments (2,) in the basis of fragments (1, 2).


Scratch directory: /scratch//

  //>>>>>>>>>>>>>>>>>>>>>>>>>>>>>>>>>>>//
  //   CBS Setup: mp2/aug-cc-pv[tq]z   //
  //<<<<<<<<<<<<<<<<<<<<<<<<<<<<<<<<<<<//

    Naive listing of computations required.
             hf / aug-cc-pvqz              for  HF TOTAL ENERGY
            mp2 / aug-cc-pvtz              for  MP2 TOTAL ENERGY
            mp2 / aug-cc-pvqz              for  MP2 TOTAL ENERGY
             hf / aug-cc-pvtz              for  HF TOTAL ENERGY
             hf / aug-cc-pvqz              for  HF TOTAL ENERGY

    Enlightened listing of computations required.
            mp2 / aug-cc-pvtz              for  MP2 TOTAL ENERGY
            mp2 / aug-cc-pvqz              for  MP2 TOTAL ENERGY

    Full listing of computations to be obtained (required and bonus).
             hf / aug-cc-pvtz              for  HF TOTAL ENERGY
            mp2 / aug-cc-pvtz              for  MP2 TOTAL ENERGY
             hf / aug-cc-pvqz              for  HF TOTAL ENERGY
            mp2 / aug-cc-pvqz              for  MP2 TOTAL ENERGY

  //>>>>>>>>>>>>>>>>>>>>>>>>>>>>>>>>>>>>//
  // CBS Computation: MP2 / AUG-CC-PVTZ //
  //<<<<<<<<<<<<<<<<<<<<<<<<<<<<<<<<<<<<//


Scratch directory: /scratch//

*** tstart() called on node36.bme.utexas.edu
*** at Sat Apr 11 16:34:28 2020

   => Loading Basis Set <=

    Name: AUG-CC-PVTZ
    Role: ORBITAL
    Keyword: BASIS
    atoms 1-2       entry C          line   239 file /home/liuchw/anaconda3/envs/psi4env/share/psi4/basis/aug-cc-pvtz.gbs 
    atoms 3-6, 8-10 entry H          line    40 file /home/liuchw/anaconda3/envs/psi4env/share/psi4/basis/aug-cc-pvtz.gbs 
    atoms 7         entry N          line   285 file /home/liuchw/anaconda3/envs/psi4env/share/psi4/basis/aug-cc-pvtz.gbs 


         ---------------------------------------------------------
                                   SCF
               by Justin Turney, Rob Parrish, Andy Simmonett
                          and Daniel G. A. Smith
                              RHF Reference
                        6 Threads,  38146 MiB Core
         ---------------------------------------------------------

  ==> Geometry <==

    Molecular point group: c1
    Full point group: C1

    Geometry (in Angstrom), charge = 0, multiplicity = 1:

       Center              X                  Y                   Z               Mass       
    ------------   -----------------  -----------------  -----------------  -----------------
      Gh(C)          -1.270717926731     0.649760109034    -0.000713618070    12.000000000000
      Gh(C)          -1.825343926731    -0.562462890966     0.001007381930    12.000000000000
      Gh(H)          -1.884822926731     1.539642109034    -0.001948618070     1.007825032230
      Gh(H)          -0.196371926731     0.775450109034    -0.001455618070     1.007825032230
      Gh(H)          -1.216306926731    -1.455896890966     0.003735381930     1.007825032230
      Gh(H)          -2.897791926731    -0.697214890966     0.001531381930     1.007825032230
         N            2.494273773269    -0.027479390966    -0.002294218070    14.003074004430
         H            3.385084773269     0.451778609034    -0.032005218070     1.007825032230
         H            2.516125773269    -0.593610390966     0.836291781930     1.007825032230
         H            2.502047773269    -0.677773390966    -0.777770218070     1.007825032230

  Running in c1 symmetry.

  Rotational constants: A =      1.00151  B =      0.09082  C =      0.08437 [cm^-1]
  Rotational constants: A =  30024.43797  B =   2722.85180  C =   2529.33000 [MHz]
  Nuclear repulsion =   11.963497745726924

  Charge       = 0
  Multiplicity = 1
  Electrons    = 10
  Nalpha       = 5
  Nbeta        = 5

  ==> Algorithm <==

  SCF Algorithm Type is DF.
  DIIS enabled.
  MOM disabled.
  Fractional occupation disabled.
  Guess Type is SAD.
  Energy threshold   = 1.00e-07
  Density threshold  = 1.00e-08
  Integral threshold = 0.00e+00

  ==> Primary Basis <==

  Basis Set: AUG-CC-PVTZ
    Blend: AUG-CC-PVTZ
    Number of shells: 105
    Number of basis function: 299
    Number of Cartesian functions: 340
    Spherical Harmonics?: true
    Max angular momentum: 3

   => Loading Basis Set <=

    Name: (AUG-CC-PVTZ AUX)
    Role: JKFIT
    Keyword: DF_BASIS_SCF
    atoms 1-2       entry C          line   162 file /home/liuchw/anaconda3/envs/psi4env/share/psi4/basis/aug-cc-pvtz-jkfit.gbs 
    atoms 3-6, 8-10 entry H          line    70 file /home/liuchw/anaconda3/envs/psi4env/share/psi4/basis/aug-cc-pvtz-jkfit.gbs 
    atoms 7         entry N          line   224 file /home/liuchw/anaconda3/envs/psi4env/share/psi4/basis/aug-cc-pvtz-jkfit.gbs 

  ==> Pre-Iterations <==

   -------------------------------------------------------
    Irrep   Nso     Nmo     Nalpha   Nbeta   Ndocc  Nsocc
   -------------------------------------------------------
     A        299     299       0       0       0       0
   -------------------------------------------------------
    Total     299     299       5       5       5       0
   -------------------------------------------------------

  ==> Integral Setup <==

  DFHelper Memory: AOs need 0.425 GiB; user supplied 27.940 GiB. Using in-core AOs.

  ==> MemDFJK: Density-Fitted J/K Matrices <==

    J tasked:                   Yes
    K tasked:                   Yes
    wK tasked:                   No
    OpenMP threads:               6
    Memory [MiB]:             28610
    Algorithm:                 Core
    Schwarz Cutoff:           1E-12
    Mask sparsity (%):       5.1856
    Fitting Condition:        1E-10

   => Auxiliary Basis Set <=

  Basis Set: (AUG-CC-PVTZ AUX)
    Blend: AUG-CC-PVTZ-JKFIT
    Number of shells: 188
    Number of basis function: 634
    Number of Cartesian functions: 778
    Spherical Harmonics?: true
    Max angular momentum: 4

  Minimum eigenvalue in the overlap matrix is 3.7817475547E-06.
  Using Symmetric Orthogonalization.

  SCF Guess: Superposition of Atomic Densities via on-the-fly atomic UHF.

  ==> Iterations <==

                           Total Energy        Delta E     RMS |[F,P]|

   @DF-RHF iter SAD:   -55.64537133576385   -5.56454e+01   0.00000e+00 
   @DF-RHF iter   1:   -56.12244509886000   -4.77074e-01   1.56010e-03 DIIS
   @DF-RHF iter   2:   -56.19136482132982   -6.89197e-02   9.04126e-04 DIIS
   @DF-RHF iter   3:   -56.21956703460610   -2.82022e-02   8.18172e-05 DIIS
   @DF-RHF iter   4:   -56.22020161964385   -6.34585e-04   1.52934e-05 DIIS
   @DF-RHF iter   5:   -56.22022275414229   -2.11345e-05   2.82403e-06 DIIS
   @DF-RHF iter   6:   -56.22022394162818   -1.18749e-06   6.64677e-07 DIIS
   @DF-RHF iter   7:   -56.22022401005312   -6.84249e-08   1.34266e-07 DIIS
   @DF-RHF iter   8:   -56.22022401294464   -2.89152e-09   2.05405e-08 DIIS
   @DF-RHF iter   9:   -56.22022401300568   -6.10427e-11   4.99034e-09 DIIS
  Energy and wave function converged.


  ==> Post-Iterations <==

    Orbital Energies [Eh]
    ---------------------

    Doubly Occupied:                                                      

       1A    -15.542309     2A     -1.144079     3A     -0.627946  
       4A     -0.627105     5A     -0.432017  

    Virtual:                                                              

       6A      0.024041     7A      0.034993     8A      0.040614  
       9A      0.048346    10A      0.052922    11A      0.063375  
      12A      0.074686    13A      0.089638    14A      0.103315  
      15A      0.111141    16A      0.119586    17A      0.121219  
      18A      0.133930    19A      0.150217    20A      0.164540  
      21A      0.165469    22A      0.170615    23A      0.179611  
      24A      0.193607    25A      0.215936    26A      0.238842  
      27A      0.240568    28A      0.256456    29A      0.258307  
      30A      0.272967    31A      0.287417    32A      0.290505  
      33A      0.300698    34A      0.307831    35A      0.323480  
      36A      0.325197    37A      0.325856    38A      0.344357  
      39A      0.353363    40A      0.359411    41A      0.369015  
      42A      0.370213    43A      0.378082    44A      0.382047  
      45A      0.398853    46A      0.409002    47A      0.419459  
      48A      0.424068    49A      0.432506    50A      0.449808  
      51A      0.464351    52A      0.470142    53A      0.471084  
      54A      0.474774    55A      0.478992    56A      0.493888  
      57A      0.499894    58A      0.532570    59A      0.535514  
      60A      0.564488    61A      0.574917    62A      0.609912  
      63A      0.618945    64A      0.622693    65A      0.634792  
      66A      0.639892    67A      0.643582    68A      0.651339  
      69A      0.660783    70A      0.670011    71A      0.699530  
      72A      0.724078    73A      0.737614    74A      0.781444  
      75A      0.818657    76A      0.821002    77A      0.835351  
      78A      0.873074    79A      0.914767    80A      0.928061  
      81A      0.931289    82A      0.935921    83A      0.955064  
      84A      0.962156    85A      0.980558    86A      0.982674  
      87A      0.995331    88A      1.006136    89A      1.014053  
      90A      1.019439    91A      1.026863    92A      1.037233  
      93A      1.045405    94A      1.051808    95A      1.060510  
      96A      1.069793    97A      1.074567    98A      1.075963  
      99A      1.087353   100A      1.095463   101A      1.100784  
     102A      1.113063   103A      1.115909   104A      1.133668  
     105A      1.140674   106A      1.158584   107A      1.161211  
     108A      1.185302   109A      1.192020   110A      1.197381  
     111A      1.211894   112A      1.221341   113A      1.234176  
     114A      1.235907   115A      1.245073   116A      1.262752  
     117A      1.269895   118A      1.298540   119A      1.305454  
     120A      1.320020   121A      1.328049   122A      1.330812  
     123A      1.355808   124A      1.374162   125A      1.381263  
     126A      1.400979   127A      1.429876   128A      1.440071  
     129A      1.462021   130A      1.492898   131A      1.505696  
     132A      1.535686   133A      1.562692   134A      1.571728  
     135A      1.585194   136A      1.599226   137A      1.607220  
     138A      1.651521   139A      1.681144   140A      1.737803  
     141A      1.774073   142A      1.777090   143A      1.784125  
     144A      1.813932   145A      1.847377   146A      1.852890  
     147A      1.866070   148A      1.914005   149A      1.928070  
     150A      1.973959   151A      1.983671   152A      2.041891  
     153A      2.045453   154A      2.054291   155A      2.058376  
     156A      2.070809   157A      2.121798   158A      2.138109  
     159A      2.145215   160A      2.174208   161A      2.184506  
     162A      2.215687   163A      2.248923   164A      2.263944  
     165A      2.297215   166A      2.306567   167A      2.317406  
     168A      2.340477   169A      2.344926   170A      2.357497  
     171A      2.378313   172A      2.429360   173A      2.445116  
     174A      2.459869   175A      2.461900   176A      2.490860  
     177A      2.508431   178A      2.543081   179A      2.604307  
     180A      2.615819   181A      2.714446   182A      2.766216  
     183A      2.858249   184A      2.946782   185A      3.261453  
     186A      3.265463   187A      3.421683   188A      3.587439  
     189A      3.654733   190A      3.791177   191A      3.847195  
     192A      3.903776   193A      3.972470   194A      3.976515  
     195A      4.005159   196A      4.045711   197A      4.050458  
     198A      4.051192   199A      4.078211   200A      4.085939  
     201A      4.139315   202A      4.144653   203A      4.172575  
     204A      4.175829   205A      4.196820   206A      4.199455  
     207A      4.216723   208A      4.239614   209A      4.248318  
     210A      4.262635   211A      4.267985   212A      4.283711  
     213A      4.322011   214A      4.338079   215A      4.354447  
     216A      4.374300   217A      4.423629   218A      4.459495  
     219A      4.468050   220A      4.507356   221A      4.547191  
     222A      4.553658   223A      4.576344   224A      4.577499  
     225A      4.594333   226A      4.674623   227A      4.733697  
     228A      4.738689   229A      4.764827   230A      4.768054  
     231A      4.784303   232A      4.861370   233A      4.908811  
     234A      4.925862   235A      4.940193   236A      4.944444  
     237A      4.961645   238A      4.990843   239A      4.993653  
     240A      5.011473   241A      5.014505   242A      5.047384  
     243A      5.078852   244A      5.104752   245A      5.116285  
     246A      5.121549   247A      5.155419   248A      5.347030  
     249A      5.378857   250A      5.405829   251A      5.450600  
     252A      5.502365   253A      5.514012   254A      5.537746  
     255A      5.558295   256A      5.605549   257A      5.663730  
     258A      5.689443   259A      5.706221   260A      5.718574  
     261A      5.727762   262A      5.744722   263A      5.844896  
     264A      5.864264   265A      5.916360   266A      5.937573  
     267A      5.954966   268A      6.005908   269A      6.077068  
     270A      6.084154   271A      6.122545   272A      6.220793  
     273A      6.252923   274A      6.363116   275A      6.372202  
     276A      6.402013   277A      6.514795   278A      6.609095  
     279A      6.645576   280A      6.953928   281A      6.969234  
     282A      7.011364   283A      7.096113   284A      7.159258  
     285A      7.580414   286A      7.649508   287A      7.689133  
     288A      7.729879   289A      7.751326   290A      7.888025  
     291A      8.069383   292A      8.330716   293A      8.390207  
     294A      8.891630   295A     10.602295   296A     10.887063  
     297A     17.340583   298A     50.643213   299A     52.272269  

    Final Occupation by Irrep:
              A 
    DOCC [     5 ]

  @DF-RHF Final Energy:   -56.22022401300568

   => Energetics <=

    Nuclear Repulsion Energy =             11.9634977457269240
    One-Electron Energy =                 -99.6205303558653696
    Two-Electron Energy =                  31.4368085971327567
    Total Energy =                        -56.2202240130056907

Computation Completed


Properties will be evaluated at   0.000000,   0.000000,   0.000000 [a0]

Properties computed using the SCF density matrix

  Nuclear Dipole Moment: [e a0]
     X:    48.8743      Y:    -1.9123      Z:     0.0198

  Electronic Dipole Moment: [e a0]
     X:   -48.3657      Y:     1.5043      Z:    -0.0020

  Dipole Moment: [e a0]
     X:     0.5086      Y:    -0.4080      Z:     0.0178     Total:     0.6523

  Dipole Moment: [D]
     X:     1.2928      Y:    -1.0370      Z:     0.0451     Total:     1.6580


*** tstop() called on node36.bme.utexas.edu at Sat Apr 11 16:34:33 2020
Module time:
	user time   =      18.99 seconds =       0.32 minutes
	system time =       0.78 seconds =       0.01 minutes
	total time  =          5 seconds =       0.08 minutes
Total time:
	user time   =      46.01 seconds =       0.77 minutes
	system time =       2.29 seconds =       0.04 minutes
	total time  =         11 seconds =       0.18 minutes

*** tstart() called on node36.bme.utexas.edu
*** at Sat Apr 11 16:34:33 2020


  //>>>>>>>>>>>>>>>>>>>>>>>>>>>>>>>>>>>//
  //               DFMP2               //
  //<<<<<<<<<<<<<<<<<<<<<<<<<<<<<<<<<<<//

   => Loading Basis Set <=

    Name: (AUG-CC-PVTZ AUX)
    Role: RIFIT
    Keyword: DF_BASIS_MP2
    atoms 1-2       entry C          line   148 file /home/liuchw/anaconda3/envs/psi4env/share/psi4/basis/aug-cc-pvtz-ri.gbs 
    atoms 3-6, 8-10 entry H          line    30 file /home/liuchw/anaconda3/envs/psi4env/share/psi4/basis/aug-cc-pvtz-ri.gbs 
    atoms 7         entry N          line   206 file /home/liuchw/anaconda3/envs/psi4env/share/psi4/basis/aug-cc-pvtz-ri.gbs 

	 --------------------------------------------------------
	                          DF-MP2                         
	      2nd-Order Density-Fitted Moller-Plesset Theory     
	              RMP2 Wavefunction,   6 Threads             
	                                                         
	        Rob Parrish, Justin Turney, Andy Simmonett,      
	           Ed Hohenstein, and C. David Sherrill          
	 --------------------------------------------------------

   => Auxiliary Basis Set <=

  Basis Set: (AUG-CC-PVTZ AUX)
    Blend: AUG-CC-PVTZ-RI
    Number of shells: 182
    Number of basis function: 640
    Number of Cartesian functions: 793
    Spherical Harmonics?: true
    Max angular momentum: 4

	 --------------------------------------------------------
	                 NBF =   299, NAUX =   640
	 --------------------------------------------------------
	   CLASS    FOCC     OCC    AOCC    AVIR     VIR    FVIR
	   PAIRS       0       5       5     294     294       0
	 --------------------------------------------------------

	-----------------------------------------------------------
	 ==================> DF-MP2 Energies <==================== 
	-----------------------------------------------------------
	 Reference Energy          =     -56.2202240130056836 [Eh]
	 Singles Energy            =      -0.0000000000000000 [Eh]
	 Same-Spin Energy          =      -0.0561073942380413 [Eh]
	 Opposite-Spin Energy      =      -0.2012898778885809 [Eh]
	 Correlation Energy        =      -0.2573972721266222 [Eh]
	 Total Energy              =     -56.4776212851323081 [Eh]
	-----------------------------------------------------------
	 ================> DF-SCS-MP2 Energies <================== 
	-----------------------------------------------------------
	 SCS Same-Spin Scale       =       0.3333333333333333 [-]
	 SCS Opposite-Spin Scale   =       1.2000000000000000 [-]
	 SCS Same-Spin Energy      =      -0.0187024647460138 [Eh]
	 SCS Opposite-Spin Energy  =      -0.2415478534662970 [Eh]
	 SCS Correlation Energy    =      -0.2602503182123108 [Eh]
	 SCS Total Energy          =     -56.4804743312179909 [Eh]
	-----------------------------------------------------------


*** tstop() called on node36.bme.utexas.edu at Sat Apr 11 16:34:34 2020
Module time:
	user time   =       8.54 seconds =       0.14 minutes
	system time =       0.40 seconds =       0.01 minutes
	total time  =          1 seconds =       0.02 minutes
Total time:
	user time   =      54.56 seconds =       0.91 minutes
	system time =       2.69 seconds =       0.04 minutes
	total time  =         12 seconds =       0.20 minutes

  //>>>>>>>>>>>>>>>>>>>>>>>>>>>>>>>>>>>>//
  // CBS Computation: MP2 / AUG-CC-PVQZ //
  //<<<<<<<<<<<<<<<<<<<<<<<<<<<<<<<<<<<<//


Scratch directory: /scratch//

*** tstart() called on node36.bme.utexas.edu
*** at Sat Apr 11 16:34:34 2020

   => Loading Basis Set <=

    Name: AUG-CC-PVQZ
    Role: ORBITAL
    Keyword: BASIS
    atoms 1-2       entry C          line   303 file /home/liuchw/anaconda3/envs/psi4env/share/psi4/basis/aug-cc-pvqz.gbs 
    atoms 3-6, 8-10 entry H          line    40 file /home/liuchw/anaconda3/envs/psi4env/share/psi4/basis/aug-cc-pvqz.gbs 
    atoms 7         entry N          line   363 file /home/liuchw/anaconda3/envs/psi4env/share/psi4/basis/aug-cc-pvqz.gbs 


         ---------------------------------------------------------
                                   SCF
               by Justin Turney, Rob Parrish, Andy Simmonett
                          and Daniel G. A. Smith
                              RHF Reference
                        6 Threads,  38146 MiB Core
         ---------------------------------------------------------

  ==> Geometry <==

    Molecular point group: c1
    Full point group: C1

    Geometry (in Angstrom), charge = 0, multiplicity = 1:

       Center              X                  Y                   Z               Mass       
    ------------   -----------------  -----------------  -----------------  -----------------
      Gh(C)          -1.270717926731     0.649760109034    -0.000713618070    12.000000000000
      Gh(C)          -1.825343926731    -0.562462890966     0.001007381930    12.000000000000
      Gh(H)          -1.884822926731     1.539642109034    -0.001948618070     1.007825032230
      Gh(H)          -0.196371926731     0.775450109034    -0.001455618070     1.007825032230
      Gh(H)          -1.216306926731    -1.455896890966     0.003735381930     1.007825032230
      Gh(H)          -2.897791926731    -0.697214890966     0.001531381930     1.007825032230
         N            2.494273773269    -0.027479390966    -0.002294218070    14.003074004430
         H            3.385084773269     0.451778609034    -0.032005218070     1.007825032230
         H            2.516125773269    -0.593610390966     0.836291781930     1.007825032230
         H            2.502047773269    -0.677773390966    -0.777770218070     1.007825032230

  Running in c1 symmetry.

  Rotational constants: A =      1.00151  B =      0.09082  C =      0.08437 [cm^-1]
  Rotational constants: A =  30024.43797  B =   2722.85180  C =   2529.33000 [MHz]
  Nuclear repulsion =   11.963497745726924

  Charge       = 0
  Multiplicity = 1
  Electrons    = 10
  Nalpha       = 5
  Nbeta        = 5

  ==> Algorithm <==

  SCF Algorithm Type is DF.
  DIIS enabled.
  MOM disabled.
  Fractional occupation disabled.
  Guess Type is SAD.
  Energy threshold   = 1.00e-07
  Density threshold  = 1.00e-08
  Integral threshold = 0.00e+00

  ==> Primary Basis <==

  Basis Set: AUG-CC-PVQZ
    Blend: AUG-CC-PVQZ
    Number of shells: 158
    Number of basis function: 562
    Number of Cartesian functions: 700
    Spherical Harmonics?: true
    Max angular momentum: 4

   => Loading Basis Set <=

    Name: (AUG-CC-PVQZ AUX)
    Role: JKFIT
    Keyword: DF_BASIS_SCF
    atoms 1-2       entry C          line   178 file /home/liuchw/anaconda3/envs/psi4env/share/psi4/basis/aug-cc-pvqz-jkfit.gbs 
    atoms 3-6, 8-10 entry H          line    70 file /home/liuchw/anaconda3/envs/psi4env/share/psi4/basis/aug-cc-pvqz-jkfit.gbs 
    atoms 7         entry N          line   248 file /home/liuchw/anaconda3/envs/psi4env/share/psi4/basis/aug-cc-pvqz-jkfit.gbs 

  ==> Pre-Iterations <==

   -------------------------------------------------------
    Irrep   Nso     Nmo     Nalpha   Nbeta   Ndocc  Nsocc
   -------------------------------------------------------
     A        562     562       0       0       0       0
   -------------------------------------------------------
    Total     562     562       5       5       5       0
   -------------------------------------------------------

  ==> Integral Setup <==

  DFHelper Memory: AOs need 2.136 GiB; user supplied 27.940 GiB. Using in-core AOs.

  ==> MemDFJK: Density-Fitted J/K Matrices <==

    J tasked:                   Yes
    K tasked:                   Yes
    wK tasked:                   No
    OpenMP threads:               6
    Memory [MiB]:             28610
    Algorithm:                 Core
    Schwarz Cutoff:           1E-12
    Mask sparsity (%):       9.6054
    Fitting Condition:        1E-10

   => Auxiliary Basis Set <=

  Basis Set: (AUG-CC-PVQZ AUX)
    Blend: AUG-CC-PVQZ-JKFIT
    Number of shells: 228
    Number of basis function: 958
    Number of Cartesian functions: 1301
    Spherical Harmonics?: true
    Max angular momentum: 5

  Minimum eigenvalue in the overlap matrix is 2.0663393088E-06.
  Using Symmetric Orthogonalization.

  SCF Guess: Superposition of Atomic Densities via on-the-fly atomic UHF.

  ==> Iterations <==

                           Total Energy        Delta E     RMS |[F,P]|

   @DF-RHF iter SAD:   -55.64849815239996   -5.56485e+01   0.00000e+00 
   @DF-RHF iter   1:   -56.12573754094070   -4.77239e-01   8.31598e-04 DIIS
   @DF-RHF iter   2:   -56.19482117621558   -6.90836e-02   4.82927e-04 DIIS
   @DF-RHF iter   3:   -56.22319880566193   -2.83776e-02   4.37640e-05 DIIS
   @DF-RHF iter   4:   -56.22383713696292   -6.38331e-04   8.28809e-06 DIIS
   @DF-RHF iter   5:   -56.22385881853625   -2.16816e-05   1.54876e-06 DIIS
   @DF-RHF iter   6:   -56.22386006900138   -1.25047e-06   3.74451e-07 DIIS
   @DF-RHF iter   7:   -56.22386014249206   -7.34907e-08   8.00511e-08 DIIS
   @DF-RHF iter   8:   -56.22386014585248   -3.36042e-09   1.13766e-08 DIIS
   @DF-RHF iter   9:   -56.22386014591649   -6.40057e-11   2.71794e-09 DIIS
  Energy and wave function converged.


  ==> Post-Iterations <==

    Orbital Energies [Eh]
    ---------------------

    Doubly Occupied:                                                      

       1A    -15.540717     2A     -1.143785     3A     -0.628047  
       4A     -0.627206     5A     -0.432226  

    Virtual:                                                              

       6A      0.021628     7A      0.031828     8A      0.036543  
       9A      0.043402    10A      0.047806    11A      0.057657  
      12A      0.066239    13A      0.078555    14A      0.092638  
      15A      0.094589    16A      0.103923    17A      0.106295  
      18A      0.118844    19A      0.128661    20A      0.141419  
      21A      0.142415    22A      0.150121    23A      0.156139  
      24A      0.170258    25A      0.178322    26A      0.196952  
      27A      0.203293    28A      0.220253    29A      0.228393  
      30A      0.228891    31A      0.234369    32A      0.251046  
      33A      0.252794    34A      0.260728    35A      0.262332  
      36A      0.269918    37A      0.273920    38A      0.282922  
      39A      0.290097    40A      0.293325    41A      0.301826  
      42A      0.302993    43A      0.307829    44A      0.313833  
      45A      0.329578    46A      0.336677    47A      0.346202  
      48A      0.356726    49A      0.358981    50A      0.367566  
      51A      0.372102    52A      0.375873    53A      0.385730  
      54A      0.396287    55A      0.400442    56A      0.401579  
      57A      0.406441    58A      0.429360    59A      0.441184  
      60A      0.446732    61A      0.467178    62A      0.468941  
      63A      0.479572    64A      0.492577    65A      0.500310  
      66A      0.506880    67A      0.519311    68A      0.519789  
      69A      0.521710    70A      0.534796    71A      0.538364  
      72A      0.548020    73A      0.592039    74A      0.621516  
      75A      0.633670    76A      0.644876    77A      0.654388  
      78A      0.668671    79A      0.684103    80A      0.698727  
      81A      0.706632    82A      0.715360    83A      0.716107  
      84A      0.720711    85A      0.722561    86A      0.731459  
      87A      0.732458    88A      0.746650    89A      0.750472  
      90A      0.755654    91A      0.761255    92A      0.768692  
      93A      0.775393    94A      0.780192    95A      0.783097  
      96A      0.794630    97A      0.798580    98A      0.800568  
      99A      0.823002   100A      0.832550   101A      0.833488  
     102A      0.840080   103A      0.847252   104A      0.847456  
     105A      0.869878   106A      0.879259   107A      0.891082  
     108A      0.891961   109A      0.914582   110A      0.915825  
     111A      0.932010   112A      0.933407   113A      0.940179  
     114A      0.955073   115A      0.965319   116A      0.969411  
     117A      0.975507   118A      0.981437   119A      0.995761  
     120A      1.017458   121A      1.018930   122A      1.028369  
     123A      1.034723   124A      1.043145   125A      1.047366  
     126A      1.056981   127A      1.060133   128A      1.070767  
     129A      1.094925   130A      1.099334   131A      1.119780  
     132A      1.126942   133A      1.160235   134A      1.175182  
     135A      1.187897   136A      1.201813   137A      1.203496  
     138A      1.241158   139A      1.266582   140A      1.277558  
     141A      1.296917   142A      1.315352   143A      1.319984  
     144A      1.336031   145A      1.348451   146A      1.377732  
     147A      1.385734   148A      1.399099   149A      1.416256  
     150A      1.454658   151A      1.466090   152A      1.470406  
     153A      1.483902   154A      1.489807   155A      1.490287  
     156A      1.530071   157A      1.532957   158A      1.552117  
     159A      1.557073   160A      1.561277   161A      1.583249  
     162A      1.584323   163A      1.612108   164A      1.624312  
     165A      1.628503   166A      1.639458   167A      1.658415  
     168A      1.665394   169A      1.691666   170A      1.699274  
     171A      1.706482   172A      1.719947   173A      1.722927  
     174A      1.736009   175A      1.744542   176A      1.752829  
     177A      1.755069   178A      1.757943   179A      1.779259  
     180A      1.783936   181A      1.796433   182A      1.818845  
     183A      1.829588   184A      1.832783   185A      1.852610  
     186A      1.860449   187A      1.872290   188A      1.885191  
     189A      1.893210   190A      1.895013   191A      1.917321  
     192A      1.926048   193A      1.938152   194A      1.951692  
     195A      1.957216   196A      1.972352   197A      1.974213  
     198A      2.005518   199A      2.016147   200A      2.032153  
     201A      2.037279   202A      2.040032   203A      2.048807  
     204A      2.053336   205A      2.078156   206A      2.078893  
     207A      2.095267   208A      2.102966   209A      2.109491  
     210A      2.112784   211A      2.133184   212A      2.138928  
     213A      2.160499   214A      2.165569   215A      2.168148  
     216A      2.188338   217A      2.194650   218A      2.200044  
     219A      2.205761   220A      2.235981   221A      2.244432  
     222A      2.263007   223A      2.279864   224A      2.315993  
     225A      2.323492   226A      2.337354   227A      2.341724  
     228A      2.353136   229A      2.355072   230A      2.376521  
     231A      2.385374   232A      2.397685   233A      2.413300  
     234A      2.423990   235A      2.448158   236A      2.476637  
     237A      2.512215   238A      2.522540   239A      2.549462  
     240A      2.572183   241A      2.579872   242A      2.581044  
     243A      2.597591   244A      2.637051   245A      2.668526  
     246A      2.681032   247A      2.689997   248A      2.691331  
     249A      2.707542   250A      2.754754   251A      2.762765  
     252A      2.825030   253A      2.847272   254A      2.890160  
     255A      2.908418   256A      2.930765   257A      2.934043  
     258A      2.946963   259A      2.949141   260A      2.958412  
     261A      2.975243   262A      2.995420   263A      2.998602  
     264A      3.001590   265A      3.026643   266A      3.028191  
     267A      3.029231   268A      3.035918   269A      3.051467  
     270A      3.058932   271A      3.090213   272A      3.101405  
     273A      3.113517   274A      3.116962   275A      3.135690  
     276A      3.141970   277A      3.146827   278A      3.179760  
     279A      3.189323   280A      3.211281   281A      3.213672  
     282A      3.231460   283A      3.239798   284A      3.256936  
     285A      3.288612   286A      3.293258   287A      3.297453  
     288A      3.323158   289A      3.332200   290A      3.362540  
     291A      3.395774   292A      3.413914   293A      3.438528  
     294A      3.448543   295A      3.485980   296A      3.523647  
     297A      3.527502   298A      3.571037   299A      3.613314  
     300A      3.629729   301A      3.663227   302A      3.691923  
     303A      3.701472   304A      3.709388   305A      3.711734  
     306A      3.738702   307A      3.758576   308A      3.777835  
     309A      3.817357   310A      3.850861   311A      3.872158  
     312A      3.900344   313A      3.920132   314A      3.955383  
     315A      3.975638   316A      3.991291   317A      4.014341  
     318A      4.024973   319A      4.083585   320A      4.093958  
     321A      4.128831   322A      4.158426   323A      4.161442  
     324A      4.175918   325A      4.210950   326A      4.220708  
     327A      4.225980   328A      4.261482   329A      4.272892  
     330A      4.311377   331A      4.333585   332A      4.343547  
     333A      4.387752   334A      4.411812   335A      4.417201  
     336A      4.430761   337A      4.452564   338A      4.458778  
     339A      4.553997   340A      4.606108   341A      4.630483  
     342A      4.660144   343A      4.730329   344A      4.788984  
     345A      4.809332   346A      4.824985   347A      4.831373  
     348A      4.854346   349A      4.955204   350A      4.993265  
     351A      5.003994   352A      5.011558   353A      5.024006  
     354A      5.027361   355A      5.071376   356A      5.125429  
     357A      5.156991   358A      5.193288   359A      5.218830  
     360A      5.241638   361A      5.255342   362A      5.271548  
     363A      5.410548   364A      5.430401   365A      5.459681  
     366A      5.467128   367A      5.539490   368A      5.591295  
     369A      5.658338   370A      5.701140   371A      5.944068  
     372A      5.982337   373A      6.183695   374A      6.438450  
     375A      6.455373   376A      6.504271   377A      6.515948  
     378A      6.626414   379A      6.630605   380A      6.704235  
     381A      6.769145   382A      6.798751   383A      6.856472  
     384A      6.858180   385A      6.914897   386A      6.933004  
     387A      6.942462   388A      6.956280   389A      6.974885  
     390A      7.011120   391A      7.081052   392A      7.126361  
     393A      7.174303   394A      7.183221   395A      7.190537  
     396A      7.195465   397A      7.222298   398A      7.249507  
     399A      7.282027   400A      7.285630   401A      7.290579  
     402A      7.311796   403A      7.344997   404A      7.359687  
     405A      7.372583   406A      7.397503   407A      7.403017  
     408A      7.435976   409A      7.451934   410A      7.486830  
     411A      7.510417   412A      7.579897   413A      7.616540  
     414A      7.651404   415A      7.683260   416A      7.705562  
     417A      7.724580   418A      7.765711   419A      7.805933  
     420A      7.833728   421A      7.874453   422A      7.884366  
     423A      7.886417   424A      7.924364   425A      7.950265  
     426A      7.983097   427A      7.990954   428A      8.054724  
     429A      8.130222   430A      8.143067   431A      8.165248  
     432A      8.181436   433A      8.266397   434A      8.268365  
     435A      8.390001   436A      8.392013   437A      8.417363  
     438A      8.438151   439A      8.500910   440A      8.542745  
     441A      8.560725   442A      8.572156   443A      8.581870  
     444A      8.597413   445A      8.671632   446A      8.682174  
     447A      8.697049   448A      8.789960   449A      8.846646  
     450A      8.918476   451A      8.925438   452A      8.946995  
     453A      8.961524   454A      8.971904   455A      8.995810  
     456A      9.002349   457A      9.018114   458A      9.032848  
     459A      9.062599   460A      9.064197   461A      9.074176  
     462A      9.101719   463A      9.132906   464A      9.160541  
     465A      9.175971   466A      9.222731   467A      9.302692  
     468A      9.336690   469A      9.344977   470A      9.368773  
     471A      9.388346   472A      9.427996   473A      9.440205  
     474A      9.452418   475A      9.462529   476A      9.541293  
     477A      9.560334   478A      9.567550   479A      9.609464  
     480A      9.624386   481A      9.648709   482A      9.678770  
     483A      9.697486   484A      9.764695   485A      9.797198  
     486A      9.798327   487A      9.807071   488A      9.820834  
     489A      9.843116   490A      9.879056   491A      9.935683  
     492A      9.936906   493A      9.957989   494A      9.979228  
     495A     10.054937   496A     10.128072   497A     10.156043  
     498A     10.170617   499A     10.183935   500A     10.208106  
     501A     10.209503   502A     10.239476   503A     10.249634  
     504A     10.311572   505A     10.339073   506A     10.416743  
     507A     10.427050   508A     10.468900   509A     10.527060  
     510A     10.552920   511A     10.573527   512A     10.591659  
     513A     10.675037   514A     10.702632   515A     10.740505  
     516A     10.789651   517A     10.855463   518A     10.958217  
     519A     11.012480   520A     11.037590   521A     11.039054  
     522A     11.053008   523A     11.153472   524A     11.234323  
     525A     11.264655   526A     11.308694   527A     11.426514  
     528A     11.779895   529A     11.803350   530A     11.831738  
     531A     11.959053   532A     12.196953   533A     12.202597  
     534A     12.206603   535A     12.214372   536A     12.307045  
     537A     12.368815   538A     12.370447   539A     12.475237  
     540A     12.567838   541A     12.842118   542A     13.042993  
     543A     13.157861   544A     13.167212   545A     13.200572  
     546A     13.228793   547A     13.458264   548A     13.664770  
     549A     14.025342   550A     14.084947   551A     14.349836  
     552A     14.864291   553A     15.120296   554A     15.123756  
     555A     15.166053   556A     16.692394   557A     17.329418  
     558A     17.435090   559A     18.055893   560A     36.789518  
     561A     68.941263   562A     69.370420  

    Final Occupation by Irrep:
              A 
    DOCC [     5 ]

  @DF-RHF Final Energy:   -56.22386014591649

   => Energetics <=

    Nuclear Repulsion Energy =             11.9634977457269240
    One-Electron Energy =                 -99.6307513908746643
    Two-Electron Energy =                  31.4433934992312487
    Total Energy =                        -56.2238601459164897

Computation Completed


Properties will be evaluated at   0.000000,   0.000000,   0.000000 [a0]

Properties computed using the SCF density matrix

  Nuclear Dipole Moment: [e a0]
     X:    48.8743      Y:    -1.9123      Z:     0.0198

  Electronic Dipole Moment: [e a0]
     X:   -48.3658      Y:     1.5045      Z:    -0.0020

  Dipole Moment: [e a0]
     X:     0.5085      Y:    -0.4078      Z:     0.0178     Total:     0.6521

  Dipole Moment: [D]
     X:     1.2925      Y:    -1.0366      Z:     0.0451     Total:     1.6575


*** tstop() called on node36.bme.utexas.edu at Sat Apr 11 16:34:48 2020
Module time:
	user time   =      70.93 seconds =       1.18 minutes
	system time =       1.97 seconds =       0.03 minutes
	total time  =         14 seconds =       0.23 minutes
Total time:
	user time   =     125.55 seconds =       2.09 minutes
	system time =       4.67 seconds =       0.08 minutes
	total time  =         26 seconds =       0.43 minutes

*** tstart() called on node36.bme.utexas.edu
*** at Sat Apr 11 16:34:48 2020


  //>>>>>>>>>>>>>>>>>>>>>>>>>>>>>>>>>>>//
  //               DFMP2               //
  //<<<<<<<<<<<<<<<<<<<<<<<<<<<<<<<<<<<//

   => Loading Basis Set <=

    Name: (AUG-CC-PVQZ AUX)
    Role: RIFIT
    Keyword: DF_BASIS_MP2
    atoms 1-2       entry C          line   184 file /home/liuchw/anaconda3/envs/psi4env/share/psi4/basis/aug-cc-pvqz-ri.gbs 
    atoms 3-6, 8-10 entry H          line    30 file /home/liuchw/anaconda3/envs/psi4env/share/psi4/basis/aug-cc-pvqz-ri.gbs 
    atoms 7         entry N          line   258 file /home/liuchw/anaconda3/envs/psi4env/share/psi4/basis/aug-cc-pvqz-ri.gbs 

	 --------------------------------------------------------
	                          DF-MP2                         
	      2nd-Order Density-Fitted Moller-Plesset Theory     
	              RMP2 Wavefunction,   6 Threads             
	                                                         
	        Rob Parrish, Justin Turney, Andy Simmonett,      
	           Ed Hohenstein, and C. David Sherrill          
	 --------------------------------------------------------

   => Auxiliary Basis Set <=

  Basis Set: (AUG-CC-PVQZ AUX)
    Blend: AUG-CC-PVQZ-RI
    Number of shells: 248
    Number of basis function: 1064
    Number of Cartesian functions: 1446
    Spherical Harmonics?: true
    Max angular momentum: 5

	 --------------------------------------------------------
	                 NBF =   562, NAUX =  1064
	 --------------------------------------------------------
	   CLASS    FOCC     OCC    AOCC    AVIR     VIR    FVIR
	   PAIRS       0       5       5     557     557       0
	 --------------------------------------------------------

	-----------------------------------------------------------
	 ==================> DF-MP2 Energies <==================== 
	-----------------------------------------------------------
	 Reference Energy          =     -56.2238601459164897 [Eh]
	 Singles Energy            =      -0.0000000000000000 [Eh]
	 Same-Spin Energy          =      -0.0594178601080785 [Eh]
	 Opposite-Spin Energy      =      -0.2249295227330984 [Eh]
	 Correlation Energy        =      -0.2843473828411768 [Eh]
	 Total Energy              =     -56.5082075287576657 [Eh]
	-----------------------------------------------------------
	 ================> DF-SCS-MP2 Energies <================== 
	-----------------------------------------------------------
	 SCS Same-Spin Scale       =       0.3333333333333333 [-]
	 SCS Opposite-Spin Scale   =       1.2000000000000000 [-]
	 SCS Same-Spin Energy      =      -0.0198059533693595 [Eh]
	 SCS Opposite-Spin Energy  =      -0.2699154272797180 [Eh]
	 SCS Correlation Energy    =      -0.2897213806490775 [Eh]
	 SCS Total Energy          =     -56.5135815265655665 [Eh]
	-----------------------------------------------------------


*** tstop() called on node36.bme.utexas.edu at Sat Apr 11 16:34:56 2020
Module time:
	user time   =      33.71 seconds =       0.56 minutes
	system time =       1.09 seconds =       0.02 minutes
	total time  =          8 seconds =       0.13 minutes
Total time:
	user time   =     159.26 seconds =       2.65 minutes
	system time =       5.76 seconds =       0.10 minutes
	total time  =         34 seconds =       0.57 minutes

  //>>>>>>>>>>>>>>>>>>>>>>>>>>>>>>>>>>>//
  //  CBS Results: mp2/aug-cc-pv[tq]z  //
  //<<<<<<<<<<<<<<<<<<<<<<<<<<<<<<<<<<<//


   ==> HF <==

   HI-zeta (4) Energy:               -56.223860145916


   ==> Helgaker 2-point correlated extrapolation for method: MP2 <==

   LO-zeta (3) Energy:               -56.477621285132
   HI-zeta (4) Energy:               -56.508207528758
   Alpha (exponent) Value:             3.000000000000
   Extrapolated Energy:              -56.530527220052

   @Extrapolated MP2/(T,Q):          -56.530527220052



   ==> Helgaker 2-point correlated extrapolation for method: HF <==

   LO-zeta (3) Energy:               -56.220224013006
   HI-zeta (4) Energy:               -56.223860145916
   Alpha (exponent) Value:             3.000000000000
   Extrapolated Energy:              -56.226513540203

   @Extrapolated HF/(T,Q):           -56.226513540203


   ==> Components <==

  ---------------------------------------------------------------------------------------------------------
                          Method / Basis                      Rqd      Energy [Eh]   Variable
  ---------------------------------------------------------------------------------------------------------
                              hf / aug-cc-pvtz                  *     -56.22022401   HF TOTAL ENERGY
                             mp2 / aug-cc-pvtz                  *     -56.47762129   MP2 TOTAL ENERGY
                              hf / aug-cc-pvqz                  *     -56.22386015   HF TOTAL ENERGY
                             mp2 / aug-cc-pvqz                  *     -56.50820753   MP2 TOTAL ENERGY
  ---------------------------------------------------------------------------------------------------------

   ==> Stages <==

  ---------------------------------------------------------------------------------------------------------
      Stage               Method / Basis                       Wt      Energy [Eh]   Scheme
  ---------------------------------------------------------------------------------------------------------
        scf                   hf / aug-cc-pvqz                  1     -56.22386015   xtpl_highest_1
       corl                  mp2 / aug-cc-pv[tq]z               1     -56.53052722   corl_xtpl_helgaker_2
       corl                   hf / aug-cc-pv[tq]z              -1     -56.22651354   corl_xtpl_helgaker_2
  ---------------------------------------------------------------------------------------------------------

   ==> CBS <==

  ---------------------------------------------------------------------------------------------------------
      Stage               Method / Basis                               Energy [Eh]   Scheme
  ---------------------------------------------------------------------------------------------------------
        scf                   hf / aug-cc-pvqz                        -56.22386015   xtpl_highest_1
       corl                  mp2 / aug-cc-pv[tq]z                      -0.30401368   corl_xtpl_helgaker_2
      total                  CBS                                      -56.52787383   
  ---------------------------------------------------------------------------------------------------------
   => Loading Basis Set <=

    Name: DEF2-SVP
    Role: ORBITAL
    Keyword: BASIS
    atoms 1-2       entry C          line    90 file /home/liuchw/anaconda3/envs/psi4env/share/psi4/basis/def2-svp.gbs 
[...]
      92A      0.704696    93A      0.721144    94A      0.723622  
      95A      0.725238    96A      0.728319    97A      0.740066  
      98A      0.745826    99A      0.749944   100A      0.754447  
     101A      0.755493   102A      0.762668   103A      0.765491  
     104A      0.775928   105A      0.791400   106A      0.794171  
     107A      0.794683   108A      0.810854   109A      0.814646  
     110A      0.817366   111A      0.820701   112A      0.838749  
     113A      0.842902   114A      0.857387   115A      0.864181  
     116A      0.865541   117A      0.868037   118A      0.880036  
     119A      0.899123   120A      0.904263   121A      0.914196  
     122A      0.922255   123A      0.932593   124A      0.940697  
     125A      0.964852   126A      0.977946   127A      0.981709  
     128A      0.993854   129A      1.000220   130A      1.008747  
     131A      1.027834   132A      1.031849   133A      1.055804  
     134A      1.058418   135A      1.062304   136A      1.074766  
     137A      1.101109   138A      1.117682   139A      1.125561  
     140A      1.154761   141A      1.172814   142A      1.198270  
     143A      1.201023   144A      1.227658   145A      1.237953  
     146A      1.248925   147A      1.255201   148A      1.283151  
     149A      1.286041   150A      1.301664   151A      1.311216  
     152A      1.315241   153A      1.343068   154A      1.350492  
     155A      1.357533   156A      1.360893   157A      1.373317  
     158A      1.383935   159A      1.391653   160A      1.408040  
     161A      1.444039   162A      1.454352   163A      1.459722  
     164A      1.464684   165A      1.484840   166A      1.509211  
     167A      1.511964   168A      1.525263   169A      1.538705  
     170A      1.551652   171A      1.571897   172A      1.572991  
     173A      1.581191   174A      1.604369   175A      1.618051  
     176A      1.620251   177A      1.635282   178A      1.652932  
     179A      1.665735   180A      1.692421   181A      1.705539  
     182A      1.711983   183A      1.723167   184A      1.729779  
     185A      1.733186   186A      1.748486   187A      1.756371  
     188A      1.776193   189A      1.793242   190A      1.801018  
     191A      1.809289   192A      1.814860   193A      1.835107  
     194A      1.845418   195A      1.851403   196A      1.866736  
     197A      1.873732   198A      1.881958   199A      1.885041  
     200A      1.894545   201A      1.913648   202A      1.940571  
     203A      1.945217   204A      1.963501   205A      1.991921  
     206A      1.994762   207A      2.001178   208A      2.008201  
     209A      2.011809   210A      2.023357   211A      2.041291  
     212A      2.049072   213A      2.057384   214A      2.075541  
     215A      2.081160   216A      2.082049   217A      2.101671  
     218A      2.109714   219A      2.116617   220A      2.123494  
     221A      2.129292   222A      2.135715   223A      2.141950  
     224A      2.144395   225A      2.151356   226A      2.163813  
     227A      2.169603   228A      2.187830   229A      2.204106  
     230A      2.211783   231A      2.226512   232A      2.244884  
     233A      2.268406   234A      2.286765   235A      2.300047  
     236A      2.311856   237A      2.315467   238A      2.316722  
     239A      2.322057   240A      2.364680   241A      2.379148  
     242A      2.384581   243A      2.398385   244A      2.404576  
     245A      2.409036   246A      2.433331   247A      2.435888  
     248A      2.462667   249A      2.463476   250A      2.492601  
     251A      2.505185   252A      2.510375   253A      2.530372  
     254A      2.541439   255A      2.553845   256A      2.568513  
     257A      2.580307   258A      2.600274   259A      2.646509  
     260A      2.648395   261A      2.687437   262A      2.745303  
     263A      2.760237   264A      2.769548   265A      2.786995  
     266A      2.832148   267A      2.836690   268A      2.855112  
     269A      2.893868   270A      2.902706   271A      2.921234  
     272A      2.930320   273A      2.944712   274A      2.955637  
     275A      2.965727   276A      2.970376   277A      2.974867  
     278A      2.984995   279A      3.000555   280A      3.007490  
     281A      3.016408   282A      3.024350   283A      3.044961  
     284A      3.064034   285A      3.068533   286A      3.093952  
     287A      3.096849   288A      3.141129   289A      3.141874  
     290A      3.165602   291A      3.190301   292A      3.204235  
     293A      3.217002   294A      3.250858   295A      3.251858  
     296A      3.283662   297A      3.300430   298A      3.316588  
     299A      3.377985   300A      3.390852   301A      3.392700  
     302A      3.422834   303A      3.473545   304A      3.511968  
     305A      3.519867   306A      3.542717   307A      3.572218  
     308A      3.573926   309A      3.599821   310A      3.666934  
     311A      3.687339   312A      3.717011   313A      3.718031  
     314A      3.732012   315A      3.746001   316A      3.752516  
     317A      3.769046   318A      3.797349   319A      3.824542  
     320A      3.875124   321A      3.897176   322A      3.914464  
     323A      3.926796   324A      3.950587   325A      3.982165  
     326A      3.984981   327A      3.989751   328A      4.024678  
     329A      4.061455   330A      4.080199   331A      4.084081  
     332A      4.139941   333A      4.172471   334A      4.200844  
     335A      4.213787   336A      4.217822   337A      4.231507  
     338A      4.234691   339A      4.248449   340A      4.268365  
     341A      4.282943   342A      4.288707   343A      4.350616  
     344A      4.363869   345A      4.397914   346A      4.400322  
     347A      4.412129   348A      4.452237   349A      4.465125  
     350A      4.488709   351A      4.518304   352A      4.549886  
     353A      4.596431   354A      4.599676   355A      4.660223  
     356A      4.715710   357A      4.800251   358A      4.818536  
     359A      4.860122   360A      4.878200   361A      4.931225  
     362A      4.993145   363A      5.007791   364A      5.071441  
     365A      5.119060   366A      5.159620   367A      5.209771  
     368A      5.217189   369A      5.250863   370A      5.270422  
     371A      5.400194   372A      5.430901   373A      5.451106  
     374A      5.461627   375A      5.694077   376A      5.852169  
     377A      5.884375   378A      5.939158   379A      6.005496  
     380A      6.023076   381A      6.036787   382A      6.051370  
     383A      6.056111   384A      6.300971   385A      6.304577  
     386A      6.309896   387A      6.337305   388A      6.400163  
     389A      6.460601   390A      6.464306   391A      6.504023  
     392A      6.544699   393A      6.568551   394A      6.626245  
     395A      6.635886   396A      6.653801   397A      6.711410  
     398A      6.713874   399A      6.752029   400A      6.778233  
     401A      6.850287   402A      6.851229   403A      6.856750  
     404A      6.889980   405A      6.913657   406A      6.920613  
     407A      6.938208   408A      6.966160   409A      6.977698  
     410A      7.008352   411A      7.019118   412A      7.026789  
     413A      7.092399   414A      7.093321   415A      7.116347  
     416A      7.152219   417A      7.221696   418A      7.299517  
     419A      7.303980   420A      7.321346   421A      7.344615  
     422A      7.359679   423A      7.392558   424A      7.395418  
     425A      7.432858   426A      7.443951   427A      7.452744  
     428A      7.471728   429A      7.492331   430A      7.541998  
     431A      7.659778   432A      7.660643   433A      7.699481  
     434A      7.703526   435A      7.721880   436A      7.756112  
     437A      7.764302   438A      7.772273   439A      7.772646  
     440A      7.884694   441A      7.896711   442A      7.920414  
     443A      7.940528   444A      7.982398   445A      7.987954  
     446A      8.010502   447A      8.032698   448A      8.051278  
     449A      8.070974   450A      8.188866   451A      8.261917  
     452A      8.308334   453A      8.321790   454A      8.373811  
     455A      8.388993   456A      8.396139   457A      8.418476  
     458A      8.432518   459A      8.516213   460A      8.527324  
     461A      8.565159   462A      8.571007   463A      8.589093  
     464A      8.604911   465A      8.661913   466A      8.667370  
     467A      8.713977   468A      8.754551   469A      8.778290  
     470A      8.811294   471A      8.868298   472A      8.889501  
     473A      8.909300   474A      8.924739   475A      8.941598  
     476A      8.946359   477A      8.974574   478A      8.981803  
     479A      8.997524   480A      9.028040   481A      9.028412  
     482A      9.064153   483A      9.097212   484A      9.121261  
     485A      9.125105   486A      9.142003   487A      9.223888  
     488A      9.264475   489A      9.325597   490A      9.341449  
     491A      9.344304   492A      9.437786   493A      9.448468  
     494A      9.474171   495A      9.525745   496A      9.546007  
     497A      9.552136   498A      9.573755   499A      9.580938  
     500A      9.639512   501A      9.670829   502A      9.693226  
     503A      9.704665   504A      9.737304   505A      9.812124  
     506A      9.814663   507A      9.829950   508A      9.847818  
     509A      9.870664   510A      9.930175   511A      9.950382  
     512A      9.979145   513A     10.012538   514A     10.036876  
     515A     10.153224   516A     10.154006   517A     10.203168  
     518A     10.205708   519A     10.254936   520A     10.283510  
     521A     10.293159   522A     10.308727   523A     10.333602  
     524A     10.380474   525A     10.530678   526A     10.555475  
     527A     10.565465   528A     10.566024   529A     10.587821  
     530A     10.648026   531A     10.711784   532A     10.719284  
     533A     10.784236   534A     10.851039   535A     10.902618  
     536A     11.007957   537A     11.032916   538A     11.102965  
     539A     11.144749   540A     11.461280   541A     11.506327  
     542A     11.758457   543A     11.799160   544A     12.201135  
     545A     12.206256   546A     12.295528   547A     12.303100  
     548A     12.364577   549A     12.368625   550A     12.924055  
     551A     13.037701   552A     13.039366   553A     13.155074  
     554A     13.203824   555A     13.284936   556A     13.659753  
     557A     14.860396   558A     15.117013   559A     15.149592  
     560A     26.751001   561A     27.032260   562A     36.785565  

    Final Occupation by Irrep:
              A 
    DOCC [    13 ]

  @DF-RHF Final Energy:  -134.29402190061188

   => Energetics <=

    Nuclear Repulsion Energy =             65.7457209287621112
    One-Electron Energy =                -310.6735207063541679
    Two-Electron Energy =                 110.6337778769801616
    Total Energy =                       -134.2940219006118809

Computation Completed


Properties will be evaluated at   0.000000,   0.000000,   0.000000 [a0]

Properties computed using the SCF density matrix

  Nuclear Dipole Moment: [e a0]
     X:     2.0627      Y:    -0.6164      Z:     0.0266

  Electronic Dipole Moment: [e a0]
     X:    -1.4370      Y:     0.2567      Z:    -0.0098

  Dipole Moment: [e a0]
     X:     0.6257      Y:    -0.3597      Z:     0.0168     Total:     0.7219

  Dipole Moment: [D]
     X:     1.5903      Y:    -0.9142      Z:     0.0427     Total:     1.8349


*** tstop() called on node36.bme.utexas.edu at Sat Apr 11 16:35:59 2020
Module time:
	user time   =      80.28 seconds =       1.34 minutes
	system time =       2.70 seconds =       0.05 minutes
	total time  =         16 seconds =       0.27 minutes
Total time:
	user time   =     455.03 seconds =       7.58 minutes
	system time =      16.71 seconds =       0.28 minutes
	total time  =         97 seconds =       1.62 minutes

*** tstart() called on node36.bme.utexas.edu
*** at Sat Apr 11 16:35:59 2020


  //>>>>>>>>>>>>>>>>>>>>>>>>>>>>>>>>>>>//
  //               DFMP2               //
  //<<<<<<<<<<<<<<<<<<<<<<<<<<<<<<<<<<<//

   => Loading Basis Set <=

    Name: (AUG-CC-PVQZ AUX)
    Role: RIFIT
    Keyword: DF_BASIS_MP2
    atoms 1-2       entry C          line   184 file /home/liuchw/anaconda3/envs/psi4env/share/psi4/basis/aug-cc-pvqz-ri.gbs 
    atoms 3-6, 8-10 entry H          line    30 file /home/liuchw/anaconda3/envs/psi4env/share/psi4/basis/aug-cc-pvqz-ri.gbs 
    atoms 7         entry N          line   258 file /home/liuchw/anaconda3/envs/psi4env/share/psi4/basis/aug-cc-pvqz-ri.gbs 

	 --------------------------------------------------------
	                          DF-MP2                         
	      2nd-Order Density-Fitted Moller-Plesset Theory     
	              RMP2 Wavefunction,   6 Threads             
	                                                         
	        Rob Parrish, Justin Turney, Andy Simmonett,      
	           Ed Hohenstein, and C. David Sherrill          
	 --------------------------------------------------------

   => Auxiliary Basis Set <=

  Basis Set: (AUG-CC-PVQZ AUX)
    Blend: AUG-CC-PVQZ-RI
    Number of shells: 248
    Number of basis function: 1064
    Number of Cartesian functions: 1446
    Spherical Harmonics?: true
    Max angular momentum: 5

	 --------------------------------------------------------
	                 NBF =   562, NAUX =  1064
	 --------------------------------------------------------
	   CLASS    FOCC     OCC    AOCC    AVIR     VIR    FVIR
	   PAIRS       0      13      13     549     549       0
	 --------------------------------------------------------

	-----------------------------------------------------------
	 ==================> DF-MP2 Energies <==================== 
	-----------------------------------------------------------
	 Reference Energy          =    -134.2940219006118809 [Eh]
	 Singles Energy            =      -0.0000000000000000 [Eh]
	 Same-Spin Energy          =      -0.1414852909436897 [Eh]
	 Opposite-Spin Energy      =      -0.5594408729279059 [Eh]
	 Correlation Energy        =      -0.7009261638715956 [Eh]
	 Total Energy              =    -134.9949480644834807 [Eh]
	-----------------------------------------------------------
	 ================> DF-SCS-MP2 Energies <================== 
	-----------------------------------------------------------
	 SCS Same-Spin Scale       =       0.3333333333333333 [-]
	 SCS Opposite-Spin Scale   =       1.2000000000000000 [-]
	 SCS Same-Spin Energy      =      -0.0471617636478966 [Eh]
	 SCS Opposite-Spin Energy  =      -0.6713290475134871 [Eh]
	 SCS Correlation Energy    =      -0.7184908111613837 [Eh]
	 SCS Total Energy          =    -135.0125127117732688 [Eh]
	-----------------------------------------------------------


*** tstop() called on node36.bme.utexas.edu at Sat Apr 11 16:36:07 2020
Module time:
	user time   =      38.07 seconds =       0.63 minutes
	system time =       1.27 seconds =       0.02 minutes
	total time  =          8 seconds =       0.13 minutes
Total time:
	user time   =     493.11 seconds =       8.22 minutes
	system time =      17.98 seconds =       0.30 minutes
	total time  =        105 seconds =       1.75 minutes

  //>>>>>>>>>>>>>>>>>>>>>>>>>>>>>>>>>>>//
  //  CBS Results: mp2/aug-cc-pv[tq]z  //
  //<<<<<<<<<<<<<<<<<<<<<<<<<<<<<<<<<<<//


   ==> HF <==

   HI-zeta (4) Energy:               -134.294021900612


   ==> Helgaker 2-point correlated extrapolation for method: MP2 <==

   LO-zeta (3) Energy:               -134.919723657262
   HI-zeta (4) Energy:               -134.994948064483
   Alpha (exponent) Value:             3.000000000000
   Extrapolated Energy:              -135.049841550835

   @Extrapolated MP2/(T,Q):          -135.049841550835



   ==> Helgaker 2-point correlated extrapolation for method: HF <==

   LO-zeta (3) Energy:               -134.285686269730
   HI-zeta (4) Energy:               -134.294021900612
   Alpha (exponent) Value:             3.000000000000
   Extrapolated Energy:              -134.300104658283

   @Extrapolated HF/(T,Q):           -134.300104658283


   ==> Components <==

  ---------------------------------------------------------------------------------------------------------
                          Method / Basis                      Rqd      Energy [Eh]   Variable
  ---------------------------------------------------------------------------------------------------------
                              hf / aug-cc-pvtz                  *    -134.28568627   HF TOTAL ENERGY
                             mp2 / aug-cc-pvtz                  *    -134.91972366   MP2 TOTAL ENERGY
                              hf / aug-cc-pvqz                  *    -134.29402190   HF TOTAL ENERGY
                             mp2 / aug-cc-pvqz                  *    -134.99494806   MP2 TOTAL ENERGY
  ---------------------------------------------------------------------------------------------------------

   ==> Stages <==

  ---------------------------------------------------------------------------------------------------------
      Stage               Method / Basis                       Wt      Energy [Eh]   Scheme
  ---------------------------------------------------------------------------------------------------------
        scf                   hf / aug-cc-pvqz                  1    -134.29402190   xtpl_highest_1
       corl                  mp2 / aug-cc-pv[tq]z               1    -135.04984155   corl_xtpl_helgaker_2
       corl                   hf / aug-cc-pv[tq]z              -1    -134.30010466   corl_xtpl_helgaker_2
  ---------------------------------------------------------------------------------------------------------

   ==> CBS <==

  ---------------------------------------------------------------------------------------------------------
      Stage               Method / Basis                               Energy [Eh]   Scheme
  ---------------------------------------------------------------------------------------------------------
        scf                   hf / aug-cc-pvqz                       -134.29402190   xtpl_highest_1
       corl                  mp2 / aug-cc-pv[tq]z                      -0.74973689   corl_xtpl_helgaker_2
      total                  CBS                                     -135.04375879   
  ---------------------------------------------------------------------------------------------------------
   => Loading Basis Set <=

    Name: DEF2-SVP
    Role: ORBITAL
    Keyword: BASIS
    atoms 1-2       entry C          line    90 file /home/liuchw/anaconda3/envs/psi4env/share/psi4/basis/def2-svp.gbs 
    atoms 3-6, 8-10 entry H          line    15 file /home/liuchw/anaconda3/envs/psi4env/share/psi4/basis/def2-svp.gbs 
    atoms 7         entry N          line   110 file /home/liuchw/anaconda3/envs/psi4env/share/psi4/basis/def2-svp.gbs 


       N-Body: Complex Energy (fragments = (1, 2), basis = (1, 2):  -135.04375879316370)

   ==> N-Body: Counterpoise Corrected (CP) energies <==

   n-Body     Total Energy [Eh]       I.E. [kcal/mol]      Delta [kcal/mol]
        1     -135.041768156143        0.000000000000        0.000000000000
        2     -135.043784545035       -1.265303132765       -1.265303132765

   => Loading Basis Set <=

    Name: DEF2-SVP
    Role: ORBITAL
    Keyword: BASIS
    atoms 1-2       entry C          line    90 file /home/liuchw/anaconda3/envs/psi4env/share/psi4/basis/def2-svp.gbs 
    atoms 3-6, 8-10 entry H          line    15 file /home/liuchw/anaconda3/envs/psi4env/share/psi4/basis/def2-svp.gbs 
    atoms 7         entry N          line   110 file /home/liuchw/anaconda3/envs/psi4env/share/psi4/basis/def2-svp.gbs 


    Psi4 stopped on: Saturday, 11 April 2020 04:36PM
    Psi4 wall time for execution: 0:01:46.44

*** Psi4 exiting successfully. Buy a developer a beer!
