 Entering Gaussian System, Link 0=g16
 Input=17_BenF.com
 Output=17_BenF.out
 Initial command:
 /opt/software/Gaussian16/bin/avx/g16/l1.exe "/scratch/liuchw/Gau-40856.inp" -scrdir="/scratch/liuchw/"
 Entering Link 1 = /opt/software/Gaussian16/bin/avx/g16/l1.exe PID=     40857.
  
 Copyright (c) 1988-2019, Gaussian, Inc.  All Rights Reserved.
  
 This is part of the Gaussian(R) 16 program.  It is based on
 the Gaussian(R) 09 system (copyright 2009, Gaussian, Inc.),
 the Gaussian(R) 03 system (copyright 2003, Gaussian, Inc.),
 the Gaussian(R) 98 system (copyright 1998, Gaussian, Inc.),
 the Gaussian(R) 94 system (copyright 1995, Gaussian, Inc.),
 the Gaussian 92(TM) system (copyright 1992, Gaussian, Inc.),
 the Gaussian 90(TM) system (copyright 1990, Gaussian, Inc.),
 the Gaussian 88(TM) system (copyright 1988, Gaussian, Inc.),
 the Gaussian 86(TM) system (copyright 1986, Carnegie Mellon
 University), and the Gaussian 82(TM) system (copyright 1983,
 Carnegie Mellon University). Gaussian is a federally registered
 trademark of Gaussian, Inc.
  
 This software contains proprietary and confidential information,
 including trade secrets, belonging to Gaussian, Inc.
  
 This software is provided under written license and may be
 used, copied, transmitted, or stored only in accord with that
 written license.
  
 The following legend is applicable only to US Government
 contracts under FAR:
  
                    RESTRICTED RIGHTS LEGEND
  
 Use, reproduction and disclosure by the US Government is
 subject to restrictions as set forth in subparagraphs (a)
 and (c) of the Commercial Computer Software - Restricted
 Rights clause in FAR 52.227-19.
  
 Gaussian, Inc.
 340 Quinnipiac St., Bldg. 40, Wallingford CT 06492
  
  
 ---------------------------------------------------------------
 Warning -- This program may not be used in any manner that
 competes with the business of Gaussian, Inc. or will provide
 assistance to any competitor of Gaussian, Inc.  The licensee
 of this program is prohibited from giving any competitor of
 Gaussian, Inc. access to this program.  By using this program,
 the user acknowledges that Gaussian, Inc. is engaged in the
 business of creating and licensing software in the field of
 computational chemistry and represents and warrants to the
 licensee that it is not a competitor of Gaussian, Inc. and that
 it will not use this program in any manner prohibited above.
 ---------------------------------------------------------------
  

 Cite this work as:
 Gaussian 16, Revision C.01,
 M. J. Frisch, G. W. Trucks, H. B. Schlegel, G. E. Scuseria, 
 M. A. Robb, J. R. Cheeseman, G. Scalmani, V. Barone, 
 G. A. Petersson, H. Nakatsuji, X. Li, M. Caricato, A. V. Marenich, 
 J. Bloino, B. G. Janesko, R. Gomperts, B. Mennucci, H. P. Hratchian, 
 J. V. Ortiz, A. F. Izmaylov, J. L. Sonnenberg, D. Williams-Young, 
 F. Ding, F. Lipparini, F. Egidi, J. Goings, B. Peng, A. Petrone, 
 T. Henderson, D. Ranasinghe, V. G. Zakrzewski, J. Gao, N. Rega, 
 G. Zheng, W. Liang, M. Hada, M. Ehara, K. Toyota, R. Fukuda, 
 J. Hasegawa, M. Ishida, T. Nakajima, Y. Honda, O. Kitao, H. Nakai, 
 T. Vreven, K. Throssell, J. A. Montgomery, Jr., J. E. Peralta, 
 F. Ogliaro, M. J. Bearpark, J. J. Heyd, E. N. Brothers, K. N. Kudin, 
 V. N. Staroverov, T. A. Keith, R. Kobayashi, J. Normand, 
 K. Raghavachari, A. P. Rendell, J. C. Burant, S. S. Iyengar, 
 J. Tomasi, M. Cossi, J. M. Millam, M. Klene, C. Adamo, R. Cammi, 
 J. W. Ochterski, R. L. Martin, K. Morokuma, O. Farkas, 
 J. B. Foresman, and D. J. Fox, Gaussian, Inc., Wallingford CT, 2019.
 
 ******************************************
 Gaussian 16:  ES64L-G16RevC.01  3-Jul-2019
                 8-Jan-2020 
 ******************************************
 %chk=17_BenF.chk
 %nproc=8
 Will use up to    8 processors via shared memory.
 %Mem=100GB
 ------------------------------------------------
 #p wB97XD/aug-cc-pvtz NoSymm MaxDisk=100GB polar
 ------------------------------------------------
 1/38=1,172=1/1;
 2/12=2,15=1,17=6,18=5,40=1/2;
 3/5=16,6=1,7=10,11=2,25=1,30=1,74=-58/1,2,3;
 4//1;
 5/5=2,38=5,98=1/2;
 8/6=4,10=90,11=11/1;
 10/6=1,13=10,31=1/2;
 6/7=2,8=2,9=2,10=2,28=1/1;
 99/5=1,9=1/99;
 Leave Link    1 at Wed Jan  8 10:48:55 2020, MaxMem= 13421772800 cpu:               0.6 elap:               0.4
 (Enter /opt/software/Gaussian16/bin/avx/g16/l101.exe)
 -----
 polar
 -----
 Symbolic Z-matrix:
 Charge =  0 Multiplicity = 1
 F                     2.28679   0.       -0.00018 
 C                     0.92854   0.       -0.00007 
 C                     0.25981   1.21824  -0.00015 
 C                     0.25981  -1.21824   0.00009 
 C                    -1.13636   1.20922  -0.00002 
 C                    -1.13636  -1.20922   0.00021 
 C                    -1.8361   0.         0.00014 
 H                     0.82913   2.14282  -0.00027 
 H                     0.82915  -2.14281   0.00014 
 H                    -1.67638   2.15261  -0.00008 
 H                    -1.67637  -2.15261   0.00034 
 H                    -2.92272   0.        0.00024 
 
 ITRead=  0  0  0  0  0  0  0  0  0  0  0  0
 MicOpt= -1 -1 -1 -1 -1 -1 -1 -1 -1 -1 -1 -1
 NAtoms=     12 NQM=       12 NQMF=       0 NMMI=      0 NMMIF=      0
                NMic=       0 NMicF=      0.
                    Isotopes and Nuclear Properties:
 (Nuclear quadrupole moments (NQMom) in fm**2, nuclear magnetic moments (NMagM)
  in nuclear magnetons)

  Atom         1           2           3           4           5           6           7           8           9          10
 IAtWgt=          19          12          12          12          12          12          12           1           1           1
 AtmWgt=  18.9984032  12.0000000  12.0000000  12.0000000  12.0000000  12.0000000  12.0000000   1.0078250   1.0078250   1.0078250
 NucSpn=           1           0           0           0           0           0           0           1           1           1
 AtZEff=  -0.0000000  -0.0000000  -0.0000000  -0.0000000  -0.0000000  -0.0000000  -0.0000000  -0.0000000  -0.0000000  -0.0000000
 NQMom=    0.0000000   0.0000000   0.0000000   0.0000000   0.0000000   0.0000000   0.0000000   0.0000000   0.0000000   0.0000000
 NMagM=    2.6288670   0.0000000   0.0000000   0.0000000   0.0000000   0.0000000   0.0000000   2.7928460   2.7928460   2.7928460
 AtZNuc=   9.0000000   6.0000000   6.0000000   6.0000000   6.0000000   6.0000000   6.0000000   1.0000000   1.0000000   1.0000000

  Atom        11          12
 IAtWgt=           1           1
 AtmWgt=   1.0078250   1.0078250
 NucSpn=           1           1
 AtZEff=  -0.0000000  -0.0000000
 NQMom=    0.0000000   0.0000000
 NMagM=    2.7928460   2.7928460
 AtZNuc=   1.0000000   1.0000000
 Leave Link  101 at Wed Jan  8 10:48:56 2020, MaxMem= 13421772800 cpu:               1.6 elap:               0.3
 (Enter /opt/software/Gaussian16/bin/avx/g16/l202.exe)
                          Input orientation:                          
 ---------------------------------------------------------------------
 Center     Atomic      Atomic             Coordinates (Angstroms)
 Number     Number       Type             X           Y           Z
 ---------------------------------------------------------------------
      1          9           0        2.286794    0.000000   -0.000176
      2          6           0        0.928539    0.000002   -0.000073
      3          6           0        0.259810    1.218240   -0.000146
      4          6           0        0.259810   -1.218238    0.000090
      5          6           0       -1.136358    1.209218   -0.000020
      6          6           0       -1.136357   -1.209220    0.000211
      7          6           0       -1.836104   -0.000002    0.000141
      8          1           0        0.829134    2.142817   -0.000266
      9          1           0        0.829145   -2.142809    0.000137
     10          1           0       -1.676377    2.152609   -0.000081
     11          1           0       -1.676372   -2.152614    0.000338
     12          1           0       -2.922718    0.000002    0.000242
 ---------------------------------------------------------------------
                    Distance matrix (angstroms):
                    1          2          3          4          5
     1  F    0.000000
     2  C    1.358255   0.000000
     3  C    2.364904   1.389713   0.000000
     4  C    2.364903   1.389715   2.436478   0.000000
     5  C    3.630451   2.392907   1.396197   2.800326   0.000000
     6  C    3.630451   2.392909   2.800329   1.396196   2.418438
     7  C    4.122898   2.764643   2.424246   2.424243   1.397089
     8  H    2.591609   2.145119   1.085805   3.408932   2.175952
     9  H    2.591596   2.145115   3.408928   1.085806   3.885780
    10  H    4.510039   3.379246   2.149852   3.887342   1.087018
    11  H    4.510037   3.379248   3.887346   2.149851   3.404927
    12  H    5.209512   3.851257   3.407725   3.407726   2.157148
                    6          7          8          9         10
     6  C    0.000000
     7  C    1.397088   0.000000
     8  H    3.885783   3.419820   0.000000
     9  H    2.175956   3.419821   4.285626   0.000000
    10  H    3.404925   2.158529   2.505530   4.972751   0.000000
    11  H    1.087018   2.158530   4.972755   2.505536   4.305223
    12  H    2.157152   1.086614   4.320654   4.320661   2.487385
                   11         12
    11  H    0.000000
    12  H    2.487395   0.000000
 Symmetry turned off by external request.
 Stoichiometry    C6H5F
 Framework group  C1[X(C6H5F)]
 Deg. of freedom    30
 Full point group                 C1      NOp   1
 Rotational constants (GHZ):           5.6589116           2.5532910           1.7594364
 Leave Link  202 at Wed Jan  8 10:48:57 2020, MaxMem= 13421772800 cpu:               0.1 elap:               0.1
 (Enter /opt/software/Gaussian16/bin/avx/g16/l301.exe)
 Standard basis: Aug-CC-pVTZ (5D, 7F)
 Ernie: Thresh=  0.10000D-02 Tol=  0.10000D-05 Strict=F.
 Ernie:  21 primitive shells out of 265 were deleted.
   437 basis functions,   639 primitive gaussians,   510 cartesian basis functions
    25 alpha electrons       25 beta electrons
       nuclear repulsion energy       268.6892288176 Hartrees.
 IExCor= 4639 DFT=T Ex+Corr=wB97XD ExCW=0 ScaHFX=  1.000000
 ScaDFX=  1.000000  1.000000  1.000000  1.000000 ScalE2=  1.000000  1.000000
 IRadAn=      5 IRanWt=     -1 IRanGd=            0 ICorTp=0 IEmpDi=121
 HFx  wShort=  0.000000 wLong=  0.200000 cFull=  0.222036 cShort=  0.000000 cLong=  0.777964
 DFx  wShort=  0.000000 wLong=  0.200000 cFull=  0.000000 cShort=  0.000000 cLong=  1.000000
 NAtoms=   12 NActive=   12 NUniq=   12 SFac= 1.00D+00 NAtFMM=   60 NAOKFM=F Big=F
 Integral buffers will be    131072 words long.
 Raffenetti 2 integral format.
 Two-electron integral symmetry is turned off.
 R6Disp:  Grimme-D2 Dispersion energy=       -0.0043585340 Hartrees.
 Nuclear repulsion after empirical dispersion term =      268.6848702836 Hartrees.
 Leave Link  301 at Wed Jan  8 10:48:58 2020, MaxMem= 13421772800 cpu:               1.1 elap:               0.3
 (Enter /opt/software/Gaussian16/bin/avx/g16/l302.exe)
 NPDir=0 NMtPBC=     1 NCelOv=     1 NCel=       1 NClECP=     1 NCelD=      1
         NCelK=      1 NCelE2=     1 NClLst=     1 CellRange=     0.0.
 One-electron integrals computed using PRISM.
 NBasis=   437 RedAO= T EigKep=  1.50D-06  NBF=   437
 NBsUse=   436 1.00D-06 EigRej=  9.78D-07 NBFU=   436
 Precomputing XC quadrature grid using
 IXCGrd= 4 IRadAn=           5 IRanWt=          -1 IRanGd=           0 AccXCQ= 0.00D+00.
 Generated NRdTot=       0 NPtTot=           0 NUsed=           0 NTot=          32
 NSgBfM=   510   510   510   510   510 MxSgAt=    12 MxSgA2=    12.
 Leave Link  302 at Wed Jan  8 10:49:00 2020, MaxMem= 13421772800 cpu:               4.2 elap:               0.9
 (Enter /opt/software/Gaussian16/bin/avx/g16/l303.exe)
 DipDrv:  MaxL=1.
 Leave Link  303 at Wed Jan  8 10:49:01 2020, MaxMem= 13421772800 cpu:               0.7 elap:               0.2
 (Enter /opt/software/Gaussian16/bin/avx/g16/l401.exe)
 ExpMin= 2.53D-02 ExpMax= 1.95D+04 ExpMxC= 6.65D+02 IAcc=3 IRadAn=         5 AccDes= 0.00D+00
 Harris functional with IExCor= 4639 and IRadAn=       5 diagonalized for initial guess.
 HarFok:  IExCor= 4639 AccDes= 0.00D+00 IRadAn=         5 IDoV= 1 UseB2=F ITyADJ=14
 ICtDFT=  3500011 ScaDFX=  1.000000  1.000000  1.000000  1.000000
 FoFCou: FMM=F IPFlag=           0 FMFlag=      100000 FMFlg1=           0
         NFxFlg=           0 DoJE=T BraDBF=F KetDBF=T FulRan=T
         wScrn=  0.000000 ICntrl=       500 IOpCl=  0 I1Cent=   200000004 NGrid=           0
         NMat0=    1 NMatS0=      1 NMatT0=    0 NMatD0=    1 NMtDS0=    0 NMtDT0=    0
 Symmetry not used in FoFCou.
 Harris En= -317.889836903989    
 JPrj=0 DoOrth=F DoCkMO=F.
 Leave Link  401 at Wed Jan  8 10:49:05 2020, MaxMem= 13421772800 cpu:              26.8 elap:               3.6
 (Enter /opt/software/Gaussian16/bin/avx/g16/l502.exe)
 Keep R1 ints in memory in canonical form, NReq=9267890907.
 FoFCou: FMM=F IPFlag=           0 FMFlag=           0 FMFlg1=           0
         NFxFlg=           0 DoJE=F BraDBF=F KetDBF=F FulRan=T
         wScrn=  0.000000 ICntrl=       600 IOpCl=  0 I1Cent=           0 NGrid=           0
         NMat0=    1 NMatS0=  95703 NMatT0=    0 NMatD0=    1 NMtDS0=    0 NMtDT0=    0
 Symmetry not used in FoFCou.
 Two-electron integral symmetry not used.
 Closed shell SCF:
 Using DIIS extrapolation, IDIIS=  1040.
 NGot= 13421772800 LenX=  4262085268 LenY=  4261824658
 Requested convergence on RMS density matrix=1.00D-08 within 128 cycles.
 Requested convergence on MAX density matrix=1.00D-06.
 Requested convergence on             energy=1.00D-06.
 No special actions if energy rises.

 Cycle   1  Pass 1  IDiag  1:
 E= -331.290940723125    
 DIIS: error= 4.74D-02 at cycle   1 NSaved=   1.
 NSaved= 1 IEnMin= 1 EnMin= -331.290940723125     IErMin= 1 ErrMin= 4.74D-02
 ErrMax= 4.74D-02  0.00D+00 EMaxC= 1.00D-01 BMatC= 7.67D-01 BMatP= 7.67D-01
 IDIUse=3 WtCom= 5.26D-01 WtEn= 4.74D-01
 Coeff-Com:  0.100D+01
 Coeff-En:   0.100D+01
 Coeff:      0.100D+01
 Gap=     0.489 Goal=   None    Shift=    0.000
 GapD=    0.489 DampG=2.000 DampE=0.500 DampFc=1.0000 IDamp=-1.
 RMSDP=3.69D-03 MaxDP=1.43D-01              OVMax= 1.83D-01

 Cycle   2  Pass 1  IDiag  1:
 E= -331.298495357689     Delta-E=       -0.007554634564 Rises=F Damp=F
 DIIS: error= 2.59D-02 at cycle   2 NSaved=   2.
 NSaved= 2 IEnMin= 2 EnMin= -331.298495357689     IErMin= 2 ErrMin= 2.59D-02
 ErrMax= 2.59D-02  0.00D+00 EMaxC= 1.00D-01 BMatC= 3.58D-01 BMatP= 7.67D-01
 IDIUse=3 WtCom= 7.41D-01 WtEn= 2.59D-01
 Coeff-Com:  0.382D+00 0.618D+00
 Coeff-En:   0.490D+00 0.510D+00
 Coeff:      0.410D+00 0.590D+00
 Gap=     0.407 Goal=   None    Shift=    0.000
 RMSDP=2.24D-03 MaxDP=1.04D-01 DE=-7.55D-03 OVMax= 1.45D-01

 Cycle   3  Pass 1  IDiag  1:
 E= -331.478321207447     Delta-E=       -0.179825849758 Rises=F Damp=F
 DIIS: error= 9.60D-03 at cycle   3 NSaved=   3.
 NSaved= 3 IEnMin= 3 EnMin= -331.478321207447     IErMin= 3 ErrMin= 9.60D-03
 ErrMax= 9.60D-03  0.00D+00 EMaxC= 1.00D-01 BMatC= 2.77D-02 BMatP= 3.58D-01
 IDIUse=3 WtCom= 9.04D-01 WtEn= 9.60D-02
 Coeff-Com:  0.204D-01 0.223D+00 0.757D+00
 Coeff-En:   0.000D+00 0.000D+00 0.100D+01
 Coeff:      0.184D-01 0.201D+00 0.780D+00
 Gap=     0.378 Goal=   None    Shift=    0.000
 RMSDP=5.48D-04 MaxDP=2.51D-02 DE=-1.80D-01 OVMax= 3.26D-02

 Cycle   4  Pass 1  IDiag  1:
 E= -331.493709026375     Delta-E=       -0.015387818928 Rises=F Damp=F
 DIIS: error= 1.38D-03 at cycle   4 NSaved=   4.
 NSaved= 4 IEnMin= 4 EnMin= -331.493709026375     IErMin= 4 ErrMin= 1.38D-03
 ErrMax= 1.38D-03  0.00D+00 EMaxC= 1.00D-01 BMatC= 1.00D-03 BMatP= 2.77D-02
 IDIUse=3 WtCom= 9.86D-01 WtEn= 1.38D-02
 Coeff-Com:  0.127D-02 0.181D-01 0.199D+00 0.781D+00
 Coeff-En:   0.000D+00 0.000D+00 0.000D+00 0.100D+01
 Coeff:      0.126D-02 0.179D-01 0.196D+00 0.784D+00
 Gap=     0.362 Goal=   None    Shift=    0.000
 RMSDP=1.76D-04 MaxDP=1.02D-02 DE=-1.54D-02 OVMax= 4.71D-03

 Cycle   5  Pass 1  IDiag  1:
 E= -331.494268404825     Delta-E=       -0.000559378450 Rises=F Damp=F
 DIIS: error= 5.08D-04 at cycle   5 NSaved=   5.
 NSaved= 5 IEnMin= 5 EnMin= -331.494268404825     IErMin= 5 ErrMin= 5.08D-04
 ErrMax= 5.08D-04  0.00D+00 EMaxC= 1.00D-01 BMatC= 6.20D-05 BMatP= 1.00D-03
 IDIUse=3 WtCom= 9.95D-01 WtEn= 5.08D-03
 Coeff-Com: -0.145D-02-0.174D-01 0.244D-02 0.346D+00 0.670D+00
 Coeff-En:   0.000D+00 0.000D+00 0.000D+00 0.000D+00 0.100D+01
 Coeff:     -0.144D-02-0.173D-01 0.243D-02 0.345D+00 0.672D+00
 Gap=     0.361 Goal=   None    Shift=    0.000
 RMSDP=4.38D-05 MaxDP=2.00D-03 DE=-5.59D-04 OVMax= 2.20D-03

 Cycle   6  Pass 1  IDiag  1:
 E= -331.494324250747     Delta-E=       -0.000055845922 Rises=F Damp=F
 DIIS: error= 1.06D-04 at cycle   6 NSaved=   6.
 NSaved= 6 IEnMin= 6 EnMin= -331.494324250747     IErMin= 6 ErrMin= 1.06D-04
 ErrMax= 1.06D-04  0.00D+00 EMaxC= 1.00D-01 BMatC= 1.44D-06 BMatP= 6.20D-05
 IDIUse=3 WtCom= 9.99D-01 WtEn= 1.06D-03
 Coeff-Com: -0.337D-03-0.464D-02-0.139D-01 0.132D-01 0.917D-01 0.914D+00
 Coeff-En:   0.000D+00 0.000D+00 0.000D+00 0.000D+00 0.000D+00 0.100D+01
 Coeff:     -0.336D-03-0.463D-02-0.139D-01 0.132D-01 0.916D-01 0.914D+00
 Gap=     0.361 Goal=   None    Shift=    0.000
 RMSDP=1.25D-05 MaxDP=4.40D-04 DE=-5.58D-05 OVMax= 1.30D-03

 Cycle   7  Pass 1  IDiag  1:
 E= -331.494326908819     Delta-E=       -0.000002658072 Rises=F Damp=F
 DIIS: error= 9.84D-05 at cycle   7 NSaved=   7.
 NSaved= 7 IEnMin= 7 EnMin= -331.494326908819     IErMin= 7 ErrMin= 9.84D-05
 ErrMax= 9.84D-05  0.00D+00 EMaxC= 1.00D-01 BMatC= 6.43D-07 BMatP= 1.44D-06
 IDIUse=1 WtCom= 1.00D+00 WtEn= 0.00D+00
 Coeff-Com:  0.165D-06-0.345D-04-0.554D-02-0.312D-01-0.487D-01 0.422D+00
 Coeff-Com:  0.663D+00
 Coeff:      0.165D-06-0.345D-04-0.554D-02-0.312D-01-0.487D-01 0.422D+00
 Coeff:      0.663D+00
 Gap=     0.361 Goal=   None    Shift=    0.000
 RMSDP=3.55D-06 MaxDP=1.62D-04 DE=-2.66D-06 OVMax= 4.83D-04

 Cycle   8  Pass 1  IDiag  1:
 E= -331.494327754003     Delta-E=       -0.000000845184 Rises=F Damp=F
 DIIS: error= 1.95D-05 at cycle   8 NSaved=   8.
 NSaved= 8 IEnMin= 8 EnMin= -331.494327754003     IErMin= 8 ErrMin= 1.95D-05
 ErrMax= 1.95D-05  0.00D+00 EMaxC= 1.00D-01 BMatC= 5.06D-08 BMatP= 6.43D-07
 IDIUse=1 WtCom= 1.00D+00 WtEn= 0.00D+00
 Coeff-Com:  0.308D-04 0.422D-03 0.111D-02-0.542D-02-0.295D-01-0.468D-01
 Coeff-Com:  0.122D+00 0.958D+00
 Coeff:      0.308D-04 0.422D-03 0.111D-02-0.542D-02-0.295D-01-0.468D-01
 Coeff:      0.122D+00 0.958D+00
 Gap=     0.361 Goal=   None    Shift=    0.000
 RMSDP=1.82D-06 MaxDP=9.03D-05 DE=-8.45D-07 OVMax= 2.21D-04

 Cycle   9  Pass 1  IDiag  1:
 E= -331.494327846797     Delta-E=       -0.000000092795 Rises=F Damp=F
 DIIS: error= 7.82D-06 at cycle   9 NSaved=   9.
 NSaved= 9 IEnMin= 9 EnMin= -331.494327846797     IErMin= 9 ErrMin= 7.82D-06
 ErrMax= 7.82D-06  0.00D+00 EMaxC= 1.00D-01 BMatC= 5.10D-09 BMatP= 5.06D-08
 IDIUse=1 WtCom= 1.00D+00 WtEn= 0.00D+00
 Coeff-Com:  0.137D-04 0.958D-04 0.974D-03 0.272D-02-0.485D-02-0.617D-01
 Coeff-Com: -0.341D-01 0.238D+00 0.859D+00
 Coeff:      0.137D-04 0.958D-04 0.974D-03 0.272D-02-0.485D-02-0.617D-01
 Coeff:     -0.341D-01 0.238D+00 0.859D+00
 Gap=     0.361 Goal=   None    Shift=    0.000
 RMSDP=5.29D-07 MaxDP=3.92D-05 DE=-9.28D-08 OVMax= 5.41D-05

 Cycle  10  Pass 1  IDiag  1:
 E= -331.494327856711     Delta-E=       -0.000000009914 Rises=F Damp=F
 DIIS: error= 3.10D-06 at cycle  10 NSaved=  10.
 NSaved=10 IEnMin=10 EnMin= -331.494327856711     IErMin=10 ErrMin= 3.10D-06
 ErrMax= 3.10D-06  0.00D+00 EMaxC= 1.00D-01 BMatC= 6.90D-10 BMatP= 5.10D-09
 IDIUse=1 WtCom= 1.00D+00 WtEn= 0.00D+00
 Coeff-Com:  0.197D-05-0.380D-05 0.198D-03 0.156D-02 0.124D-02-0.987D-02
 Coeff-Com: -0.164D-01-0.540D-01 0.248D+00 0.830D+00
 Coeff:      0.197D-05-0.380D-05 0.198D-03 0.156D-02 0.124D-02-0.987D-02
 Coeff:     -0.164D-01-0.540D-01 0.248D+00 0.830D+00
 Gap=     0.361 Goal=   None    Shift=    0.000
 RMSDP=2.56D-07 MaxDP=1.27D-05 DE=-9.91D-09 OVMax= 2.35D-05

 Cycle  11  Pass 1  IDiag  1:
 E= -331.494327858017     Delta-E=       -0.000000001305 Rises=F Damp=F
 DIIS: error= 8.08D-07 at cycle  11 NSaved=  11.
 NSaved=11 IEnMin=11 EnMin= -331.494327858017     IErMin=11 ErrMin= 8.08D-07
 ErrMax= 8.08D-07  0.00D+00 EMaxC= 1.00D-01 BMatC= 8.02D-11 BMatP= 6.90D-10
 IDIUse=1 WtCom= 1.00D+00 WtEn= 0.00D+00
 Coeff-Com: -0.932D-06 0.122D-05-0.766D-04-0.206D-03 0.259D-03 0.635D-02
 Coeff-Com:  0.497D-02-0.393D-01-0.103D+00 0.901D-01 0.104D+01
 Coeff:     -0.932D-06 0.122D-05-0.766D-04-0.206D-03 0.259D-03 0.635D-02
 Coeff:      0.497D-02-0.393D-01-0.103D+00 0.901D-01 0.104D+01
 Gap=     0.361 Goal=   None    Shift=    0.000
 RMSDP=1.15D-07 MaxDP=5.30D-06 DE=-1.31D-09 OVMax= 8.50D-06

 Cycle  12  Pass 1  IDiag  1:
 E= -331.494327858183     Delta-E=       -0.000000000166 Rises=F Damp=F
 DIIS: error= 1.78D-07 at cycle  12 NSaved=  12.
 NSaved=12 IEnMin=12 EnMin= -331.494327858183     IErMin=12 ErrMin= 1.78D-07
 ErrMax= 1.78D-07  0.00D+00 EMaxC= 1.00D-01 BMatC= 6.08D-12 BMatP= 8.02D-11
 IDIUse=1 WtCom= 1.00D+00 WtEn= 0.00D+00
 Coeff-Com: -0.370D-06-0.162D-05-0.364D-04-0.140D-03-0.104D-04 0.233D-02
 Coeff-Com:  0.319D-02-0.780D-02-0.439D-01-0.133D-01 0.298D+00 0.762D+00
 Coeff:     -0.370D-06-0.162D-05-0.364D-04-0.140D-03-0.104D-04 0.233D-02
 Coeff:      0.319D-02-0.780D-02-0.439D-01-0.133D-01 0.298D+00 0.762D+00
 Gap=     0.361 Goal=   None    Shift=    0.000
 RMSDP=1.60D-08 MaxDP=1.12D-06 DE=-1.66D-10 OVMax= 1.48D-06

 Cycle  13  Pass 1  IDiag  1:
 E= -331.494327858194     Delta-E=       -0.000000000011 Rises=F Damp=F
 DIIS: error= 4.91D-08 at cycle  13 NSaved=  13.
 NSaved=13 IEnMin=13 EnMin= -331.494327858194     IErMin=13 ErrMin= 4.91D-08
 ErrMax= 4.91D-08  0.00D+00 EMaxC= 1.00D-01 BMatC= 9.07D-13 BMatP= 6.08D-12
 IDIUse=1 WtCom= 1.00D+00 WtEn= 0.00D+00
 Coeff-Com: -0.140D-07-0.810D-06 0.237D-05-0.116D-04-0.357D-04-0.397D-03
 Coeff-Com:  0.360D-03 0.316D-02 0.167D-02-0.147D-01-0.824D-01 0.164D+00
 Coeff-Com:  0.928D+00
 Coeff:     -0.140D-07-0.810D-06 0.237D-05-0.116D-04-0.357D-04-0.397D-03
 Coeff:      0.360D-03 0.316D-02 0.167D-02-0.147D-01-0.824D-01 0.164D+00
 Coeff:      0.928D+00
 Gap=     0.361 Goal=   None    Shift=    0.000
 RMSDP=7.25D-09 MaxDP=6.07D-07 DE=-1.14D-11 OVMax= 6.34D-07

 SCF Done:  E(RwB97XD) =  -331.494327858     A.U. after   13 cycles
            NFock= 13  Conv=0.72D-08     -V/T= 2.0062
 KE= 3.294363588235D+02 PE=-1.312447760545D+03 EE= 3.828322035795D+02
 Leave Link  502 at Wed Jan  8 11:02:41 2020, MaxMem= 13421772800 cpu:            4050.4 elap:             814.9
 (Enter /opt/software/Gaussian16/bin/avx/g16/l801.exe)
 DoSCS=F DFT=T ScalE2(SS,OS)=  1.000000  1.000000
 Range of M.O.s used for correlation:     1   436
 NBasis=   437 NAE=    25 NBE=    25 NFC=     0 NFV=     0
 NROrb=    436 NOA=    25 NOB=    25 NVA=   411 NVB=   411

 **** Warning!!: The largest alpha MO coefficient is  0.15105028D+03

 Leave Link  801 at Wed Jan  8 11:02:45 2020, MaxMem= 13421772800 cpu:               0.2 elap:               0.2
 (Enter /opt/software/Gaussian16/bin/avx/g16/l1002.exe)
 Minotr:  Closed shell wavefunction.
          Direct CPHF calculation.
          Differentiating once with respect to electric field.
                with respect to dipole field.
          Electric field/nuclear overlap derivatives assumed to be zero.
          Requested convergence is 1.0D-08 RMS, and 1.0D-07 maximum.
          Secondary convergence is 1.0D-12 RMS, and 1.0D-12 maximum.
          NewPWx=F KeepS1=T KeepF1=T KeepIn=T MapXYZ=F SortEE=F KeepMc=T.
         3710 words used for storage of precomputed grid.
 Keep R1 ints in memory in canonical form, NReq=9267896863.
 FoFCou: FMM=F IPFlag=           0 FMFlag=           0 FMFlg1=           0
         NFxFlg=           0 DoJE=F BraDBF=F KetDBF=F FulRan=T
         wScrn=  0.000000 ICntrl=       600 IOpCl=  0 I1Cent=           0 NGrid=           0
         NMat0=    1 NMatS0=  95703 NMatT0=    0 NMatD0=    1 NMtDS0=    0 NMtDT0=    0
 Symmetry not used in FoFCou.
 Two-electron integral symmetry not used.
          MDV=   13421772800 using IRadAn=       1.
          Solving linear equations simultaneously, MaxMat=       0.
          There are     3 degrees of freedom in the 1st order CPHF.  IDoFFX=0 NUNeed=     3.
      3 vectors produced by pass  0 Test12= 3.43D-13 3.33D-08 XBig12= 4.50D+01 3.81D+00.
 AX will form     3 AO Fock derivatives at one time.
      3 vectors produced by pass  1 Test12= 3.43D-13 3.33D-08 XBig12= 8.95D+00 7.79D-01.
      3 vectors produced by pass  2 Test12= 3.43D-13 3.33D-08 XBig12= 1.10D+00 2.52D-01.
      3 vectors produced by pass  3 Test12= 3.43D-13 3.33D-08 XBig12= 3.67D-02 4.64D-02.
      3 vectors produced by pass  4 Test12= 3.43D-13 3.33D-08 XBig12= 8.30D-03 1.79D-02.
      3 vectors produced by pass  5 Test12= 3.43D-13 3.33D-08 XBig12= 1.60D-03 1.09D-02.
      3 vectors produced by pass  6 Test12= 3.43D-13 3.33D-08 XBig12= 4.24D-04 3.86D-03.
      3 vectors produced by pass  7 Test12= 3.43D-13 3.33D-08 XBig12= 1.04D-05 7.13D-04.
      3 vectors produced by pass  8 Test12= 3.43D-13 3.33D-08 XBig12= 4.81D-07 1.57D-04.
      3 vectors produced by pass  9 Test12= 3.43D-13 3.33D-08 XBig12= 1.20D-07 1.15D-04.
      3 vectors produced by pass 10 Test12= 3.43D-13 3.33D-08 XBig12= 6.82D-09 1.15D-05.
      2 vectors produced by pass 11 Test12= 3.43D-13 3.33D-08 XBig12= 2.52D-10 3.89D-06.
      2 vectors produced by pass 12 Test12= 3.43D-13 3.33D-08 XBig12= 7.97D-12 1.09D-06.
      1 vectors produced by pass 13 Test12= 3.43D-13 3.33D-08 XBig12= 3.66D-13 1.77D-07.
      1 vectors produced by pass 14 Test12= 3.43D-13 3.33D-08 XBig12= 2.59D-14 3.71D-08.
 InvSVY:  IOpt=1 It=  1 EMax= 4.44D-15
 Solved reduced A of dimension    39 with     3 vectors.
 FullF1:  Do perturbations      1 to       3.
 SCF Polarizability for W=    0.000000:
                1             2             3 
      1  0.830091D+02
      2 -0.214149D-04  0.808337D+02
      3 -0.310398D-02 -0.352741D-02  0.442165D+02
 Isotropic polarizability for W=    0.000000       69.35 Bohr**3.
 SCF Static Hyperpolarizability:
 K=  1 block:
                1 
      1 -0.158728D+03
 K=  2 block:
                1             2 
      1 -0.110338D-03
      2 -0.278840D+01  0.111901D-03
 K=  3 block:
                1             2             3 
      1  0.554852D-02
      2 -0.387458D-02  0.128935D-03
      3 -0.403816D+02  0.111189D-03  0.892232D-02
 End of Minotr F.D. properties file   721 does not exist.
 End of Minotr F.D. properties file   722 does not exist.
 End of Minotr F.D. properties file   788 does not exist.
 Leave Link 1002 at Wed Jan  8 11:12:48 2020, MaxMem= 13421772800 cpu:            4383.3 elap:             602.1
 (Enter /opt/software/Gaussian16/bin/avx/g16/l601.exe)
 Copying SCF densities to generalized density rwf, IOpCl= 0 IROHF=0.

 **********************************************************************

            Population analysis using the SCF Density.

 **********************************************************************

 Alpha  occ. eigenvalues --  -24.82230 -10.38126 -10.30761 -10.30758 -10.30396
 Alpha  occ. eigenvalues --  -10.30395 -10.30029  -1.32733  -0.97004  -0.86280
 Alpha  occ. eigenvalues --   -0.85324  -0.72329  -0.71155  -0.64109  -0.59071
 Alpha  occ. eigenvalues --   -0.58142  -0.55981  -0.53821  -0.52313  -0.49156
 Alpha  occ. eigenvalues --   -0.45980  -0.45915  -0.43487  -0.34563  -0.33081
 Alpha virt. eigenvalues --    0.03044   0.03602   0.04002   0.04034   0.05121
 Alpha virt. eigenvalues --    0.05209   0.05423   0.08877   0.09512   0.10952
 Alpha virt. eigenvalues --    0.11064   0.11320   0.11362   0.11599   0.12315
 Alpha virt. eigenvalues --    0.12495   0.13349   0.13448   0.14107   0.14466
 Alpha virt. eigenvalues --    0.14612   0.14632   0.15885   0.15936   0.16518
 Alpha virt. eigenvalues --    0.18123   0.21991   0.23521   0.23721   0.24065
 Alpha virt. eigenvalues --    0.24143   0.24256   0.25162   0.25699   0.26509
 Alpha virt. eigenvalues --    0.26780   0.27320   0.27904   0.28905   0.28986
 Alpha virt. eigenvalues --    0.29199   0.29214   0.30922   0.32083   0.32206
 Alpha virt. eigenvalues --    0.32459   0.32501   0.34132   0.34498   0.35993
 Alpha virt. eigenvalues --    0.37983   0.38621   0.39429   0.39955   0.40375
 Alpha virt. eigenvalues --    0.40991   0.41105   0.41360   0.41892   0.42123
 Alpha virt. eigenvalues --    0.42408   0.42944   0.44496   0.44684   0.45725
 Alpha virt. eigenvalues --    0.46344   0.46621   0.47981   0.49235   0.49285
 Alpha virt. eigenvalues --    0.49493   0.51072   0.51241   0.51819   0.52653
 Alpha virt. eigenvalues --    0.54936   0.56181   0.58470   0.58982   0.59323
 Alpha virt. eigenvalues --    0.59547   0.60180   0.61159   0.61754   0.62923
 Alpha virt. eigenvalues --    0.64165   0.64189   0.66055   0.66951   0.68531
 Alpha virt. eigenvalues --    0.70316   0.70516   0.70867   0.71111   0.71217
 Alpha virt. eigenvalues --    0.72721   0.74768   0.75584   0.76708   0.78211
 Alpha virt. eigenvalues --    0.79395   0.79425   0.79461   0.79951   0.80775
 Alpha virt. eigenvalues --    0.81097   0.82377   0.82951   0.83119   0.84651
 Alpha virt. eigenvalues --    0.86373   0.87339   0.87465   0.88004   0.88170
 Alpha virt. eigenvalues --    0.89007   0.91349   0.92649   0.92988   0.94806
 Alpha virt. eigenvalues --    0.96371   0.96502   0.96535   0.97331   0.97707
 Alpha virt. eigenvalues --    0.98314   0.99463   1.00041   1.00352   1.00730
 Alpha virt. eigenvalues --    1.01598   1.03296   1.05104   1.05115   1.06083
 Alpha virt. eigenvalues --    1.06454   1.07067   1.08370   1.10423   1.11638
 Alpha virt. eigenvalues --    1.11968   1.12069   1.12798   1.13420   1.14072
 Alpha virt. eigenvalues --    1.15485   1.16045   1.16657   1.17330   1.18936
 Alpha virt. eigenvalues --    1.19785   1.22271   1.23400   1.24943   1.27515
 Alpha virt. eigenvalues --    1.28212   1.30024   1.31160   1.31386   1.31620
 Alpha virt. eigenvalues --    1.32520   1.33282   1.36049   1.37008   1.37718
 Alpha virt. eigenvalues --    1.38076   1.39925   1.40244   1.40736   1.46250
 Alpha virt. eigenvalues --    1.48067   1.52717   1.52778   1.52865   1.53105
 Alpha virt. eigenvalues --    1.53742   1.55231   1.55421   1.60361   1.60893
 Alpha virt. eigenvalues --    1.62594   1.63305   1.63541   1.67714   1.68427
 Alpha virt. eigenvalues --    1.70334   1.70462   1.71101   1.72034   1.72482
 Alpha virt. eigenvalues --    1.72614   1.74456   1.75083   1.77423   1.80571
 Alpha virt. eigenvalues --    1.81834   1.82430   1.82943   1.85073   1.85621
 Alpha virt. eigenvalues --    1.87001   1.87729   1.87736   1.91237   1.92883
 Alpha virt. eigenvalues --    1.93780   1.94427   1.94573   1.94786   1.95466
 Alpha virt. eigenvalues --    1.98803   1.99327   2.05342   2.06266   2.06933
 Alpha virt. eigenvalues --    2.09263   2.13936   2.14671   2.17444   2.17630
 Alpha virt. eigenvalues --    2.20403   2.21011   2.22153   2.24833   2.26661
 Alpha virt. eigenvalues --    2.28190   2.32639   2.36251   2.37563   2.41362
 Alpha virt. eigenvalues --    2.43146   2.43849   2.45795   2.52823   2.52889
 Alpha virt. eigenvalues --    2.54087   2.59583   2.62406   2.64226   2.72260
 Alpha virt. eigenvalues --    2.76510   2.76934   2.79879   2.84280   2.86049
 Alpha virt. eigenvalues --    2.88245   2.88247   2.89126   2.91501   2.93161
 Alpha virt. eigenvalues --    2.95233   2.99818   2.99905   3.01045   3.04520
 Alpha virt. eigenvalues --    3.06916   3.10364   3.10439   3.12071   3.12369
 Alpha virt. eigenvalues --    3.13251   3.17331   3.17418   3.19483   3.20618
 Alpha virt. eigenvalues --    3.21841   3.26900   3.26910   3.28609   3.30292
 Alpha virt. eigenvalues --    3.30334   3.30929   3.30974   3.31306   3.33148
 Alpha virt. eigenvalues --    3.35667   3.38220   3.39806   3.41993   3.42689
 Alpha virt. eigenvalues --    3.45992   3.47038   3.50434   3.50878   3.52531
 Alpha virt. eigenvalues --    3.52641   3.55282   3.56342   3.57060   3.60462
 Alpha virt. eigenvalues --    3.61041   3.62421   3.62773   3.64559   3.66932
 Alpha virt. eigenvalues --    3.67531   3.67660   3.72328   3.72697   3.74236
 Alpha virt. eigenvalues --    3.77180   3.77818   3.78882   3.79947   3.80904
 Alpha virt. eigenvalues --    3.83018   3.87257   3.87624   3.89957   3.90096
 Alpha virt. eigenvalues --    3.94658   3.96591   3.98595   3.99416   3.99577
 Alpha virt. eigenvalues --    4.02930   4.03561   4.03594   4.06369   4.07010
 Alpha virt. eigenvalues --    4.08768   4.10917   4.13487   4.15024   4.15898
 Alpha virt. eigenvalues --    4.16828   4.18348   4.19105   4.21063   4.25445
 Alpha virt. eigenvalues --    4.32702   4.35197   4.35622   4.38878   4.40921
 Alpha virt. eigenvalues --    4.42644   4.45195   4.51010   4.51556   4.53518
 Alpha virt. eigenvalues --    4.54160   4.56156   4.62659   4.64748   4.64911
 Alpha virt. eigenvalues --    4.71426   4.75195   4.76516   4.77156   4.79395
 Alpha virt. eigenvalues --    4.79669   4.83674   4.84101   4.89037   4.89836
 Alpha virt. eigenvalues --    4.90748   4.90945   4.94927   4.96346   5.00909
 Alpha virt. eigenvalues --    5.01216   5.01671   5.03942   5.04131   5.07071
 Alpha virt. eigenvalues --    5.15711   5.17519   5.18436   5.23565   5.29557
 Alpha virt. eigenvalues --    5.34866   5.43577   5.45072   5.48678   5.54800
 Alpha virt. eigenvalues --    5.56104   5.61035   5.76517   5.82813   5.86760
 Alpha virt. eigenvalues --    5.90259   5.92612   6.00314   6.01425   6.14362
 Alpha virt. eigenvalues --    6.29604   6.39149   6.51584   6.54439   6.69847
 Alpha virt. eigenvalues --    6.98452   7.01896   8.49402   8.56051   8.78359
 Alpha virt. eigenvalues --    8.79830   8.91043   8.92026   8.96920   9.06624
 Alpha virt. eigenvalues --    9.07484   9.15481   9.44067   9.46750  15.19137
 Alpha virt. eigenvalues --   15.20147  15.42956  16.47849  18.35624  18.61412
 Alpha virt. eigenvalues --   18.63702
          Condensed to atoms (all electrons):
               1          2          3          4          5          6
     1  F    9.504937  -0.068117  -0.018428  -0.018429   0.004894   0.004894
     2  C   -0.068117   6.046984   0.078025   0.078031   0.119466   0.119469
     3  C   -0.018428   0.078025   6.683378   0.030505   0.017329  -0.292106
     4  C   -0.018429   0.078031   0.030505   6.683380  -0.292107   0.017328
     5  C    0.004894   0.119466   0.017329  -0.292107   6.894589   0.200187
     6  C    0.004894   0.119469  -0.292106   0.017328   0.200187   6.894588
     7  C    0.031593  -0.228664   0.298650   0.298645  -0.259298  -0.259302
     8  H    0.037743  -0.521838   0.124904  -0.052904  -0.210057   0.029503
     9  H    0.037744  -0.521841  -0.052904   0.124900   0.029503  -0.210056
    10  H    0.004309   0.056251  -0.238814   0.048236   0.129508  -0.012068
    11  H    0.004309   0.056252   0.048235  -0.238813  -0.012068   0.129514
    12  H   -0.002823   0.030834   0.001036   0.001035  -0.126682  -0.126682
               7          8          9         10         11         12
     1  F    0.031593   0.037743   0.037744   0.004309   0.004309  -0.002823
     2  C   -0.228664  -0.521838  -0.521841   0.056251   0.056252   0.030834
     3  C    0.298650   0.124904  -0.052904  -0.238814   0.048235   0.001036
     4  C    0.298645  -0.052904   0.124900   0.048236  -0.238813   0.001035
     5  C   -0.259298  -0.210057   0.029503   0.129508  -0.012068  -0.126682
     6  C   -0.259302   0.029503  -0.210056  -0.012068   0.129514  -0.126682
     7  C    6.883304   0.019384   0.019383  -0.224779  -0.224778   0.237917
     8  H    0.019384   1.237246  -0.007693  -0.239256   0.000985   0.007803
     9  H    0.019383  -0.007693   1.237249   0.000985  -0.239254   0.007802
    10  H   -0.224779  -0.239256   0.000985   1.008486  -0.001834  -0.043750
    11  H   -0.224778   0.000985  -0.239254  -0.001834   1.008478  -0.043748
    12  H    0.237917   0.007803   0.007802  -0.043750  -0.043748   0.521391
 Mulliken charges:
               1
     1  F   -0.522628
     2  C    0.755149
     3  C   -0.679810
     4  C   -0.679806
     5  C   -0.495264
     6  C   -0.495268
     7  C   -0.592053
     8  H    0.574181
     9  H    0.574184
    10  H    0.512726
    11  H    0.512723
    12  H    0.535867
 Sum of Mulliken charges =  -0.00000
 Mulliken charges with hydrogens summed into heavy atoms:
               1
     1  F   -0.522628
     2  C    0.755149
     3  C   -0.105629
     4  C   -0.105622
     5  C    0.017462
     6  C    0.017454
     7  C   -0.056186
 Electronic spatial extent (au):  <R**2>=            652.1964
 Charge=             -0.0000 electrons
 Dipole moment (field-independent basis, Debye):
    X=             -1.5867    Y=              0.0000    Z=              0.0001  Tot=              1.5867
 Quadrupole moment (field-independent basis, Debye-Ang):
   XX=            -40.4493   YY=            -34.1445   ZZ=            -43.1713
   XY=             -0.0000   XZ=             -0.0002   YZ=             -0.0009
 Traceless Quadrupole moment (field-independent basis, Debye-Ang):
   XX=             -1.1943   YY=              5.1105   ZZ=             -3.9162
   XY=             -0.0000   XZ=             -0.0002   YZ=             -0.0009
 Octapole moment (field-independent basis, Debye-Ang**2):
  XXX=             -1.3194  YYY=              0.0000  ZZZ=             -0.0021  XYY=              4.7740
  XXY=              0.0000  XXZ=              0.0016  XZZ=              8.9142  YZZ=             -0.0000
  YYZ=             -0.0004  XYZ=              0.0004
 Hexadecapole moment (field-independent basis, Debye-Ang**3):
 XXXX=           -474.6741 YYYY=           -264.8710 ZZZZ=            -48.0171 XXXY=             -0.0002
 XXXZ=              0.0151 YYYX=             -0.0000 YYYZ=              0.0070 ZZZX=              0.0183
 ZZZY=              0.0139 XXYY=           -116.6727 XXZZ=            -93.2611 YYZZ=            -64.2034
 XXYZ=              0.0022 YYXZ=              0.0043 ZZXY=             -0.0000
 N-N= 2.686848702836D+02 E-N=-1.312447765103D+03  KE= 3.294363588235D+02
  Exact polarizability:      83.009      -0.000      80.834      -0.003      -0.004      44.216
 Approx polarizability:      95.347      -0.000      92.941      -0.004      -0.004      51.174
 No NMR shielding tensors so no spin-rotation constants.
 Leave Link  601 at Wed Jan  8 11:12:51 2020, MaxMem= 13421772800 cpu:               2.8 elap:               0.5
 (Enter /opt/software/Gaussian16/bin/avx/g16/l9999.exe)

 ----------------------------------------------------------------------

 Electric dipole moment (input orientation):
 (Debye = 10**-18 statcoulomb cm , SI units = C m)
                  (au)            (Debye)         (10**-30 SI)
   Tot        0.624250D+00      0.158669D+01      0.529261D+01
   x         -0.624250D+00     -0.158669D+01     -0.529261D+01
   y          0.000000D+00      0.000000D+00      0.000000D+00
   z          0.518152D-04      0.131701D-03      0.439307D-03

 Dipole polarizability, Alpha (input orientation).
 (esu units = cm**3 , SI units = C**2 m**2 J**-1)
 Alpha(0;0):
               (au)            (10**-24 esu)      (10**-40 SI)
   iso        0.693531D+02      0.102771D+02      0.114348D+02
   aniso      0.377520D+02      0.559426D+01      0.622446D+01
   xx         0.830091D+02      0.123007D+02      0.136863D+02
   yx        -0.214149D-04     -0.317336D-05     -0.353084D-05
   yy         0.808337D+02      0.119783D+02      0.133277D+02
   zx        -0.310398D-02     -0.459962D-03     -0.511777D-03
   zy        -0.352741D-02     -0.522708D-03     -0.581591D-03
   zz         0.442165D+02      0.655221D+01      0.729031D+01

 First dipole hyperpolarizability, Beta (input orientation).
 ||, _|_  parallel and perpendicular components, (z) with respect to z axis,
 vector components x,y,z.  Values do not include the 1/n! factor of 1/2.
 (esu units = statvolt**-1 cm**4 , SI units = C**3 m**3 J**-2)
 Beta(0;0,0):
               (au)            (10**-30 esu)      (10**-50 SI)
   || (z)     0.875986D-02      0.756784D-04      0.280873D-04
   _|_(z)     0.291995D-02      0.252261D-04      0.936243D-05
   x         -0.605694D+03     -0.523272D+01     -0.194207D+01
   y          0.338256D-03      0.292227D-05      0.108457D-05
   z          0.437993D-01      0.378392D-03      0.140436D-03
   ||         0.121139D+03      0.104654D+01      0.388415D+00
   xxx       -0.158728D+03     -0.137129D+01     -0.508939D+00
   xxy       -0.110338D-03     -0.953237D-06     -0.353784D-06
   yxy       -0.278840D+01     -0.240896D-01     -0.894063D-02
   yyy        0.111901D-03      0.966737D-06      0.358795D-06
   xxz        0.554852D-02      0.479349D-04      0.177906D-04
   yxz       -0.387458D-02     -0.334733D-04     -0.124233D-04
   yyz        0.128935D-03      0.111390D-05      0.413412D-06
   zxz       -0.403816D+02     -0.348865D+00     -0.129478D+00
   zyz        0.111189D-03      0.960590D-06      0.356513D-06
   zzz        0.892232D-02      0.770819D-04      0.286082D-04

 ----------------------------------------------------------------------

 Dipole orientation:
     9          0.00002610          0.00001437         -4.32141438
     6          0.00000770          0.00000961         -1.75468441
     6         -0.00022749          2.30214159         -0.49096211
     6          0.00020318         -2.30213454         -0.49097738
     6         -0.00020844          2.28508371          2.14741299
     6          0.00021289         -2.28510176          2.14739594
     6         -0.00002155         -0.00001531          3.46973371
     1         -0.00035915          4.04934248         -1.56682276
     1          0.00037549         -4.04931694         -1.56687040
     1         -0.00040249          4.06783093          3.16790691
     1          0.00036226         -4.06786144          3.16787048
     1         -0.00000113         -0.00001458          5.52313658

 Electric dipole moment (dipole orientation):
 (Debye = 10**-18 statcoulomb cm , SI units = C m)
                  (au)            (Debye)         (10**-30 SI)
   Tot        0.624250D+00      0.158669D+01      0.529261D+01
   x          0.000000D+00      0.000000D+00      0.000000D+00
   y          0.000000D+00      0.000000D+00      0.000000D+00
   z          0.624250D+00      0.158669D+01      0.529261D+01

 Dipole polarizability, Alpha (dipole orientation).
 (esu units = cm**3 , SI units = C**2 m**2 J**-1)
 Alpha(0;0):
               (au)            (10**-24 esu)      (10**-40 SI)
   iso        0.693531D+02      0.102771D+02      0.114348D+02
   aniso      0.377520D+02      0.559426D+01      0.622446D+01
   xx         0.442165D+02      0.655221D+01      0.729031D+01
   yx        -0.340569D-02     -0.504671D-03     -0.561522D-03
   yy         0.808337D+02      0.119783D+02      0.133277D+02
   zx        -0.115969D-03     -0.171848D-04     -0.191207D-04
   zy         0.138908D-04      0.205840D-05      0.229028D-05
   zz         0.830091D+02      0.123007D+02      0.136863D+02

 First dipole hyperpolarizability, Beta (dipole orientation).
 ||, _|_  parallel and perpendicular components, (z) with respect to z axis,
 vector components x,y,z.  Values do not include the 1/n! factor of 1/2.
 (esu units = statvolt**-1 cm**4 , SI units = C**3 m**3 J**-2)
 Beta(0;0,0):
               (au)            (10**-30 esu)      (10**-50 SI)
   || (z)     0.121139D+03      0.104654D+01      0.388415D+00
   _|_(z)     0.403796D+02      0.348848D+00      0.129472D+00
   x         -0.647561D-02     -0.559442D-04     -0.207631D-04
   y         -0.167530D-02     -0.144733D-04     -0.537163D-05
   z          0.605694D+03      0.523272D+01      0.194207D+01
   ||         0.121139D+03      0.104654D+01      0.388415D+00
   xxx       -0.113317D-02     -0.978967D-05     -0.363334D-05
   xxy       -0.236962D-04     -0.204716D-06     -0.759784D-07
   yxy       -0.102538D-03     -0.885852D-06     -0.328775D-06
   yyy        0.840925D-04      0.726494D-06      0.269631D-06
   xxz        0.403816D+02      0.348865D+00      0.129478D+00
   yxz        0.374963D-02      0.323939D-04      0.120227D-04
   yyz        0.278840D+01      0.240896D-01      0.894063D-02
   zxz       -0.922832D-03     -0.797255D-05     -0.295893D-05
   zyz       -0.618831D-03     -0.534622D-05     -0.198420D-05
   zzz        0.158728D+03      0.137129D+01      0.508939D+00

 ----------------------------------------------------------------------
 Unable to Open any file for archive entry.
 1\1\GINC-GENOME\SP\RwB97XD\Aug-CC-pVTZ\C6H5F1\LIUCHW\08-Jan-2020\0\\#p
  wB97XD/aug-cc-pvtz NoSymm MaxDisk=100GB polar\\polar\\0,1\F,0,2.28679
 4,0.,-0.000176\C,0,0.928539,0.000002,-0.000073\C,0,0.25981,1.21824,-0.
 000146\C,0,0.25981,-1.218238,0.00009\C,0,-1.136358,1.209218,-0.00002\C
 ,0,-1.136357,-1.20922,0.000211\C,0,-1.836104,-0.000002,0.000141\H,0,0.
 829134,2.142817,-0.000266\H,0,0.829145,-2.142809,0.000137\H,0,-1.67637
 7,2.152609,-0.000081\H,0,-1.676372,-2.152614,0.000338\H,0,-2.922718,0.
 000002,0.000242\\Version=ES64L-G16RevC.01\HF=-331.4943279\RMSD=7.245e-
 09\Dipole=-0.6242501,0.0000021,0.0000518\Polar=83.0090875,-0.0000214,8
 0.8337491,-0.003104,-0.0035274,44.216485\HyperPolar=-158.7279349,-0.00
 01103,-2.7884031,0.0001119,0.0055485,-0.0038746,0.0001289,-40.381591,0
 .0001112,0.0089223\Quadrupole=-0.8879022,3.79953,-2.9116278,-0.0000104
 ,-0.0001722,-0.0006381\PG=C01 [X(C6H5F1)]\\@
 The archive entry for this job was punched.


 HERE WE GO......
 SLIDING DOWN THE RAZOR BLADE OF LIFE......
                                 TOM LEHRER
 Job cpu time:       0 days  2 hours 21 minutes 17.2 seconds.
 Elapsed time:       0 days  0 hours 23 minutes 43.5 seconds.
 File lengths (MBytes):  RWF=    109 Int=      0 D2E=      0 Chk=     14 Scr=      1
 Normal termination of Gaussian 16 at Wed Jan  8 11:12:52 2020.
