 Entering Gaussian System, Link 0=g16
 Input=38_Formimidamide.com
 Output=38_Formimidamide.out
 Initial command:
 /opt/software/Gaussian16/bin/avx/g16/l1.exe "/scratch/liuchw/Gau-64322.inp" -scrdir="/scratch/liuchw/"
 Entering Link 1 = /opt/software/Gaussian16/bin/avx/g16/l1.exe PID=     64323.
  
 Copyright (c) 1988-2019, Gaussian, Inc.  All Rights Reserved.
  
 This is part of the Gaussian(R) 16 program.  It is based on
 the Gaussian(R) 09 system (copyright 2009, Gaussian, Inc.),
 the Gaussian(R) 03 system (copyright 2003, Gaussian, Inc.),
 the Gaussian(R) 98 system (copyright 1998, Gaussian, Inc.),
 the Gaussian(R) 94 system (copyright 1995, Gaussian, Inc.),
 the Gaussian 92(TM) system (copyright 1992, Gaussian, Inc.),
 the Gaussian 90(TM) system (copyright 1990, Gaussian, Inc.),
 the Gaussian 88(TM) system (copyright 1988, Gaussian, Inc.),
 the Gaussian 86(TM) system (copyright 1986, Carnegie Mellon
 University), and the Gaussian 82(TM) system (copyright 1983,
 Carnegie Mellon University). Gaussian is a federally registered
 trademark of Gaussian, Inc.
  
 This software contains proprietary and confidential information,
 including trade secrets, belonging to Gaussian, Inc.
  
 This software is provided under written license and may be
 used, copied, transmitted, or stored only in accord with that
 written license.
  
 The following legend is applicable only to US Government
 contracts under FAR:
  
                    RESTRICTED RIGHTS LEGEND
  
 Use, reproduction and disclosure by the US Government is
 subject to restrictions as set forth in subparagraphs (a)
 and (c) of the Commercial Computer Software - Restricted
 Rights clause in FAR 52.227-19.
  
 Gaussian, Inc.
 340 Quinnipiac St., Bldg. 40, Wallingford CT 06492
  
  
 ---------------------------------------------------------------
 Warning -- This program may not be used in any manner that
 competes with the business of Gaussian, Inc. or will provide
 assistance to any competitor of Gaussian, Inc.  The licensee
 of this program is prohibited from giving any competitor of
 Gaussian, Inc. access to this program.  By using this program,
 the user acknowledges that Gaussian, Inc. is engaged in the
 business of creating and licensing software in the field of
 computational chemistry and represents and warrants to the
 licensee that it is not a competitor of Gaussian, Inc. and that
 it will not use this program in any manner prohibited above.
 ---------------------------------------------------------------
  

 Cite this work as:
 Gaussian 16, Revision C.01,
 M. J. Frisch, G. W. Trucks, H. B. Schlegel, G. E. Scuseria, 
 M. A. Robb, J. R. Cheeseman, G. Scalmani, V. Barone, 
 G. A. Petersson, H. Nakatsuji, X. Li, M. Caricato, A. V. Marenich, 
 J. Bloino, B. G. Janesko, R. Gomperts, B. Mennucci, H. P. Hratchian, 
 J. V. Ortiz, A. F. Izmaylov, J. L. Sonnenberg, D. Williams-Young, 
 F. Ding, F. Lipparini, F. Egidi, J. Goings, B. Peng, A. Petrone, 
 T. Henderson, D. Ranasinghe, V. G. Zakrzewski, J. Gao, N. Rega, 
 G. Zheng, W. Liang, M. Hada, M. Ehara, K. Toyota, R. Fukuda, 
 J. Hasegawa, M. Ishida, T. Nakajima, Y. Honda, O. Kitao, H. Nakai, 
 T. Vreven, K. Throssell, J. A. Montgomery, Jr., J. E. Peralta, 
 F. Ogliaro, M. J. Bearpark, J. J. Heyd, E. N. Brothers, K. N. Kudin, 
 V. N. Staroverov, T. A. Keith, R. Kobayashi, J. Normand, 
 K. Raghavachari, A. P. Rendell, J. C. Burant, S. S. Iyengar, 
 J. Tomasi, M. Cossi, J. M. Millam, M. Klene, C. Adamo, R. Cammi, 
 J. W. Ochterski, R. L. Martin, K. Morokuma, O. Farkas, 
 J. B. Foresman, and D. J. Fox, Gaussian, Inc., Wallingford CT, 2019.
 
 ******************************************
 Gaussian 16:  ES64L-G16RevC.01  3-Jul-2019
                23-Mar-2011 
 ******************************************
 %chk=38_Formimidamide.chk
 %nproc=8
 Will use up to    8 processors via shared memory.
 %Mem=100GB
 ------------------------------------------------
 #p wB97XD/aug-cc-pvtz NoSymm MaxDisk=100GB polar
 ------------------------------------------------
 1/38=1,172=1/1;
 2/12=2,15=1,17=6,18=5,40=1/2;
 3/5=16,6=1,7=10,11=2,25=1,30=1,74=-58/1,2,3;
 4//1;
 5/5=2,38=5,98=1/2;
 8/6=4,10=90,11=11/1;
 10/6=1,13=10,31=1/2;
 6/7=2,8=2,9=2,10=2,28=1/1;
 99/5=1,9=1/99;
 Leave Link    1 at Wed Mar 23 18:42:14 2011, MaxMem= 13421772800 cpu:               0.4 elap:               0.1
 (Enter /opt/software/Gaussian16/bin/avx/g16/l101.exe)
 -----
 polar
 -----
 Symbolic Z-matrix:
 Charge =  0 Multiplicity = 1
 C                     0.        0.41596   0. 
 H                    -0.33409   1.4604    0. 
 N                     1.22453   0.02099   0. 
 H                     1.84153   0.83391   0. 
 N                    -1.03662  -0.47201   0. 
 H                    -0.82609  -1.45927   0. 
 H                    -1.9967   -0.17361   0. 
 
 ITRead=  0  0  0  0  0  0  0
 MicOpt= -1 -1 -1 -1 -1 -1 -1
 NAtoms=      7 NQM=        7 NQMF=       0 NMMI=      0 NMMIF=      0
                NMic=       0 NMicF=      0.
                    Isotopes and Nuclear Properties:
 (Nuclear quadrupole moments (NQMom) in fm**2, nuclear magnetic moments (NMagM)
  in nuclear magnetons)

  Atom         1           2           3           4           5           6           7
 IAtWgt=          12           1          14           1          14           1           1
 AtmWgt=  12.0000000   1.0078250  14.0030740   1.0078250  14.0030740   1.0078250   1.0078250
 NucSpn=           0           1           2           1           2           1           1
 AtZEff=  -0.0000000  -0.0000000  -0.0000000  -0.0000000  -0.0000000  -0.0000000  -0.0000000
 NQMom=    0.0000000   0.0000000   2.0440000   0.0000000   2.0440000   0.0000000   0.0000000
 NMagM=    0.0000000   2.7928460   0.4037610   2.7928460   0.4037610   2.7928460   2.7928460
 AtZNuc=   6.0000000   1.0000000   7.0000000   1.0000000   7.0000000   1.0000000   1.0000000
 Leave Link  101 at Wed Mar 23 18:42:14 2011, MaxMem= 13421772800 cpu:               0.8 elap:               0.1
 (Enter /opt/software/Gaussian16/bin/avx/g16/l202.exe)
                          Input orientation:                          
 ---------------------------------------------------------------------
 Center     Atomic      Atomic             Coordinates (Angstroms)
 Number     Number       Type             X           Y           Z
 ---------------------------------------------------------------------
      1          6           0        0.000000    0.415956    0.000000
      2          1           0       -0.334090    1.460397    0.000000
      3          7           0        1.224527    0.020987    0.000000
      4          1           0        1.841528    0.833911    0.000000
      5          7           0       -1.036619   -0.472011    0.000000
      6          1           0       -0.826090   -1.459266    0.000000
      7          1           0       -1.996703   -0.173610    0.000000
 ---------------------------------------------------------------------
                    Distance matrix (angstroms):
                    1          2          3          4          5
     1  C    0.000000
     2  H    1.096573   0.000000
     3  N    1.286649   2.121600   0.000000
     4  H    1.888362   2.264023   1.020557   0.000000
     5  N    1.364941   2.056149   2.314266   3.160564   0.000000
     6  H    2.049117   2.960827   2.529067   3.517790   1.009453
     7  H    2.081925   2.331150   3.227103   3.968264   1.005388
                    6          7
     6  H    0.000000
     7  H    1.738748   0.000000
 Symmetry turned off by external request.
 Stoichiometry    CH4N2
 Framework group  CS[SG(CH4N2)]
 Deg. of freedom    11
 Full point group                 CS      NOp   2
 Rotational constants (GHZ):          66.7376180          10.7783315           9.2796409
 Leave Link  202 at Wed Mar 23 18:42:14 2011, MaxMem= 13421772800 cpu:               0.1 elap:               0.0
 (Enter /opt/software/Gaussian16/bin/avx/g16/l301.exe)
 Standard basis: Aug-CC-pVTZ (5D, 7F)
 Ernie: Thresh=  0.10000D-02 Tol=  0.10000D-05 Strict=F.
 Ernie:  9 primitive shells out of 134 were deleted.
   230 basis functions,   324 primitive gaussians,   265 cartesian basis functions
    12 alpha electrons       12 beta electrons
       nuclear repulsion energy        71.9558178965 Hartrees.
 IExCor= 4639 DFT=T Ex+Corr=wB97XD ExCW=0 ScaHFX=  1.000000
 ScaDFX=  1.000000  1.000000  1.000000  1.000000 ScalE2=  1.000000  1.000000
 IRadAn=      5 IRanWt=     -1 IRanGd=            0 ICorTp=0 IEmpDi=121
 HFx  wShort=  0.000000 wLong=  0.200000 cFull=  0.222036 cShort=  0.000000 cLong=  0.777964
 DFx  wShort=  0.000000 wLong=  0.200000 cFull=  0.000000 cShort=  0.000000 cLong=  1.000000
 NAtoms=    7 NActive=    7 NUniq=    7 SFac= 1.00D+00 NAtFMM=   60 NAOKFM=F Big=F
 Integral buffers will be    131072 words long.
 Raffenetti 2 integral format.
 Two-electron integral symmetry is turned off.
 R6Disp:  Grimme-D2 Dispersion energy=       -0.0012121135 Hartrees.
 Nuclear repulsion after empirical dispersion term =       71.9546057829 Hartrees.
 Leave Link  301 at Wed Mar 23 18:42:14 2011, MaxMem= 13421772800 cpu:               0.5 elap:               0.1
 (Enter /opt/software/Gaussian16/bin/avx/g16/l302.exe)
 NPDir=0 NMtPBC=     1 NCelOv=     1 NCel=       1 NClECP=     1 NCelD=      1
         NCelK=      1 NCelE2=     1 NClLst=     1 CellRange=     0.0.
 One-electron integrals computed using PRISM.
 NBasis=   230 RedAO= T EigKep=  3.73D-05  NBF=   230
 NBsUse=   230 1.00D-06 EigRej= -1.00D+00 NBFU=   230
 Precomputing XC quadrature grid using
 IXCGrd= 4 IRadAn=           5 IRanWt=          -1 IRanGd=           0 AccXCQ= 0.00D+00.
 Generated NRdTot=       0 NPtTot=           0 NUsed=           0 NTot=          32
 NSgBfM=   265   265   265   265   265 MxSgAt=     7 MxSgA2=     7.
 Leave Link  302 at Wed Mar 23 18:42:14 2011, MaxMem= 13421772800 cpu:               1.9 elap:               0.3
 (Enter /opt/software/Gaussian16/bin/avx/g16/l303.exe)
 DipDrv:  MaxL=1.
 Leave Link  303 at Wed Mar 23 18:42:14 2011, MaxMem= 13421772800 cpu:               0.3 elap:               0.1
 (Enter /opt/software/Gaussian16/bin/avx/g16/l401.exe)
 ExpMin= 2.53D-02 ExpMax= 1.14D+04 ExpMxC= 3.89D+02 IAcc=3 IRadAn=         5 AccDes= 0.00D+00
 Harris functional with IExCor= 4639 and IRadAn=       5 diagonalized for initial guess.
 HarFok:  IExCor= 4639 AccDes= 0.00D+00 IRadAn=         5 IDoV= 1 UseB2=F ITyADJ=14
 ICtDFT=  3500011 ScaDFX=  1.000000  1.000000  1.000000  1.000000
 FoFCou: FMM=F IPFlag=           0 FMFlag=      100000 FMFlg1=           0
         NFxFlg=           0 DoJE=T BraDBF=F KetDBF=T FulRan=T
         wScrn=  0.000000 ICntrl=       500 IOpCl=  0 I1Cent=   200000004 NGrid=           0
         NMat0=    1 NMatS0=      1 NMatT0=    0 NMatD0=    1 NMtDS0=    0 NMtDT0=    0
 Symmetry not used in FoFCou.
 Harris En= -143.655250903465    
 JPrj=0 DoOrth=F DoCkMO=F.
 Leave Link  401 at Wed Mar 23 18:42:15 2011, MaxMem= 13421772800 cpu:               6.8 elap:               0.9
 (Enter /opt/software/Gaussian16/bin/avx/g16/l502.exe)
 Keep R1 ints in memory in canonical form, NReq=721300008.
 FoFCou: FMM=F IPFlag=           0 FMFlag=           0 FMFlg1=           0
         NFxFlg=           0 DoJE=F BraDBF=F KetDBF=F FulRan=T
         wScrn=  0.000000 ICntrl=       600 IOpCl=  0 I1Cent=           0 NGrid=           0
         NMat0=    1 NMatS0=  26565 NMatT0=    0 NMatD0=    1 NMtDS0=    0 NMtDT0=    0
 Symmetry not used in FoFCou.
 Two-electron integral symmetry not used.
 Closed shell SCF:
 Using DIIS extrapolation, IDIIS=  1040.
 NGot= 13421772800 LenX= 12715902585 LenY= 12715831919
 Requested convergence on RMS density matrix=1.00D-08 within 128 cycles.
 Requested convergence on MAX density matrix=1.00D-06.
 Requested convergence on             energy=1.00D-06.
 No special actions if energy rises.

 Cycle   1  Pass 1  IDiag  1:
 E= -149.980819709324    
 DIIS: error= 3.85D-02 at cycle   1 NSaved=   1.
 NSaved= 1 IEnMin= 1 EnMin= -149.980819709324     IErMin= 1 ErrMin= 3.85D-02
 ErrMax= 3.85D-02  0.00D+00 EMaxC= 1.00D-01 BMatC= 2.55D-01 BMatP= 2.55D-01
 IDIUse=3 WtCom= 6.15D-01 WtEn= 3.85D-01
 Coeff-Com:  0.100D+01
 Coeff-En:   0.100D+01
 Coeff:      0.100D+01
 Gap=     0.362 Goal=   None    Shift=    0.000
 GapD=    0.362 DampG=1.000 DampE=0.500 DampFc=0.5000 IDamp=-1.
 Damping current iteration by 5.00D-01
 RMSDP=2.01D-03 MaxDP=1.35D-01              OVMax= 1.02D-01

 Cycle   2  Pass 1  IDiag  1:
 E= -149.998019606186     Delta-E=       -0.017199896862 Rises=F Damp=T
 DIIS: error= 1.81D-02 at cycle   2 NSaved=   2.
 NSaved= 2 IEnMin= 2 EnMin= -149.998019606186     IErMin= 2 ErrMin= 1.81D-02
 ErrMax= 1.81D-02  0.00D+00 EMaxC= 1.00D-01 BMatC= 5.68D-02 BMatP= 2.55D-01
 IDIUse=3 WtCom= 8.19D-01 WtEn= 1.81D-01
 Coeff-Com: -0.775D+00 0.178D+01
 Coeff-En:   0.000D+00 0.100D+01
 Coeff:     -0.635D+00 0.164D+01
 Gap=     0.406 Goal=   None    Shift=    0.000
 RMSDP=1.05D-03 MaxDP=6.09D-02 DE=-1.72D-02 OVMax= 6.66D-02

 Cycle   3  Pass 1  IDiag  1:
 E= -150.007535084873     Delta-E=       -0.009515478687 Rises=F Damp=F
 DIIS: error= 8.83D-03 at cycle   3 NSaved=   3.
 NSaved= 3 IEnMin= 3 EnMin= -150.007535084873     IErMin= 3 ErrMin= 8.83D-03
 ErrMax= 8.83D-03  0.00D+00 EMaxC= 1.00D-01 BMatC= 1.20D-02 BMatP= 5.68D-02
 IDIUse=3 WtCom= 9.12D-01 WtEn= 8.83D-02
 Coeff-Com: -0.453D+00 0.962D+00 0.491D+00
 Coeff-En:   0.000D+00 0.000D+00 0.100D+01
 Coeff:     -0.413D+00 0.877D+00 0.536D+00
 Gap=     0.350 Goal=   None    Shift=    0.000
 RMSDP=2.76D-04 MaxDP=1.48D-02 DE=-9.52D-03 OVMax= 4.48D-02

 Cycle   4  Pass 1  IDiag  1:
 E= -150.016869560359     Delta-E=       -0.009334475486 Rises=F Damp=F
 DIIS: error= 1.25D-03 at cycle   4 NSaved=   4.
 NSaved= 4 IEnMin= 4 EnMin= -150.016869560359     IErMin= 4 ErrMin= 1.25D-03
 ErrMax= 1.25D-03  0.00D+00 EMaxC= 1.00D-01 BMatC= 2.56D-04 BMatP= 1.20D-02
 IDIUse=3 WtCom= 9.88D-01 WtEn= 1.25D-02
 Coeff-Com: -0.682D-01 0.141D+00 0.174D+00 0.754D+00
 Coeff-En:   0.000D+00 0.000D+00 0.000D+00 0.100D+01
 Coeff:     -0.673D-01 0.139D+00 0.172D+00 0.757D+00
 Gap=     0.350 Goal=   None    Shift=    0.000
 RMSDP=4.13D-05 MaxDP=1.72D-03 DE=-9.33D-03 OVMax= 5.21D-03

 Cycle   5  Pass 1  IDiag  1:
 E= -150.017077787790     Delta-E=       -0.000208227431 Rises=F Damp=F
 DIIS: error= 1.88D-04 at cycle   5 NSaved=   5.
 NSaved= 5 IEnMin= 5 EnMin= -150.017077787790     IErMin= 5 ErrMin= 1.88D-04
 ErrMax= 1.88D-04  0.00D+00 EMaxC= 1.00D-01 BMatC= 8.21D-06 BMatP= 2.56D-04
 IDIUse=3 WtCom= 9.98D-01 WtEn= 1.88D-03
 Coeff-Com:  0.439D-01-0.929D-01-0.174D-01 0.217D+00 0.850D+00
 Coeff-En:   0.000D+00 0.000D+00 0.000D+00 0.000D+00 0.100D+01
 Coeff:      0.438D-01-0.927D-01-0.174D-01 0.216D+00 0.850D+00
 Gap=     0.348 Goal=   None    Shift=    0.000
 RMSDP=3.29D-05 MaxDP=2.65D-03 DE=-2.08D-04 OVMax= 1.87D-03

 Cycle   6  Pass 1  IDiag  1:
 E= -150.017090037780     Delta-E=       -0.000012249991 Rises=F Damp=F
 DIIS: error= 7.22D-05 at cycle   6 NSaved=   6.
 NSaved= 6 IEnMin= 6 EnMin= -150.017090037780     IErMin= 6 ErrMin= 7.22D-05
 ErrMax= 7.22D-05  0.00D+00 EMaxC= 1.00D-01 BMatC= 7.99D-07 BMatP= 8.21D-06
 IDIUse=1 WtCom= 1.00D+00 WtEn= 0.00D+00
 Coeff-Com:  0.154D-01-0.322D-01-0.165D-01-0.277D-01 0.196D+00 0.865D+00
 Coeff:      0.154D-01-0.322D-01-0.165D-01-0.277D-01 0.196D+00 0.865D+00
 Gap=     0.349 Goal=   None    Shift=    0.000
 RMSDP=9.61D-06 MaxDP=7.99D-04 DE=-1.22D-05 OVMax= 6.35D-04

 Cycle   7  Pass 1  IDiag  1:
 E= -150.017091439402     Delta-E=       -0.000001401622 Rises=F Damp=F
 DIIS: error= 2.80D-05 at cycle   7 NSaved=   7.
 NSaved= 7 IEnMin= 7 EnMin= -150.017091439402     IErMin= 7 ErrMin= 2.80D-05
 ErrMax= 2.80D-05  0.00D+00 EMaxC= 1.00D-01 BMatC= 1.21D-07 BMatP= 7.99D-07
 IDIUse=1 WtCom= 1.00D+00 WtEn= 0.00D+00
 Coeff-Com:  0.979D-03-0.192D-02-0.414D-02-0.393D-01-0.289D-01 0.254D+00
 Coeff-Com:  0.819D+00
 Coeff:      0.979D-03-0.192D-02-0.414D-02-0.393D-01-0.289D-01 0.254D+00
 Coeff:      0.819D+00
 Gap=     0.349 Goal=   None    Shift=    0.000
 RMSDP=3.38D-06 MaxDP=2.94D-04 DE=-1.40D-06 OVMax= 2.44D-04

 Cycle   8  Pass 1  IDiag  1:
 E= -150.017091637645     Delta-E=       -0.000000198243 Rises=F Damp=F
 DIIS: error= 1.00D-05 at cycle   8 NSaved=   8.
 NSaved= 8 IEnMin= 8 EnMin= -150.017091637645     IErMin= 8 ErrMin= 1.00D-05
 ErrMax= 1.00D-05  0.00D+00 EMaxC= 1.00D-01 BMatC= 1.52D-08 BMatP= 1.21D-07
 IDIUse=1 WtCom= 1.00D+00 WtEn= 0.00D+00
 Coeff-Com: -0.191D-02 0.404D-02 0.151D-02-0.674D-02-0.316D-01-0.608D-01
 Coeff-Com:  0.258D+00 0.837D+00
 Coeff:     -0.191D-02 0.404D-02 0.151D-02-0.674D-02-0.316D-01-0.608D-01
 Coeff:      0.258D+00 0.837D+00
 Gap=     0.349 Goal=   None    Shift=    0.000
 RMSDP=9.62D-07 MaxDP=6.49D-05 DE=-1.98D-07 OVMax= 8.89D-05

 Cycle   9  Pass 1  IDiag  1:
 E= -150.017091660265     Delta-E=       -0.000000022620 Rises=F Damp=F
 DIIS: error= 2.26D-06 at cycle   9 NSaved=   9.
 NSaved= 9 IEnMin= 9 EnMin= -150.017091660265     IErMin= 9 ErrMin= 2.26D-06
 ErrMax= 2.26D-06  0.00D+00 EMaxC= 1.00D-01 BMatC= 3.97D-10 BMatP= 1.52D-08
 IDIUse=1 WtCom= 1.00D+00 WtEn= 0.00D+00
 Coeff-Com: -0.172D-04 0.247D-04 0.322D-03 0.296D-02 0.204D-02-0.246D-01
 Coeff-Com: -0.473D-01 0.317D-01 0.103D+01
 Coeff:     -0.172D-04 0.247D-04 0.322D-03 0.296D-02 0.204D-02-0.246D-01
 Coeff:     -0.473D-01 0.317D-01 0.103D+01
 Gap=     0.349 Goal=   None    Shift=    0.000
 RMSDP=2.66D-07 MaxDP=9.41D-06 DE=-2.26D-08 OVMax= 2.76D-05

 Cycle  10  Pass 1  IDiag  1:
 E= -150.017091661412     Delta-E=       -0.000000001147 Rises=F Damp=F
 DIIS: error= 3.58D-07 at cycle  10 NSaved=  10.
 NSaved=10 IEnMin=10 EnMin= -150.017091661412     IErMin=10 ErrMin= 3.58D-07
 ErrMax= 3.58D-07  0.00D+00 EMaxC= 1.00D-01 BMatC= 2.76D-11 BMatP= 3.97D-10
 IDIUse=1 WtCom= 1.00D+00 WtEn= 0.00D+00
 Coeff-Com:  0.937D-04-0.198D-03-0.423D-04 0.383D-03 0.147D-02 0.840D-03
 Coeff-Com: -0.127D-01-0.393D-01 0.306D-01 0.102D+01
 Coeff:      0.937D-04-0.198D-03-0.423D-04 0.383D-03 0.147D-02 0.840D-03
 Coeff:     -0.127D-01-0.393D-01 0.306D-01 0.102D+01
 Gap=     0.349 Goal=   None    Shift=    0.000
 RMSDP=5.94D-08 MaxDP=2.43D-06 DE=-1.15D-09 OVMax= 5.40D-06

 Cycle  11  Pass 1  IDiag  1:
 E= -150.017091661469     Delta-E=       -0.000000000057 Rises=F Damp=F
 DIIS: error= 8.78D-08 at cycle  11 NSaved=  11.
 NSaved=11 IEnMin=11 EnMin= -150.017091661469     IErMin=11 ErrMin= 8.78D-08
 ErrMax= 8.78D-08  0.00D+00 EMaxC= 1.00D-01 BMatC= 9.93D-13 BMatP= 2.76D-11
 IDIUse=1 WtCom= 1.00D+00 WtEn= 0.00D+00
 Coeff-Com:  0.197D-06 0.294D-06-0.152D-04-0.162D-03-0.423D-04 0.101D-02
 Coeff-Com:  0.385D-02-0.696D-03-0.535D-01-0.739D-01 0.112D+01
 Coeff:      0.197D-06 0.294D-06-0.152D-04-0.162D-03-0.423D-04 0.101D-02
 Coeff:      0.385D-02-0.696D-03-0.535D-01-0.739D-01 0.112D+01
 Gap=     0.349 Goal=   None    Shift=    0.000
 RMSDP=1.34D-08 MaxDP=4.98D-07 DE=-5.73D-11 OVMax= 1.18D-06

 Cycle  12  Pass 1  IDiag  1:
 E= -150.017091661472     Delta-E=       -0.000000000003 Rises=F Damp=F
 DIIS: error= 1.13D-08 at cycle  12 NSaved=  12.
 NSaved=12 IEnMin=12 EnMin= -150.017091661472     IErMin=12 ErrMin= 1.13D-08
 ErrMax= 1.13D-08  0.00D+00 EMaxC= 1.00D-01 BMatC= 2.66D-14 BMatP= 9.93D-13
 IDIUse=1 WtCom= 1.00D+00 WtEn= 0.00D+00
 Coeff-Com: -0.271D-05 0.568D-05 0.945D-06-0.738D-05-0.511D-04-0.458D-04
 Coeff-Com:  0.445D-03 0.107D-02-0.201D-03-0.314D-01-0.229D-01 0.105D+01
 Coeff:     -0.271D-05 0.568D-05 0.945D-06-0.738D-05-0.511D-04-0.458D-04
 Coeff:      0.445D-03 0.107D-02-0.201D-03-0.314D-01-0.229D-01 0.105D+01
 Gap=     0.349 Goal=   None    Shift=    0.000
 RMSDP=2.13D-09 MaxDP=7.13D-08 DE=-2.61D-12 OVMax= 1.89D-07

 SCF Done:  E(RwB97XD) =  -150.017091661     A.U. after   12 cycles
            NFock= 12  Conv=0.21D-08     -V/T= 2.0067
 KE= 1.490156022100D+02 PE=-4.937319796571D+02 EE= 1.227446800027D+02
 Leave Link  502 at Wed Mar 23 18:42:36 2011, MaxMem= 13421772800 cpu:             118.9 elap:              20.4
 (Enter /opt/software/Gaussian16/bin/avx/g16/l801.exe)
 DoSCS=F DFT=T ScalE2(SS,OS)=  1.000000  1.000000
 Range of M.O.s used for correlation:     1   230
 NBasis=   230 NAE=    12 NBE=    12 NFC=     0 NFV=     0
 NROrb=    230 NOA=    12 NOB=    12 NVA=   218 NVB=   218

 **** Warning!!: The largest alpha MO coefficient is  0.36803359D+02

 Leave Link  801 at Wed Mar 23 18:42:36 2011, MaxMem= 13421772800 cpu:               0.2 elap:               0.1
 (Enter /opt/software/Gaussian16/bin/avx/g16/l1002.exe)
 Minotr:  Closed shell wavefunction.
          Direct CPHF calculation.
          Differentiating once with respect to electric field.
                with respect to dipole field.
          Electric field/nuclear overlap derivatives assumed to be zero.
          Requested convergence is 1.0D-08 RMS, and 1.0D-07 maximum.
          Secondary convergence is 1.0D-12 RMS, and 1.0D-12 maximum.
          NewPWx=F KeepS1=T KeepF1=T KeepIn=T MapXYZ=F SortEE=F KeepMc=T.
         2178 words used for storage of precomputed grid.
 Keep R1 ints in memory in canonical form, NReq=721303507.
 FoFCou: FMM=F IPFlag=           0 FMFlag=           0 FMFlg1=           0
         NFxFlg=           0 DoJE=F BraDBF=F KetDBF=F FulRan=T
         wScrn=  0.000000 ICntrl=       600 IOpCl=  0 I1Cent=           0 NGrid=           0
         NMat0=    1 NMatS0=  26565 NMatT0=    0 NMatD0=    1 NMtDS0=    0 NMtDT0=    0
 Symmetry not used in FoFCou.
 Two-electron integral symmetry not used.
          MDV=   13421772800 using IRadAn=       1.
          Solving linear equations simultaneously, MaxMat=       0.
          There are     3 degrees of freedom in the 1st order CPHF.  IDoFFX=0 NUNeed=     3.
      3 vectors produced by pass  0 Test12= 8.72D-14 3.33D-08 XBig12= 2.02D+01 2.61D+00.
 AX will form     3 AO Fock derivatives at one time.
      3 vectors produced by pass  1 Test12= 8.72D-14 3.33D-08 XBig12= 4.84D+00 5.78D-01.
      3 vectors produced by pass  2 Test12= 8.72D-14 3.33D-08 XBig12= 8.66D-01 3.30D-01.
      3 vectors produced by pass  3 Test12= 8.72D-14 3.33D-08 XBig12= 3.54D-02 6.21D-02.
      3 vectors produced by pass  4 Test12= 8.72D-14 3.33D-08 XBig12= 1.51D-03 1.02D-02.
      3 vectors produced by pass  5 Test12= 8.72D-14 3.33D-08 XBig12= 1.28D-04 2.70D-03.
      3 vectors produced by pass  6 Test12= 8.72D-14 3.33D-08 XBig12= 8.75D-06 8.52D-04.
      3 vectors produced by pass  7 Test12= 8.72D-14 3.33D-08 XBig12= 2.41D-07 1.14D-04.
      3 vectors produced by pass  8 Test12= 8.72D-14 3.33D-08 XBig12= 6.82D-09 2.29D-05.
      3 vectors produced by pass  9 Test12= 8.72D-14 3.33D-08 XBig12= 1.36D-10 2.43D-06.
      2 vectors produced by pass 10 Test12= 8.72D-14 3.33D-08 XBig12= 2.60D-12 2.65D-07.
      1 vectors produced by pass 11 Test12= 8.72D-14 3.33D-08 XBig12= 5.27D-14 5.65D-08.
 InvSVY:  IOpt=1 It=  1 EMax= 8.88D-16
 Solved reduced A of dimension    33 with     3 vectors.
 FullF1:  Do perturbations      1 to       3.
 SCF Polarizability for W=    0.000000:
                1             2             3 
      1  0.444524D+02
      2  0.205417D+01  0.319791D+02
      3  0.000000D+00  0.000000D+00  0.248378D+02
 Isotropic polarizability for W=    0.000000       33.76 Bohr**3.
 SCF Static Hyperpolarizability:
 K=  1 block:
                1 
      1  0.216732D+02
 K=  2 block:
                1             2 
      1  0.400635D+02
      2  0.134912D+02 -0.122637D+02
 K=  3 block:
                1             2             3 
      1  0.000000D+00
      2  0.000000D+00  0.000000D+00
      3 -0.328826D+01 -0.102802D+02  0.000000D+00
 End of Minotr F.D. properties file   721 does not exist.
 End of Minotr F.D. properties file   722 does not exist.
 End of Minotr F.D. properties file   788 does not exist.
 Leave Link 1002 at Wed Mar 23 18:43:05 2011, MaxMem= 13421772800 cpu:             232.6 elap:              29.5
 (Enter /opt/software/Gaussian16/bin/avx/g16/l601.exe)
 Copying SCF densities to generalized density rwf, IOpCl= 0 IROHF=0.

 **********************************************************************

            Population analysis using the SCF Density.

 **********************************************************************

 Alpha  occ. eigenvalues --  -14.45412 -14.39737 -10.36085  -1.04444  -0.94607
 Alpha  occ. eigenvalues --   -0.70926  -0.64884  -0.54816  -0.53537  -0.46315
 Alpha  occ. eigenvalues --   -0.35103  -0.32225
 Alpha virt. eigenvalues --    0.02628   0.03926   0.04801   0.06599   0.08348
 Alpha virt. eigenvalues --    0.09488   0.10493   0.11471   0.12376   0.13347
 Alpha virt. eigenvalues --    0.14362   0.15926   0.16419   0.17716   0.18083
 Alpha virt. eigenvalues --    0.18945   0.23905   0.23977   0.25336   0.27315
 Alpha virt. eigenvalues --    0.29073   0.29412   0.29514   0.31186   0.31357
 Alpha virt. eigenvalues --    0.33283   0.34492   0.35286   0.36300   0.38383
 Alpha virt. eigenvalues --    0.39719   0.40774   0.42622   0.42841   0.43461
 Alpha virt. eigenvalues --    0.44891   0.47216   0.48255   0.48843   0.50911
 Alpha virt. eigenvalues --    0.54596   0.55539   0.56568   0.57756   0.61080
 Alpha virt. eigenvalues --    0.61210   0.62760   0.64002   0.66056   0.66878
 Alpha virt. eigenvalues --    0.69917   0.71948   0.78718   0.80012   0.81731
 Alpha virt. eigenvalues --    0.82113   0.82890   0.85542   0.85671   0.86490
 Alpha virt. eigenvalues --    0.88273   0.88589   0.91719   0.93482   0.93816
 Alpha virt. eigenvalues --    0.96672   0.97582   0.98274   1.00126   1.00623
 Alpha virt. eigenvalues --    1.00624   1.04543   1.05699   1.06452   1.07823
 Alpha virt. eigenvalues --    1.09942   1.12115   1.13249   1.15232   1.16509
 Alpha virt. eigenvalues --    1.18553   1.21541   1.23108   1.24242   1.28190
 Alpha virt. eigenvalues --    1.29879   1.31365   1.32095   1.33431   1.35505
 Alpha virt. eigenvalues --    1.40013   1.40902   1.42967   1.44966   1.48485
 Alpha virt. eigenvalues --    1.49871   1.52558   1.56266   1.60279   1.62542
 Alpha virt. eigenvalues --    1.65243   1.66587   1.75137   1.75649   1.79571
 Alpha virt. eigenvalues --    1.81934   1.82186   1.89715   1.90033   1.90549
 Alpha virt. eigenvalues --    1.93045   1.95808   1.96420   1.99556   2.05664
 Alpha virt. eigenvalues --    2.07862   2.10312   2.14072   2.20761   2.20763
 Alpha virt. eigenvalues --    2.22942   2.24652   2.29835   2.30084   2.33711
 Alpha virt. eigenvalues --    2.40767   2.40932   2.44767   2.49964   2.50798
 Alpha virt. eigenvalues --    2.55726   2.64534   2.67667   2.85273   2.89439
 Alpha virt. eigenvalues --    3.04158   3.13965   3.15610   3.29002   3.33826
 Alpha virt. eigenvalues --    3.34212   3.43346   3.48778   3.50949   3.52137
 Alpha virt. eigenvalues --    3.54093   3.61488   3.65973   3.75659   3.76944
 Alpha virt. eigenvalues --    3.78747   3.81079   3.81699   3.84601   3.89540
 Alpha virt. eigenvalues --    3.89849   4.01973   4.04872   4.05277   4.09936
 Alpha virt. eigenvalues --    4.11801   4.15375   4.16003   4.19411   4.23285
 Alpha virt. eigenvalues --    4.30019   4.31193   4.37344   4.41753   4.47142
 Alpha virt. eigenvalues --    4.48158   4.51370   4.54819   4.60368   4.65803
 Alpha virt. eigenvalues --    4.65838   4.72137   4.73080   4.76342   4.78989
 Alpha virt. eigenvalues --    4.84290   4.90551   4.93810   5.01472   5.01955
 Alpha virt. eigenvalues --    5.05893   5.12620   5.12960   5.15980   5.26198
 Alpha virt. eigenvalues --    5.29055   5.32424   5.35974   5.39715   5.43140
 Alpha virt. eigenvalues --    5.45748   5.50025   5.57693   5.60221   5.71830
 Alpha virt. eigenvalues --    5.74824   5.80095   5.82521   5.92226   5.94923
 Alpha virt. eigenvalues --    6.08291   6.14817   6.28650   6.30385   6.47789
 Alpha virt. eigenvalues --    6.58211   6.97588   7.13288   7.16458   7.34805
 Alpha virt. eigenvalues --   15.70988  16.12343  17.25576
          Condensed to atoms (all electrons):
               1          2          3          4          5          6
     1  C    5.229292   0.278977   0.337350  -0.016523   0.320907  -0.043415
     2  H    0.278977   0.326090   0.010411  -0.018191  -0.049889   0.007895
     3  N    0.337350   0.010411   7.176341   0.202006  -0.195676   0.010849
     4  H   -0.016523  -0.018191   0.202006   0.698183   0.006037  -0.003019
     5  N    0.320907  -0.049889  -0.195676   0.006037   6.226107   0.406906
     6  H   -0.043415   0.007895   0.010849  -0.003019   0.406906   0.616987
     7  H   -0.068879  -0.010073  -0.003663   0.002439   0.450157  -0.099874
               7
     1  C   -0.068879
     2  H   -0.010073
     3  N   -0.003663
     4  H    0.002439
     5  N    0.450157
     6  H   -0.099874
     7  H    0.677532
 Mulliken charges:
               1
     1  C   -0.037708
     2  H    0.454779
     3  N   -0.537618
     4  H    0.129066
     5  N   -0.164550
     6  H    0.103670
     7  H    0.052361
 Sum of Mulliken charges =  -0.00000
 Mulliken charges with hydrogens summed into heavy atoms:
               1
     1  C    0.417071
     3  N   -0.408552
     5  N   -0.008519
 Electronic spatial extent (au):  <R**2>=            160.4612
 Charge=             -0.0000 electrons
 Dipole moment (field-independent basis, Debye):
    X=             -2.7043    Y=              1.1438    Z=              0.0000  Tot=              2.9363
 Quadrupole moment (field-independent basis, Debye-Ang):
   XX=            -16.8739   YY=            -15.6130   ZZ=            -21.0918
   XY=              2.9791   XZ=              0.0000   YZ=             -0.0000
 Traceless Quadrupole moment (field-independent basis, Debye-Ang):
   XX=              0.9857   YY=              2.2466   ZZ=             -3.2322
   XY=              2.9791   XZ=              0.0000   YZ=             -0.0000
 Octapole moment (field-independent basis, Debye-Ang**2):
  XXX=            -10.3511  YYY=             -2.2704  ZZZ=              0.0000  XYY=             -2.3954
  XXY=              4.3674  XXZ=              0.0000  XZZ=             -0.4905  YZZ=              0.3082
  YYZ=             -0.0000  XYZ=             -0.0000
 Hexadecapole moment (field-independent basis, Debye-Ang**3):
 XXXX=           -112.7214 YYYY=            -41.0763 ZZZZ=            -22.9937 XXXY=             -2.4000
 XXXZ=             -0.0000 YYYX=             -7.3708 YYYZ=             -0.0000 ZZZX=              0.0000
 ZZZY=             -0.0000 XXYY=            -28.8842 XXZZ=            -30.1606 YYZZ=            -13.1720
 XXYZ=             -0.0000 YYXZ=              0.0000 ZZXY=             -4.8723
 N-N= 7.195460578291D+01 E-N=-4.937319796353D+02  KE= 1.490156022100D+02
  Exact polarizability:      44.452       2.054      31.979      -0.000       0.000      24.838
 Approx polarizability:      45.448       0.629      32.416      -0.000       0.000      25.005
 No NMR shielding tensors so no spin-rotation constants.
 Leave Link  601 at Wed Mar 23 18:43:06 2011, MaxMem= 13421772800 cpu:               1.8 elap:               0.3
 (Enter /opt/software/Gaussian16/bin/avx/g16/l9999.exe)

 ----------------------------------------------------------------------

 Electric dipole moment (input orientation):
 (Debye = 10**-18 statcoulomb cm , SI units = C m)
                  (au)            (Debye)         (10**-30 SI)
   Tot        0.115521D+01      0.293626D+01      0.979432D+01
   x         -0.106396D+01     -0.270430D+01     -0.902059D+01
   y          0.450022D+00      0.114384D+01      0.381545D+01
   z          0.000000D+00      0.000000D+00      0.000000D+00

 Dipole polarizability, Alpha (input orientation).
 (esu units = cm**3 , SI units = C**2 m**2 J**-1)
 Alpha(0;0):
               (au)            (10**-24 esu)      (10**-40 SI)
   iso        0.337564D+02      0.500219D+01      0.556568D+01
   aniso      0.175590D+02      0.260197D+01      0.289508D+01
   xx         0.444524D+02      0.658717D+01      0.732921D+01
   yx         0.205417D+01      0.304397D+00      0.338688D+00
   yy         0.319791D+02      0.473882D+01      0.527265D+01
   zx         0.000000D+00      0.000000D+00      0.000000D+00
   zy         0.000000D+00      0.000000D+00      0.000000D+00
   zz         0.248378D+02      0.368058D+01      0.409519D+01

 First dipole hyperpolarizability, Beta (input orientation).
 ||, _|_  parallel and perpendicular components, (z) with respect to z axis,
 vector components x,y,z.  Values do not include the 1/n! factor of 1/2.
 (esu units = statvolt**-1 cm**4 , SI units = C**3 m**3 J**-2)
 Beta(0;0,0):
               (au)            (10**-30 esu)      (10**-50 SI)
   || (z)     0.000000D+00      0.000000D+00      0.000000D+00
   _|_(z)     0.000000D+00      0.000000D+00      0.000000D+00
   x          0.956283D+02      0.826154D+00      0.306619D+00
   y          0.525587D+02      0.454066D+00      0.168522D+00
   z          0.000000D+00      0.000000D+00      0.000000D+00
   ||         0.218240D+02      0.188542D+00      0.699757D-01
   xxx        0.216732D+02      0.187239D+00      0.694921D-01
   xxy        0.400635D+02      0.346117D+00      0.128458D+00
   yxy        0.134912D+02      0.116553D+00      0.432576D-01
   yyy       -0.122637D+02     -0.105949D+00     -0.393219D-01
   xxz        0.000000D+00      0.000000D+00      0.000000D+00
   yxz        0.000000D+00      0.000000D+00      0.000000D+00
   yyz        0.000000D+00      0.000000D+00      0.000000D+00
   zxz       -0.328826D+01     -0.284080D-01     -0.105434D-01
   zyz       -0.102802D+02     -0.888131D-01     -0.329621D-01
   zzz        0.000000D+00      0.000000D+00      0.000000D+00

 ----------------------------------------------------------------------

 Dipole orientation:
     6          0.28201887          0.66675714          0.30620866
     1          0.89434298          2.11443144          1.65654484
     7          0.36539294          0.86387252         -2.11576861
     1          1.09349725          2.58527769         -2.59118393
     7         -0.61730066         -1.45944001          1.45670143
     1         -1.22628677         -2.89922251          0.36351384
     1         -0.69031236         -1.63205636          3.34734182

 Electric dipole moment (dipole orientation):
 (Debye = 10**-18 statcoulomb cm , SI units = C m)
                  (au)            (Debye)         (10**-30 SI)
   Tot        0.115521D+01      0.293626D+01      0.979432D+01
   x          0.000000D+00      0.000000D+00      0.000000D+00
   y          0.000000D+00      0.000000D+00      0.000000D+00
   z          0.115521D+01      0.293626D+01      0.979432D+01

 Dipole polarizability, Alpha (dipole orientation).
 (esu units = cm**3 , SI units = C**2 m**2 J**-1)
 Alpha(0;0):
               (au)            (10**-24 esu)      (10**-40 SI)
   iso        0.337564D+02      0.500219D+01      0.556568D+01
   aniso      0.175590D+02      0.260197D+01      0.289508D+01
   xx         0.264324D+02      0.391688D+01      0.435812D+01
   yx         0.377019D+01      0.558684D+00      0.621620D+00
   yy         0.337513D+02      0.500143D+01      0.556484D+01
   zx        -0.230069D+01     -0.340927D+00     -0.379333D+00
   zy        -0.543936D+01     -0.806030D+00     -0.896829D+00
   zz         0.410855D+02      0.608825D+01      0.677409D+01

 First dipole hyperpolarizability, Beta (dipole orientation).
 ||, _|_  parallel and perpendicular components, (z) with respect to z axis,
 vector components x,y,z.  Values do not include the 1/n! factor of 1/2.
 (esu units = statvolt**-1 cm**4 , SI units = C**3 m**3 J**-2)
 Beta(0;0,0):
               (au)            (10**-30 esu)      (10**-50 SI)
   || (z)    -0.135199D+02     -0.116801D+00     -0.433495D-01
   _|_(z)    -0.450662D+01     -0.389337D-01     -0.144498D-01
   x          0.333692D+02      0.288284D+00      0.106994D+00
   y          0.788925D+02      0.681570D+00      0.252958D+00
   z         -0.675993D+02     -0.584005D+00     -0.216748D+00
   ||         0.218240D+02      0.188542D+00      0.699757D-01
   xxx       -0.936270D+01     -0.808864D-01     -0.300202D-01
   xxy       -0.233571D+01     -0.201788D-01     -0.748914D-02
   yxy        0.136961D+02      0.118324D+00      0.439148D-01
   yyy        0.125810D+02      0.108690D+00      0.403391D-01
   xxz       -0.658853D+01     -0.569198D-01     -0.211252D-01
   yxz       -0.132687D+02     -0.114632D+00     -0.425444D-01
   yyz       -0.323466D+02     -0.279449D+00     -0.103715D+00
   zxz        0.678964D+01      0.586572D-01      0.217700D-01
   zyz        0.160523D+02      0.138679D+00      0.514693D-01
   zzz        0.164020D+02      0.141701D+00      0.525909D-01

 ----------------------------------------------------------------------
 Unable to Open any file for archive entry.
 1\1\GINC-NODE142\SP\RwB97XD\Aug-CC-pVTZ\C1H4N2\LIUCHW\23-Mar-2011\0\\#
 p wB97XD/aug-cc-pvtz NoSymm MaxDisk=100GB polar\\polar\\0,1\C,0,0.,0.4
 15956,0.\H,0,-0.33409,1.460397,0.\N,0,1.224527,0.020987,0.\H,0,1.84152
 8,0.833911,0.\N,0,-1.036619,-0.472011,0.\H,0,-0.82609,-1.459266,0.\H,0
 ,-1.996703,-0.17361,0.\\Version=ES64L-G16RevC.01\HF=-150.0170917\RMSD=
 2.134e-09\Dipole=-1.0639552,0.4500221,0.\Polar=44.4524155,2.0541739,31
 .9791346,0.,0.,24.8377561\HyperPolar=21.6731869,40.0634985,13.4911727,
 -12.263704,0.,0.,0.,-3.2882602,-10.2802212,0.\Quadrupole=0.7328371,1.6
 702563,-2.4030934,2.2148644,0.,0.\PG=CS [SG(C1H4N2)]\\@
 The archive entry for this job was punched.


 MAN IS THE MEASURE OF ALL THINGS.
  -- PROTAGORAS (5TH CENTURY B.C.)
 Job cpu time:       0 days  0 hours  6 minutes  4.8 seconds.
 Elapsed time:       0 days  0 hours  0 minutes 51.9 seconds.
 File lengths (MBytes):  RWF=     32 Int=      0 D2E=      0 Chk=      5 Scr=      1
 Normal termination of Gaussian 16 at Wed Mar 23 18:43:06 2011.
