 Entering Gaussian System, Link 0=g16
 Input=60_Trimethylammonium.com
 Output=60_Trimethylammonium.out
 Initial command:
 /opt/software/Gaussian16/bin/avx/g16/l1.exe "/scratch/liuchw/Gau-11921.inp" -scrdir="/scratch/liuchw/"
 Entering Link 1 = /opt/software/Gaussian16/bin/avx/g16/l1.exe PID=     11922.
  
 Copyright (c) 1988-2019, Gaussian, Inc.  All Rights Reserved.
  
 This is part of the Gaussian(R) 16 program.  It is based on
 the Gaussian(R) 09 system (copyright 2009, Gaussian, Inc.),
 the Gaussian(R) 03 system (copyright 2003, Gaussian, Inc.),
 the Gaussian(R) 98 system (copyright 1998, Gaussian, Inc.),
 the Gaussian(R) 94 system (copyright 1995, Gaussian, Inc.),
 the Gaussian 92(TM) system (copyright 1992, Gaussian, Inc.),
 the Gaussian 90(TM) system (copyright 1990, Gaussian, Inc.),
 the Gaussian 88(TM) system (copyright 1988, Gaussian, Inc.),
 the Gaussian 86(TM) system (copyright 1986, Carnegie Mellon
 University), and the Gaussian 82(TM) system (copyright 1983,
 Carnegie Mellon University). Gaussian is a federally registered
 trademark of Gaussian, Inc.
  
 This software contains proprietary and confidential information,
 including trade secrets, belonging to Gaussian, Inc.
  
 This software is provided under written license and may be
 used, copied, transmitted, or stored only in accord with that
 written license.
  
 The following legend is applicable only to US Government
 contracts under FAR:
  
                    RESTRICTED RIGHTS LEGEND
  
 Use, reproduction and disclosure by the US Government is
 subject to restrictions as set forth in subparagraphs (a)
 and (c) of the Commercial Computer Software - Restricted
 Rights clause in FAR 52.227-19.
  
 Gaussian, Inc.
 340 Quinnipiac St., Bldg. 40, Wallingford CT 06492
  
  
 ---------------------------------------------------------------
 Warning -- This program may not be used in any manner that
 competes with the business of Gaussian, Inc. or will provide
 assistance to any competitor of Gaussian, Inc.  The licensee
 of this program is prohibited from giving any competitor of
 Gaussian, Inc. access to this program.  By using this program,
 the user acknowledges that Gaussian, Inc. is engaged in the
 business of creating and licensing software in the field of
 computational chemistry and represents and warrants to the
 licensee that it is not a competitor of Gaussian, Inc. and that
 it will not use this program in any manner prohibited above.
 ---------------------------------------------------------------
  

 Cite this work as:
 Gaussian 16, Revision C.01,
 M. J. Frisch, G. W. Trucks, H. B. Schlegel, G. E. Scuseria, 
 M. A. Robb, J. R. Cheeseman, G. Scalmani, V. Barone, 
 G. A. Petersson, H. Nakatsuji, X. Li, M. Caricato, A. V. Marenich, 
 J. Bloino, B. G. Janesko, R. Gomperts, B. Mennucci, H. P. Hratchian, 
 J. V. Ortiz, A. F. Izmaylov, J. L. Sonnenberg, D. Williams-Young, 
 F. Ding, F. Lipparini, F. Egidi, J. Goings, B. Peng, A. Petrone, 
 T. Henderson, D. Ranasinghe, V. G. Zakrzewski, J. Gao, N. Rega, 
 G. Zheng, W. Liang, M. Hada, M. Ehara, K. Toyota, R. Fukuda, 
 J. Hasegawa, M. Ishida, T. Nakajima, Y. Honda, O. Kitao, H. Nakai, 
 T. Vreven, K. Throssell, J. A. Montgomery, Jr., J. E. Peralta, 
 F. Ogliaro, M. J. Bearpark, J. J. Heyd, E. N. Brothers, K. N. Kudin, 
 V. N. Staroverov, T. A. Keith, R. Kobayashi, J. Normand, 
 K. Raghavachari, A. P. Rendell, J. C. Burant, S. S. Iyengar, 
 J. Tomasi, M. Cossi, J. M. Millam, M. Klene, C. Adamo, R. Cammi, 
 J. W. Ochterski, R. L. Martin, K. Morokuma, O. Farkas, 
 J. B. Foresman, and D. J. Fox, Gaussian, Inc., Wallingford CT, 2019.
 
 ******************************************
 Gaussian 16:  ES64L-G16RevC.01  3-Jul-2019
                 8-Jan-2020 
 ******************************************
 %chk=60_Trimethylammonium.chk
 %nproc=8
 Will use up to    8 processors via shared memory.
 %Mem=100GB
 ------------------------------------------------
 #p wB97XD/aug-cc-pvtz NoSymm MaxDisk=100GB polar
 ------------------------------------------------
 1/38=1,172=1/1;
 2/12=2,15=1,17=6,18=5,40=1/2;
 3/5=16,6=1,7=10,11=2,25=1,30=1,74=-58/1,2,3;
 4//1;
 5/5=2,38=5,98=1/2;
 8/6=4,10=90,11=11/1;
 10/6=1,13=10,31=1/2;
 6/7=2,8=2,9=2,10=2,28=1/1;
 99/5=1,9=1/99;
 Leave Link    1 at Wed Jan  8 11:12:00 2020, MaxMem= 13421772800 cpu:               0.7 elap:               0.1
 (Enter /opt/software/Gaussian16/bin/avx/g16/l101.exe)
 -----
 polar
 -----
 Symbolic Z-matrix:
 Charge =  1 Multiplicity = 1
 N                    -0.00001  -0.00001  -0.34333 
 C                     1.19733  -0.78606   0.1043 
 C                    -1.27942  -0.64388   0.1043 
 C                     0.08209   1.42996   0.10431 
 H                     0.        0.00001  -1.37188 
 H                     1.21013  -0.7924    1.19408 
 H                     1.11419  -1.80253  -0.27934 
 H                     2.0967   -0.30746  -0.28218 
 H                    -1.29136  -0.65166   1.19408 
 H                    -2.11811  -0.06369  -0.27944 
 H                    -1.31461  -1.66211  -0.28205 
 H                     1.00389   1.86618  -0.27948 
 H                    -0.78215   1.9695   -0.28204 
 H                     0.08134   1.44415   1.19408 
 
 ITRead=  0  0  0  0  0  0  0  0  0  0  0  0  0  0
 MicOpt= -1 -1 -1 -1 -1 -1 -1 -1 -1 -1 -1 -1 -1 -1
 NAtoms=     14 NQM=       14 NQMF=       0 NMMI=      0 NMMIF=      0
                NMic=       0 NMicF=      0.
                    Isotopes and Nuclear Properties:
 (Nuclear quadrupole moments (NQMom) in fm**2, nuclear magnetic moments (NMagM)
  in nuclear magnetons)

  Atom         1           2           3           4           5           6           7           8           9          10
 IAtWgt=          14          12          12          12           1           1           1           1           1           1
 AtmWgt=  14.0030740  12.0000000  12.0000000  12.0000000   1.0078250   1.0078250   1.0078250   1.0078250   1.0078250   1.0078250
 NucSpn=           2           0           0           0           1           1           1           1           1           1
 AtZEff=  -0.0000000  -0.0000000  -0.0000000  -0.0000000  -0.0000000  -0.0000000  -0.0000000  -0.0000000  -0.0000000  -0.0000000
 NQMom=    2.0440000   0.0000000   0.0000000   0.0000000   0.0000000   0.0000000   0.0000000   0.0000000   0.0000000   0.0000000
 NMagM=    0.4037610   0.0000000   0.0000000   0.0000000   2.7928460   2.7928460   2.7928460   2.7928460   2.7928460   2.7928460
 AtZNuc=   7.0000000   6.0000000   6.0000000   6.0000000   1.0000000   1.0000000   1.0000000   1.0000000   1.0000000   1.0000000

  Atom        11          12          13          14
 IAtWgt=           1           1           1           1
 AtmWgt=   1.0078250   1.0078250   1.0078250   1.0078250
 NucSpn=           1           1           1           1
 AtZEff=  -0.0000000  -0.0000000  -0.0000000  -0.0000000
 NQMom=    0.0000000   0.0000000   0.0000000   0.0000000
 NMagM=    2.7928460   2.7928460   2.7928460   2.7928460
 AtZNuc=   1.0000000   1.0000000   1.0000000   1.0000000
 Leave Link  101 at Wed Jan  8 11:12:00 2020, MaxMem= 13421772800 cpu:               1.1 elap:               0.2
 (Enter /opt/software/Gaussian16/bin/avx/g16/l202.exe)
                          Input orientation:                          
 ---------------------------------------------------------------------
 Center     Atomic      Atomic             Coordinates (Angstroms)
 Number     Number       Type             X           Y           Z
 ---------------------------------------------------------------------
      1          7           0       -0.000010   -0.000014   -0.343327
      2          6           0        1.197334   -0.786062    0.104303
      3          6           0       -1.279418   -0.643880    0.104302
      4          6           0        0.082093    1.429960    0.104306
      5          1           0        0.000000    0.000007   -1.371878
      6          1           0        1.210132   -0.792403    1.194077
      7          1           0        1.114190   -1.802526   -0.279336
      8          1           0        2.096699   -0.307460   -0.282181
      9          1           0       -1.291364   -0.651664    1.194079
     10          1           0       -2.118109   -0.063687   -0.279444
     11          1           0       -1.314612   -1.662105   -0.282054
     12          1           0        1.003889    1.866177   -0.279475
     13          1           0       -0.782150    1.969501   -0.282041
     14          1           0        0.081342    1.444150    1.194079
 ---------------------------------------------------------------------
                    Distance matrix (angstroms):
                    1          2          3          4          5
     1  N    0.000000
     2  C    1.500625   0.000000
     3  C    1.500607   2.480830   0.000000
     4  C    1.500647   2.480830   2.480831   0.000000
     5  H    1.028551   2.056848   2.056844   2.056848   0.000000
     6  H    2.110909   1.089868   2.721677   2.720105   2.945583
     7  H    2.120044   1.089629   2.686819   3.414875   2.384154
     8  H    2.120012   1.089627   3.414779   2.688241   2.382881
     9  H    2.110891   2.720164   1.089870   2.721608   2.945578
    10  H    2.120019   3.414857   1.089627   2.686845   2.384084
    11  H    2.120019   2.688233   1.089629   3.414810   2.382968
    12  H    2.120038   2.686834   3.414844   1.089624   2.384057
    13  H    2.120021   3.414783   2.688177   1.089626   2.382941
    14  H    2.110887   2.721561   2.720138   1.089866   2.945556
                    6          7          8          9         10
     6  H    0.000000
     7  H    1.788994   0.000000
     8  H    1.788996   1.789009   0.000000
     9  H    2.505452   3.046658   3.711710   0.000000
    10  H    3.712072   3.670329   4.221853   1.788993   0.000000
    11  H    3.051176   2.432859   3.670437   1.788994   1.789009
    12  H    3.046628   3.670361   2.432887   3.712017   3.670320
    13  H    3.711634   4.221884   3.670466   3.051022   2.432827
    14  H    2.505262   3.711958   3.051089   2.505346   3.046708
                   11         12         13         14
    11  H    0.000000
    12  H    4.221875   0.000000
    13  H    3.670433   1.789027   0.000000
    14  H    3.711668   1.789011   1.789006   0.000000
 Symmetry turned off by external request.
 Stoichiometry    C3H10N(1+)
 Framework group  C1[X(C3H10N)]
 Deg. of freedom    36
 Full point group                 C1      NOp   1
 Rotational constants (GHZ):           8.1004334           8.1003845           4.7084484
 Leave Link  202 at Wed Jan  8 11:12:01 2020, MaxMem= 13421772800 cpu:               0.2 elap:               0.1
 (Enter /opt/software/Gaussian16/bin/avx/g16/l301.exe)
 Standard basis: Aug-CC-pVTZ (5D, 7F)
 Ernie: Thresh=  0.10000D-02 Tol=  0.10000D-05 Strict=F.
 Ernie:  12 primitive shells out of 230 were deleted.
   414 basis functions,   558 primitive gaussians,   470 cartesian basis functions
    17 alpha electrons       17 beta electrons
       nuclear repulsion energy       146.2989876489 Hartrees.
 IExCor= 4639 DFT=T Ex+Corr=wB97XD ExCW=0 ScaHFX=  1.000000
 ScaDFX=  1.000000  1.000000  1.000000  1.000000 ScalE2=  1.000000  1.000000
 IRadAn=      5 IRanWt=     -1 IRanGd=            0 ICorTp=0 IEmpDi=121
 HFx  wShort=  0.000000 wLong=  0.200000 cFull=  0.222036 cShort=  0.000000 cLong=  0.777964
 DFx  wShort=  0.000000 wLong=  0.200000 cFull=  0.000000 cShort=  0.000000 cLong=  1.000000
 NAtoms=   14 NActive=   14 NUniq=   14 SFac= 1.00D+00 NAtFMM=   60 NAOKFM=F Big=F
 Integral buffers will be    131072 words long.
 Raffenetti 2 integral format.
 Two-electron integral symmetry is turned off.
 R6Disp:  Grimme-D2 Dispersion energy=       -0.0070630723 Hartrees.
 Nuclear repulsion after empirical dispersion term =      146.2919245765 Hartrees.
 Leave Link  301 at Wed Jan  8 11:12:01 2020, MaxMem= 13421772800 cpu:               1.3 elap:               0.2
 (Enter /opt/software/Gaussian16/bin/avx/g16/l302.exe)
 NPDir=0 NMtPBC=     1 NCelOv=     1 NCel=       1 NClECP=     1 NCelD=      1
         NCelK=      1 NCelE2=     1 NClLst=     1 CellRange=     0.0.
 One-electron integrals computed using PRISM.
 NBasis=   414 RedAO= T EigKep=  5.48D-06  NBF=   414
 NBsUse=   414 1.00D-06 EigRej= -1.00D+00 NBFU=   414
 Precomputing XC quadrature grid using
 IXCGrd= 4 IRadAn=           5 IRanWt=          -1 IRanGd=           0 AccXCQ= 0.00D+00.
 Generated NRdTot=       0 NPtTot=           0 NUsed=           0 NTot=          32
 NSgBfM=   470   470   470   470   470 MxSgAt=    14 MxSgA2=    14.
 Leave Link  302 at Wed Jan  8 11:12:02 2020, MaxMem= 13421772800 cpu:               6.0 elap:               0.8
 (Enter /opt/software/Gaussian16/bin/avx/g16/l303.exe)
 DipDrv:  MaxL=1.
 Leave Link  303 at Wed Jan  8 11:12:02 2020, MaxMem= 13421772800 cpu:               0.9 elap:               0.2
 (Enter /opt/software/Gaussian16/bin/avx/g16/l401.exe)
 ExpMin= 2.53D-02 ExpMax= 1.14D+04 ExpMxC= 3.89D+02 IAcc=3 IRadAn=         5 AccDes= 0.00D+00
 Harris functional with IExCor= 4639 and IRadAn=       5 diagonalized for initial guess.
 HarFok:  IExCor= 4639 AccDes= 0.00D+00 IRadAn=         5 IDoV= 1 UseB2=F ITyADJ=14
 ICtDFT=  3500011 ScaDFX=  1.000000  1.000000  1.000000  1.000000
 FoFCou: FMM=F IPFlag=           0 FMFlag=      100000 FMFlg1=           0
         NFxFlg=           0 DoJE=T BraDBF=F KetDBF=T FulRan=T
         wScrn=  0.000000 ICntrl=       500 IOpCl=  0 I1Cent=   200000004 NGrid=           0
         NMat0=    1 NMatS0=      1 NMatT0=    0 NMatD0=    1 NMtDS0=    0 NMtDT0=    0
 Symmetry not used in FoFCou.
 Harris En= -166.518563392727    
 JPrj=0 DoOrth=F DoCkMO=F.
 Leave Link  401 at Wed Jan  8 11:12:07 2020, MaxMem= 13421772800 cpu:              44.4 elap:               5.6
 (Enter /opt/software/Gaussian16/bin/avx/g16/l502.exe)
 Two-electron integral symmetry not used.
 Closed shell SCF:
 Using DIIS extrapolation, IDIIS=  1040.
 NGot= 13421772800 LenX= 13421323968 LenY= 13421102598
 Requested convergence on RMS density matrix=1.00D-08 within 128 cycles.
 Requested convergence on MAX density matrix=1.00D-06.
 Requested convergence on             energy=1.00D-06.
 No special actions if energy rises.
 Fock matrices will be formed incrementally for  20 cycles.

 Cycle   1  Pass 1  IDiag  1:
 FoFJK:  IHMeth= 1 ICntrl=       0 DoSepK=T KAlg= 0 I1Cent=           0 FoldK=F
 IRaf=         1 NMat=       1 IRICut=       1 DoRegI=T DoRafI=F ISym2E= 0 IDoP0=0 IntGTp=1.
 FoFCou: FMM=F IPFlag=           0 FMFlag=      100000 FMFlg1=           0
         NFxFlg=           0 DoJE=T BraDBF=F KetDBF=F FulRan=T
         wScrn=  0.000000 ICntrl=       500 IOpCl=  0 I1Cent=           0 NGrid=           0
         NMat0=    1 NMatS0=      1 NMatT0=    0 NMatD0=    1 NMtDS0=    0 NMtDT0=    0
 Symmetry not used in FoFCou.
 E= -174.739725600962    
 DIIS: error= 6.47D-02 at cycle   1 NSaved=   1.
 NSaved= 1 IEnMin= 1 EnMin= -174.739725600962     IErMin= 1 ErrMin= 6.47D-02
 ErrMax= 6.47D-02  0.00D+00 EMaxC= 1.00D-01 BMatC= 4.17D-01 BMatP= 4.17D-01
 IDIUse=3 WtCom= 3.53D-01 WtEn= 6.47D-01
 Coeff-Com:  0.100D+01
 Coeff-En:   0.100D+01
 Coeff:      0.100D+01
 Gap=     0.658 Goal=   None    Shift=    0.000
 GapD=    0.658 DampG=2.000 DampE=0.500 DampFc=1.0000 IDamp=-1.
 RMSDP=1.51D-03 MaxDP=9.10D-02              OVMax= 1.30D-01

 Cycle   2  Pass 1  IDiag  1:
 RMSU=  1.51D-03    CP:  9.80D-01
 E= -174.757796517935     Delta-E=       -0.018070916973 Rises=F Damp=F
 DIIS: error= 2.60D-02 at cycle   2 NSaved=   2.
 NSaved= 2 IEnMin= 2 EnMin= -174.757796517935     IErMin= 2 ErrMin= 2.60D-02
 ErrMax= 2.60D-02  0.00D+00 EMaxC= 1.00D-01 BMatC= 1.50D-01 BMatP= 4.17D-01
 IDIUse=3 WtCom= 7.40D-01 WtEn= 2.60D-01
 Coeff-Com:  0.340D+00 0.660D+00
 Coeff-En:   0.453D+00 0.547D+00
 Coeff:      0.370D+00 0.630D+00
 Gap=     0.585 Goal=   None    Shift=    0.000
 RMSDP=6.61D-04 MaxDP=4.79D-02 DE=-1.81D-02 OVMax= 7.60D-02

 Cycle   3  Pass 1  IDiag  1:
 RMSU=  6.25D-04    CP:  9.72D-01  8.61D-01
 E= -174.848848106892     Delta-E=       -0.091051588957 Rises=F Damp=F
 DIIS: error= 9.55D-03 at cycle   3 NSaved=   3.
 NSaved= 3 IEnMin= 3 EnMin= -174.848848106892     IErMin= 3 ErrMin= 9.55D-03
 ErrMax= 9.55D-03  0.00D+00 EMaxC= 1.00D-01 BMatC= 1.75D-02 BMatP= 1.50D-01
 IDIUse=3 WtCom= 9.05D-01 WtEn= 9.55D-02
 Coeff-Com:  0.174D-01 0.259D+00 0.723D+00
 Coeff-En:   0.000D+00 0.504D-01 0.950D+00
 Coeff:      0.158D-01 0.239D+00 0.745D+00
 Gap=     0.565 Goal=   None    Shift=    0.000
 RMSDP=1.85D-04 MaxDP=1.49D-02 DE=-9.11D-02 OVMax= 2.41D-02

 Cycle   4  Pass 1  IDiag  1:
 RMSU=  9.72D-05    CP:  9.70D-01  9.18D-01  7.91D-01
 E= -174.861862182063     Delta-E=       -0.013014075171 Rises=F Damp=F
 DIIS: error= 1.07D-03 at cycle   4 NSaved=   4.
 NSaved= 4 IEnMin= 4 EnMin= -174.861862182063     IErMin= 4 ErrMin= 1.07D-03
 ErrMax= 1.07D-03  0.00D+00 EMaxC= 1.00D-01 BMatC= 2.71D-04 BMatP= 1.75D-02
 IDIUse=3 WtCom= 9.89D-01 WtEn= 1.07D-02
 Coeff-Com: -0.206D-02-0.301D-01 0.386D-01 0.994D+00
 Coeff-En:   0.000D+00 0.000D+00 0.000D+00 0.100D+01
 Coeff:     -0.204D-02-0.297D-01 0.382D-01 0.994D+00
 Gap=     0.558 Goal=   None    Shift=    0.000
 RMSDP=4.74D-05 MaxDP=3.77D-03 DE=-1.30D-02 OVMax= 2.80D-03

 Cycle   5  Pass 1  IDiag  1:
 RMSU=  2.14D-05    CP:  9.69D-01  9.24D-01  8.55D-01  1.10D+00
 E= -174.862059334609     Delta-E=       -0.000197152546 Rises=F Damp=F
 DIIS: error= 8.41D-05 at cycle   5 NSaved=   5.
 NSaved= 5 IEnMin= 5 EnMin= -174.862059334609     IErMin= 5 ErrMin= 8.41D-05
 ErrMax= 8.41D-05  0.00D+00 EMaxC= 1.00D-01 BMatC= 1.25D-06 BMatP= 2.71D-04
 IDIUse=1 WtCom= 1.00D+00 WtEn= 0.00D+00
 Coeff-Com: -0.710D-03-0.113D-01-0.118D-01 0.153D+00 0.870D+00
 Coeff:     -0.710D-03-0.113D-01-0.118D-01 0.153D+00 0.870D+00
 Gap=     0.558 Goal=   None    Shift=    0.000
 RMSDP=7.38D-06 MaxDP=6.60D-04 DE=-1.97D-04 OVMax= 4.31D-04

 Cycle   6  Pass 1  IDiag  1:
 RMSU=  3.65D-06    CP:  9.68D-01  9.25D-01  8.60D-01  1.14D+00  1.13D+00
 E= -174.862060889264     Delta-E=       -0.000001554655 Rises=F Damp=F
 DIIS: error= 1.79D-05 at cycle   6 NSaved=   6.
 NSaved= 6 IEnMin= 6 EnMin= -174.862060889264     IErMin= 6 ErrMin= 1.79D-05
 ErrMax= 1.79D-05  0.00D+00 EMaxC= 1.00D-01 BMatC= 6.62D-08 BMatP= 1.25D-06
 IDIUse=1 WtCom= 1.00D+00 WtEn= 0.00D+00
 Coeff-Com:  0.115D-04 0.458D-03-0.379D-02-0.415D-01 0.111D+00 0.934D+00
 Coeff:      0.115D-04 0.458D-03-0.379D-02-0.415D-01 0.111D+00 0.934D+00
 Gap=     0.558 Goal=   None    Shift=    0.000
 RMSDP=1.80D-06 MaxDP=1.43D-04 DE=-1.55D-06 OVMax= 8.93D-05

 Cycle   7  Pass 1  IDiag  1:
 RMSU=  8.05D-07    CP:  9.68D-01  9.25D-01  8.61D-01  1.14D+00  1.18D+00
                    CP:  1.14D+00
 E= -174.862060978810     Delta-E=       -0.000000089545 Rises=F Damp=F
 DIIS: error= 2.60D-06 at cycle   7 NSaved=   7.
 NSaved= 7 IEnMin= 7 EnMin= -174.862060978810     IErMin= 7 ErrMin= 2.60D-06
 ErrMax= 2.60D-06  0.00D+00 EMaxC= 1.00D-01 BMatC= 9.82D-10 BMatP= 6.62D-08
 IDIUse=1 WtCom= 1.00D+00 WtEn= 0.00D+00
 Coeff-Com:  0.124D-04 0.244D-03-0.408D-05-0.531D-02-0.113D-01 0.304D-01
 Coeff-Com:  0.986D+00
 Coeff:      0.124D-04 0.244D-03-0.408D-05-0.531D-02-0.113D-01 0.304D-01
 Coeff:      0.986D+00
 Gap=     0.558 Goal=   None    Shift=    0.000
 RMSDP=2.50D-07 MaxDP=1.18D-05 DE=-8.95D-08 OVMax= 2.20D-05

 Cycle   8  Pass 1  IDiag  1:
 RMSU=  1.19D-07    CP:  9.68D-01  9.25D-01  8.61D-01  1.14D+00  1.18D+00
                    CP:  1.18D+00  1.14D+00
 E= -174.862060980671     Delta-E=       -0.000000001862 Rises=F Damp=F
 DIIS: error= 8.78D-07 at cycle   8 NSaved=   8.
 NSaved= 8 IEnMin= 8 EnMin= -174.862060980671     IErMin= 8 ErrMin= 8.78D-07
 ErrMax= 8.78D-07  0.00D+00 EMaxC= 1.00D-01 BMatC= 1.12D-10 BMatP= 9.82D-10
 IDIUse=1 WtCom= 1.00D+00 WtEn= 0.00D+00
 Coeff-Com:  0.236D-05 0.106D-05 0.211D-03 0.165D-02-0.712D-02-0.475D-01
 Coeff-Com:  0.149D+00 0.903D+00
 Coeff:      0.236D-05 0.106D-05 0.211D-03 0.165D-02-0.712D-02-0.475D-01
 Coeff:      0.149D+00 0.903D+00
 Gap=     0.558 Goal=   None    Shift=    0.000
 RMSDP=6.82D-08 MaxDP=4.40D-06 DE=-1.86D-09 OVMax= 6.25D-06

 Cycle   9  Pass 1  IDiag  1:
 RMSU=  2.54D-08    CP:  9.68D-01  9.25D-01  8.61D-01  1.14D+00  1.18D+00
                    CP:  1.19D+00  1.19D+00  1.14D+00
 E= -174.862060980834     Delta-E=       -0.000000000163 Rises=F Damp=F
 DIIS: error= 2.34D-07 at cycle   9 NSaved=   9.
 NSaved= 9 IEnMin= 9 EnMin= -174.862060980834     IErMin= 9 ErrMin= 2.34D-07
 ErrMax= 2.34D-07  0.00D+00 EMaxC= 1.00D-01 BMatC= 1.53D-11 BMatP= 1.12D-10
 IDIUse=1 WtCom= 1.00D+00 WtEn= 0.00D+00
 Coeff-Com: -0.374D-06-0.104D-04 0.732D-04 0.798D-03-0.144D-02-0.161D-01
 Coeff-Com: -0.262D-01 0.288D+00 0.755D+00
 Coeff:     -0.374D-06-0.104D-04 0.732D-04 0.798D-03-0.144D-02-0.161D-01
 Coeff:     -0.262D-01 0.288D+00 0.755D+00
 Gap=     0.558 Goal=   None    Shift=    0.000
 RMSDP=2.14D-08 MaxDP=1.35D-06 DE=-1.63D-10 OVMax= 1.54D-06

 Cycle  10  Pass 1  IDiag  1:
 RMSU=  7.46D-09    CP:  9.68D-01  9.25D-01  8.61D-01  1.14D+00  1.18D+00
                    CP:  1.19D+00  1.20D+00  1.21D+00  1.10D+00
 E= -174.862060980852     Delta-E=       -0.000000000018 Rises=F Damp=F
 DIIS: error= 6.56D-08 at cycle  10 NSaved=  10.
 NSaved=10 IEnMin=10 EnMin= -174.862060980852     IErMin=10 ErrMin= 6.56D-08
 ErrMax= 6.56D-08  0.00D+00 EMaxC= 1.00D-01 BMatC= 3.26D-13 BMatP= 1.53D-11
 IDIUse=1 WtCom= 1.00D+00 WtEn= 0.00D+00
 Coeff-Com: -0.238D-07-0.283D-06-0.179D-04-0.118D-03 0.591D-03 0.340D-02
 Coeff-Com: -0.138D-01-0.572D-01-0.861D-02 0.108D+01
 Coeff:     -0.238D-07-0.283D-06-0.179D-04-0.118D-03 0.591D-03 0.340D-02
 Coeff:     -0.138D-01-0.572D-01-0.861D-02 0.108D+01
 Gap=     0.558 Goal=   None    Shift=    0.000
 RMSDP=7.21D-09 MaxDP=5.16D-07 DE=-1.78D-11 OVMax= 5.87D-07

 SCF Done:  E(RwB97XD) =  -174.862060981     A.U. after   10 cycles
            NFock= 10  Conv=0.72D-08     -V/T= 2.0072
 KE= 1.736172467727D+02 PE=-6.894422569812D+02 EE= 1.946710246511D+02
 Leave Link  502 at Wed Jan  8 11:18:32 2020, MaxMem= 13421772800 cpu:            3068.7 elap:             384.4
 (Enter /opt/software/Gaussian16/bin/avx/g16/l801.exe)
 DoSCS=F DFT=T ScalE2(SS,OS)=  1.000000  1.000000
 Range of M.O.s used for correlation:     1   414
 NBasis=   414 NAE=    17 NBE=    17 NFC=     0 NFV=     0
 NROrb=    414 NOA=    17 NOB=    17 NVA=   397 NVB=   397

 **** Warning!!: The largest alpha MO coefficient is  0.12445700D+03

 Leave Link  801 at Wed Jan  8 11:18:32 2020, MaxMem= 13421772800 cpu:               0.5 elap:               0.1
 (Enter /opt/software/Gaussian16/bin/avx/g16/l1002.exe)
 Minotr:  Closed shell wavefunction.
          Direct CPHF calculation.
          Differentiating once with respect to electric field.
                with respect to dipole field.
          Electric field/nuclear overlap derivatives assumed to be zero.
          Requested convergence is 1.0D-08 RMS, and 1.0D-07 maximum.
          Secondary convergence is 1.0D-12 RMS, and 1.0D-12 maximum.
          NewPWx=F KeepS1=T KeepF1=T KeepIn=T MapXYZ=F SortEE=F KeepMc=T.
         4348 words used for storage of precomputed grid.
 Two-electron integral symmetry not used.
          MDV=   13421772800 using IRadAn=       1.
          Solving linear equations simultaneously, MaxMat=     384.
          There are     3 degrees of freedom in the 1st order CPHF.  IDoFFX=0 NUNeed=     3.
      3 vectors produced by pass  0 Test12= 2.25D-13 3.33D-08 XBig12= 1.43D+01 8.51D-01.
 AX will form     3 AO Fock derivatives at one time.
 FoFJK:  IHMeth= 1 ICntrl=       0 DoSepK=T KAlg= 0 I1Cent=           0 FoldK=F
 IRaf=         1 NMat=       3 IRICut=       1 DoRegI=T DoRafI=F ISym2E= 0 IDoP0=0 IntGTp=1.
 FoFCou: FMM=F IPFlag=           0 FMFlag=      100000 FMFlg1=           0
         NFxFlg=           0 DoJE=T BraDBF=F KetDBF=F FulRan=T
         wScrn=  0.000000 ICntrl=       500 IOpCl=  0 I1Cent=           0 NGrid=           0
         NMat0=    3 NMatS0=      3 NMatT0=    0 NMatD0=    3 NMtDS0=    0 NMtDT0=    0
 Symmetry not used in FoFCou.
      3 vectors produced by pass  1 Test12= 2.25D-13 3.33D-08 XBig12= 9.97D-01 2.91D-01.
      3 vectors produced by pass  2 Test12= 2.25D-13 3.33D-08 XBig12= 1.04D-01 3.71D-02.
      3 vectors produced by pass  3 Test12= 2.25D-13 3.33D-08 XBig12= 1.49D-02 2.37D-02.
      3 vectors produced by pass  4 Test12= 2.25D-13 3.33D-08 XBig12= 1.46D-03 8.09D-03.
      3 vectors produced by pass  5 Test12= 2.25D-13 3.33D-08 XBig12= 1.73D-04 2.76D-03.
      3 vectors produced by pass  6 Test12= 2.25D-13 3.33D-08 XBig12= 8.13D-06 7.41D-04.
      3 vectors produced by pass  7 Test12= 2.25D-13 3.33D-08 XBig12= 1.61D-07 8.14D-05.
      3 vectors produced by pass  8 Test12= 2.25D-13 3.33D-08 XBig12= 4.22D-09 2.01D-05.
      3 vectors produced by pass  9 Test12= 2.25D-13 3.33D-08 XBig12= 9.83D-11 2.14D-06.
      1 vectors produced by pass 10 Test12= 2.25D-13 3.33D-08 XBig12= 1.69D-12 3.05D-07.
 InvSVY:  IOpt=1 It=  1 EMax= 2.59D-16
 Solved reduced A of dimension    31 with     3 vectors.
 FullF1:  Do perturbations      1 to       3.
 SCF Polarizability for W=    0.000000:
                1             2             3 
      1  0.445569D+02
      2 -0.172372D-02  0.445655D+02
      3  0.217708D-02  0.301284D-02  0.382327D+02
 Isotropic polarizability for W=    0.000000       42.45 Bohr**3.
 SCF Static Hyperpolarizability:
 K=  1 block:
                1 
      1  0.201369D+01
 K=  2 block:
                1             2 
      1  0.113259D+02
      2 -0.197136D+01 -0.116007D+02
 K=  3 block:
                1             2             3 
      1 -0.754805D+01
      2 -0.275185D-02 -0.754503D+01
      3  0.296219D-02 -0.197825D-01  0.212582D+02
 End of Minotr F.D. properties file   721 does not exist.
 End of Minotr F.D. properties file   722 does not exist.
 End of Minotr F.D. properties file   788 does not exist.
 Leave Link 1002 at Wed Jan  8 11:35:34 2020, MaxMem= 13421772800 cpu:            8156.5 elap:            1021.6
 (Enter /opt/software/Gaussian16/bin/avx/g16/l601.exe)
 Copying SCF densities to generalized density rwf, IOpCl= 0 IROHF=0.

 **********************************************************************

            Population analysis using the SCF Density.

 **********************************************************************

 Alpha  occ. eigenvalues --  -14.75808 -10.52012 -10.52012 -10.52012  -1.30438
 Alpha  occ. eigenvalues --   -1.03036  -1.03036  -0.95603  -0.84165  -0.78157
 Alpha  occ. eigenvalues --   -0.78157  -0.70002  -0.70002  -0.67515  -0.67210
 Alpha  occ. eigenvalues --   -0.67210  -0.67018
 Alpha virt. eigenvalues --   -0.11250  -0.08124  -0.07099  -0.07099  -0.06247
 Alpha virt. eigenvalues --   -0.04766  -0.04766  -0.03942  -0.03781  -0.03781
 Alpha virt. eigenvalues --   -0.01189  -0.01102  -0.00114  -0.00114   0.00311
 Alpha virt. eigenvalues --    0.00311   0.00389   0.01375   0.01375   0.01403
 Alpha virt. eigenvalues --    0.02307   0.02307   0.02943   0.04235   0.04732
 Alpha virt. eigenvalues --    0.04732   0.06632   0.07056   0.07056   0.07405
 Alpha virt. eigenvalues --    0.07405   0.09793   0.10962   0.10963   0.11856
 Alpha virt. eigenvalues --    0.14166   0.14166   0.16417   0.17403   0.17831
 Alpha virt. eigenvalues --    0.17853   0.17853   0.18968   0.18969   0.20067
 Alpha virt. eigenvalues --    0.20067   0.21037   0.21625   0.21625   0.22298
 Alpha virt. eigenvalues --    0.23044   0.23805   0.23805   0.24667   0.24757
 Alpha virt. eigenvalues --    0.24758   0.26641   0.26641   0.27908   0.28706
 Alpha virt. eigenvalues --    0.28706   0.29190   0.29790   0.30819   0.30820
 Alpha virt. eigenvalues --    0.31294   0.33026   0.33026   0.35062   0.35063
 Alpha virt. eigenvalues --    0.36003   0.37483   0.39253   0.39896   0.39896
 Alpha virt. eigenvalues --    0.40144   0.42926   0.42926   0.44443   0.44443
 Alpha virt. eigenvalues --    0.44938   0.45375   0.45376   0.45909   0.45909
 Alpha virt. eigenvalues --    0.46188   0.52118   0.52471   0.52472   0.55873
 Alpha virt. eigenvalues --    0.56961   0.56962   0.57212   0.58355   0.58356
 Alpha virt. eigenvalues --    0.58543   0.59044   0.59045   0.59822   0.61156
 Alpha virt. eigenvalues --    0.62289   0.62289   0.65935   0.66708   0.66708
 Alpha virt. eigenvalues --    0.67843   0.68265   0.68266   0.70298   0.70298
 Alpha virt. eigenvalues --    0.71476   0.71692   0.71692   0.72485   0.75263
 Alpha virt. eigenvalues --    0.75264   0.78232   0.79238   0.79238   0.80146
 Alpha virt. eigenvalues --    0.83261   0.84588   0.84589   0.85377   0.87011
 Alpha virt. eigenvalues --    0.87881   0.87881   0.90235   0.93907   0.94284
 Alpha virt. eigenvalues --    0.94285   0.94792   0.94792   0.97075   0.97077
 Alpha virt. eigenvalues --    0.97880   0.98275   0.98277   1.01307   1.02053
 Alpha virt. eigenvalues --    1.02053   1.03256   1.04686   1.04686   1.10013
 Alpha virt. eigenvalues --    1.10014   1.11013   1.13035   1.13035   1.13537
 Alpha virt. eigenvalues --    1.13538   1.13575   1.15476   1.15477   1.16515
 Alpha virt. eigenvalues --    1.19270   1.21025   1.21603   1.21605   1.23464
 Alpha virt. eigenvalues --    1.23466   1.24824   1.24824   1.26933   1.27523
 Alpha virt. eigenvalues --    1.28455   1.31369   1.31371   1.33063   1.33064
 Alpha virt. eigenvalues --    1.33976   1.34499   1.34500   1.37518   1.38619
 Alpha virt. eigenvalues --    1.38735   1.38736   1.42653   1.42654   1.43075
 Alpha virt. eigenvalues --    1.43075   1.45192   1.45491   1.49330   1.51508
 Alpha virt. eigenvalues --    1.51509   1.52882   1.53253   1.53254   1.58253
 Alpha virt. eigenvalues --    1.58253   1.58925   1.62090   1.62091   1.64260
 Alpha virt. eigenvalues --    1.64262   1.66224   1.66426   1.67370   1.69873
 Alpha virt. eigenvalues --    1.69873   1.70877   1.76354   1.76356   1.77086
 Alpha virt. eigenvalues --    1.80168   1.80170   1.81678   1.81678   1.83916
 Alpha virt. eigenvalues --    1.86007   1.86010   1.89373   1.90403   1.93269
 Alpha virt. eigenvalues --    1.94250   1.94251   1.96679   1.96681   1.97213
 Alpha virt. eigenvalues --    2.01514   2.01514   2.02011   2.08842   2.08843
 Alpha virt. eigenvalues --    2.10635   2.10637   2.16941   2.16942   2.20548
 Alpha virt. eigenvalues --    2.21604   2.21604   2.22847   2.25472   2.25474
 Alpha virt. eigenvalues --    2.28351   2.38047   2.46717   2.46718   2.59043
 Alpha virt. eigenvalues --    2.59045   2.69656   2.71289   2.91961   2.93255
 Alpha virt. eigenvalues --    2.93256   3.01511   3.01513   3.06260   3.09612
 Alpha virt. eigenvalues --    3.13724   3.13724   3.16491   3.16491   3.17614
 Alpha virt. eigenvalues --    3.21151   3.21151   3.22728   3.26155   3.26328
 Alpha virt. eigenvalues --    3.26328   3.31689   3.31733   3.31735   3.37788
 Alpha virt. eigenvalues --    3.37791   3.41000   3.41358   3.41359   3.44688
 Alpha virt. eigenvalues --    3.44913   3.44913   3.46175   3.48126   3.48127
 Alpha virt. eigenvalues --    3.51415   3.51416   3.53888   3.54911   3.55731
 Alpha virt. eigenvalues --    3.55733   3.59565   3.69288   3.69289   3.69330
 Alpha virt. eigenvalues --    3.72263   3.73286   3.73287   3.74804   3.77886
 Alpha virt. eigenvalues --    3.77887   3.79593   3.80822   3.81309   3.81309
 Alpha virt. eigenvalues --    3.82508   3.82509   3.92294   3.94659   3.94660
 Alpha virt. eigenvalues --    3.98140   3.98142   3.99023   4.06792   4.06794
 Alpha virt. eigenvalues --    4.17257   4.17582   4.17584   4.18320   4.21978
 Alpha virt. eigenvalues --    4.21980   4.23151   4.29739   4.29739   4.31836
 Alpha virt. eigenvalues --    4.35697   4.35722   4.35723   4.38754   4.38755
 Alpha virt. eigenvalues --    4.39098   4.40951   4.40952   4.45635   4.45637
 Alpha virt. eigenvalues --    4.46120   4.52223   4.52612   4.52615   4.55311
 Alpha virt. eigenvalues --    4.60486   4.68164   4.70460   4.70461   4.77486
 Alpha virt. eigenvalues --    4.77928   4.77930   4.82225   4.82825   4.82828
 Alpha virt. eigenvalues --    4.89197   4.89198   4.92729   4.92730   4.95825
 Alpha virt. eigenvalues --    4.95828   4.99200   4.99202   5.01463   5.03772
 Alpha virt. eigenvalues --    5.04966   5.07295   5.09310   5.09311   5.13892
 Alpha virt. eigenvalues --    5.21733   5.22945   5.22947   5.24915   5.24919
 Alpha virt. eigenvalues --    5.38735   5.38738   5.39600   5.44137   5.52043
 Alpha virt. eigenvalues --    5.52048   5.55534   5.55535   5.64173   5.64178
 Alpha virt. eigenvalues --    5.64644   5.65935   5.70110   5.70112   5.82690
 Alpha virt. eigenvalues --    5.83160   5.83162   5.93281   5.94966   5.94969
 Alpha virt. eigenvalues --    6.12543   6.12979   6.12982   6.28493   6.28494
 Alpha virt. eigenvalues --    6.28570   6.33579   6.33580   6.41813   6.42918
 Alpha virt. eigenvalues --    6.42919   6.53608   7.15029  16.61008  17.44115
 Alpha virt. eigenvalues --   17.44127  18.22894
          Condensed to atoms (all electrons):
               1          2          3          4          5          6
     1  N    5.821314   0.324602   0.324602   0.324574   0.055972  -0.042622
     2  C    0.324602   5.413037  -0.037175  -0.037150  -0.067553   0.350807
     3  C    0.324602  -0.037175   5.412982  -0.037178  -0.067548  -0.003708
     4  C    0.324574  -0.037150  -0.037178   5.412957  -0.067531  -0.003769
     5  H    0.055972  -0.067553  -0.067548  -0.067531   1.087726   0.011594
     6  H   -0.042622   0.350807  -0.003708  -0.003769   0.011594   0.336765
     7  H   -0.025177   0.378636   0.000764  -0.003348   0.005877   0.008404
     8  H   -0.025479   0.378512  -0.003354   0.000699   0.006176   0.008456
     9  H   -0.042644  -0.003766   0.350798  -0.003700   0.011595   0.002941
    10  H   -0.025167  -0.003351   0.378613   0.000763   0.005880   0.000362
    11  H   -0.025482   0.000708   0.378559  -0.003356   0.006165   0.000994
    12  H   -0.025159   0.000759  -0.003357   0.378711   0.005876   0.000977
    13  H   -0.025464  -0.003349   0.000702   0.378460   0.006166   0.000369
    14  H   -0.042619  -0.003702  -0.003769   0.350813   0.011589   0.002941
               7          8          9         10         11         12
     1  N   -0.025177  -0.025479  -0.042644  -0.025167  -0.025482  -0.025159
     2  C    0.378636   0.378512  -0.003766  -0.003351   0.000708   0.000759
     3  C    0.000764  -0.003354   0.350798   0.378613   0.378559  -0.003357
     4  C   -0.003348   0.000699  -0.003700   0.000763  -0.003356   0.378711
     5  H    0.005877   0.006176   0.011595   0.005880   0.006165   0.005876
     6  H    0.008404   0.008456   0.002941   0.000362   0.000994   0.000977
     7  H    0.352916  -0.000381   0.000978   0.000602  -0.000411   0.000601
     8  H   -0.000381   0.352828   0.000370   0.000316   0.000605  -0.000410
     9  H    0.000978   0.000370   0.336778   0.008404   0.008453   0.000362
    10  H    0.000602   0.000316   0.008404   0.352880  -0.000388   0.000602
    11  H   -0.000411   0.000605   0.008453  -0.000388   0.352940   0.000315
    12  H    0.000601  -0.000410   0.000362   0.000602   0.000315   0.353015
    13  H    0.000317   0.000605   0.000995  -0.000410   0.000605  -0.000390
    14  H    0.000362   0.000995   0.002940   0.000978   0.000369   0.008399
              13         14
     1  N   -0.025464  -0.042619
     2  C   -0.003349  -0.003702
     3  C    0.000702  -0.003769
     4  C    0.378460   0.350813
     5  H    0.006166   0.011589
     6  H    0.000369   0.002941
     7  H    0.000317   0.000362
     8  H    0.000605   0.000995
     9  H    0.000995   0.002940
    10  H   -0.000410   0.000978
    11  H    0.000605   0.000369
    12  H   -0.000390   0.008399
    13  H    0.352754   0.008460
    14  H    0.008460   0.336745
 Mulliken charges:
               1
     1  N    0.428751
     2  C   -0.691013
     3  C   -0.690932
     4  C   -0.690945
     5  H   -0.011984
     6  H    0.325490
     7  H    0.279860
     8  H    0.280062
     9  H    0.325495
    10  H    0.279916
    11  H    0.279923
    12  H    0.279699
    13  H    0.280180
    14  H    0.325499
 Sum of Mulliken charges =   1.00000
 Mulliken charges with hydrogens summed into heavy atoms:
               1
     1  N    0.416766
     2  C    0.194398
     3  C    0.194402
     4  C    0.194433
 Electronic spatial extent (au):  <R**2>=            322.0523
 Charge=              1.0000 electrons
 Dipole moment (field-independent basis, Debye):
    X=              0.0000    Y=              0.0000    Z=             -0.8707  Tot=              0.8707
 Quadrupole moment (field-independent basis, Debye-Ang):
   XX=            -19.0076   YY=            -19.0077   ZZ=            -21.4626
   XY=             -0.0000   XZ=             -0.0000   YZ=             -0.0001
 Traceless Quadrupole moment (field-independent basis, Debye-Ang):
   XX=              0.8183   YY=              0.8182   ZZ=             -1.6366
   XY=             -0.0000   XZ=             -0.0000   YZ=             -0.0001
 Octapole moment (field-independent basis, Debye-Ang**2):
  XXX=             -0.3417  YYY=              1.9866  ZZZ=             -1.7345  XYY=              0.3413
  XXY=             -1.9872  XXZ=             -1.1759  XZZ=              0.0003  YZZ=              0.0003
  YYZ=             -1.1758  XYZ=             -0.0001
 Hexadecapole moment (field-independent basis, Debye-Ang**3):
 XXXX=           -155.0134 YYYY=           -155.0111 ZZZZ=            -40.7845 XXXY=             -0.0004
 XXXZ=             -0.4579 YYYX=              0.0001 YYYZ=              2.5770 ZZZX=              0.0002
 ZZZY=              0.0000 XXYY=            -51.6705 XXZZ=            -37.0771 YYZZ=            -37.0781
 XXYZ=             -2.5778 YYXZ=              0.4575 ZZXY=              0.0003
 N-N= 1.462919245765D+02 E-N=-6.894422562226D+02  KE= 1.736172467727D+02
  Exact polarizability:      44.557      -0.002      44.565       0.002       0.003      38.233
 Approx polarizability:      44.979      -0.000      44.979       0.000      -0.000      43.662
 No NMR shielding tensors so no spin-rotation constants.
 Leave Link  601 at Wed Jan  8 11:35:34 2020, MaxMem= 13421772800 cpu:               3.0 elap:               0.4
 (Enter /opt/software/Gaussian16/bin/avx/g16/l9999.exe)

 ----------------------------------------------------------------------

 Electric dipole moment (input orientation):
 (Debye = 10**-18 statcoulomb cm , SI units = C m)
                  (au)            (Debye)         (10**-30 SI)
   Tot        0.342540D+00      0.870650D+00      0.290418D+01
   x          0.000000D+00      0.000000D+00      0.000000D+00
   y          0.162667D-04      0.413458D-04      0.137915D-03
   z         -0.342540D+00     -0.870650D+00     -0.290418D+01

 Dipole polarizability, Alpha (input orientation).
 (esu units = cm**3 , SI units = C**2 m**2 J**-1)
 Alpha(0;0):
               (au)            (10**-24 esu)      (10**-40 SI)
   iso        0.424517D+02      0.629069D+01      0.699934D+01
   aniso      0.632853D+01      0.937791D+00      0.104343D+01
   xx         0.445569D+02      0.660266D+01      0.734644D+01
   yx        -0.172372D-02     -0.255429D-03     -0.284203D-03
   yy         0.445655D+02      0.660392D+01      0.734785D+01
   zx         0.217708D-02      0.322610D-03      0.358952D-03
   zy         0.301284D-02      0.446456D-03      0.496749D-03
   zz         0.382327D+02      0.566550D+01      0.630372D+01

 First dipole hyperpolarizability, Beta (input orientation).
 ||, _|_  parallel and perpendicular components, (z) with respect to z axis,
 vector components x,y,z.  Values do not include the 1/n! factor of 1/2.
 (esu units = statvolt**-1 cm**4 , SI units = C**3 m**3 J**-2)
 Beta(0;0,0):
               (au)            (10**-30 esu)      (10**-50 SI)
   || (z)     0.369908D+01      0.319572D-01      0.118606D-01
   _|_(z)     0.123303D+01      0.106524D-01      0.395353D-02
   x          0.135881D+00      0.117390D-02      0.435682D-03
   y         -0.883975D+00     -0.763686D-02     -0.283434D-02
   z          0.184954D+02      0.159786D+00      0.593029D-01
   ||         0.370340D+01      0.319945D-01      0.118744D-01
   xxx        0.201369D+01      0.173967D-01      0.645663D-02
   xxy        0.113259D+02      0.978466D-01      0.363148D-01
   yxy       -0.197136D+01     -0.170310D-01     -0.632090D-02
   yyy       -0.116007D+02     -0.100221D+00     -0.371961D-01
   xxz       -0.754805D+01     -0.652093D-01     -0.242018D-01
   yxz       -0.275185D-02     -0.237738D-04     -0.882342D-05
   yyz       -0.754503D+01     -0.651832D-01     -0.241921D-01
   zxz        0.296219D-02      0.255911D-04      0.949787D-05
   zyz       -0.197825D-01     -0.170905D-03     -0.634298D-04
   zzz        0.212582D+02      0.183654D+00      0.681615D-01

 ----------------------------------------------------------------------

 Dipole orientation:
     7         -0.00002030          0.00005727          0.64879400
     6          2.26263377          1.48543254         -0.19716974
     6         -2.41774919          1.21674750         -0.19716523
     6          0.15513371         -2.70224213         -0.19698111
     1         -0.00000562          0.00010988          2.59247369
     1          2.28682294          1.49731749         -2.25654465
     1          2.10551281          3.40630554          0.52771134
     1          3.96218572          0.58104052          0.53322580
     1         -2.44031940          1.23135933         -2.25654605
     1         -4.00264706          0.12037606          0.52805824
     1         -2.48425779          3.14094855          0.53285027
     1          1.89707412         -3.52653835          0.52830279
     1         -1.47805044         -3.72179218          0.53315379
     1          0.15371899         -2.72915514         -2.25635235

 Electric dipole moment (dipole orientation):
 (Debye = 10**-18 statcoulomb cm , SI units = C m)
                  (au)            (Debye)         (10**-30 SI)
   Tot        0.342540D+00      0.870650D+00      0.290418D+01
   x          0.000000D+00      0.000000D+00      0.000000D+00
   y          0.000000D+00      0.000000D+00      0.000000D+00
   z          0.342540D+00      0.870650D+00      0.290418D+01

 Dipole polarizability, Alpha (dipole orientation).
 (esu units = cm**3 , SI units = C**2 m**2 J**-1)
 Alpha(0;0):
               (au)            (10**-24 esu)      (10**-40 SI)
   iso        0.424517D+02      0.629069D+01      0.699934D+01
   aniso      0.632853D+01      0.937791D+00      0.104343D+01
   xx         0.445569D+02      0.660266D+01      0.734644D+01
   yx         0.172361D-02      0.255413D-03      0.284185D-03
   yy         0.445655D+02      0.660392D+01      0.734785D+01
   zx        -0.216346D-02     -0.320591D-03     -0.356706D-03
   zy         0.271210D-02      0.401892D-03      0.447166D-03
   zz         0.382327D+02      0.566550D+01      0.630372D+01

 First dipole hyperpolarizability, Beta (dipole orientation).
 ||, _|_  parallel and perpendicular components, (z) with respect to z axis,
 vector components x,y,z.  Values do not include the 1/n! factor of 1/2.
 (esu units = statvolt**-1 cm**4 , SI units = C**3 m**3 J**-2)
 Beta(0;0,0):
               (au)            (10**-30 esu)      (10**-50 SI)
   || (z)    -0.369909D+01     -0.319572D-01     -0.118606D-01
   _|_(z)    -0.123303D+01     -0.106524D-01     -0.395354D-02
   x          0.135921D+00      0.117425D-02      0.435811D-03
   y          0.883097D+00      0.762927D-02      0.283153D-02
   z         -0.184954D+02     -0.159786D+00     -0.593031D-01
   ||         0.370340D+01      0.319945D-01      0.118744D-01
   xxx        0.201364D+01      0.173963D-01      0.645647D-02
   xxy       -0.113255D+02     -0.978435D-01     -0.363136D-01
   yxy       -0.197138D+01     -0.170312D-01     -0.632095D-02
   yyy        0.116018D+02      0.100231D+00      0.371996D-01
   xxz        0.754859D+01      0.652140D-01      0.242035D-01
   yxz       -0.268267D-02     -0.231762D-04     -0.860161D-05
   yyz        0.754447D+01      0.651784D-01      0.241903D-01
   zxz        0.304122D-02      0.262738D-04      0.975126D-05
   zyz        0.180564D-01      0.155993D-03      0.578953D-04
   zzz       -0.212582D+02     -0.183654D+00     -0.681615D-01

 ----------------------------------------------------------------------
 Unable to Open any file for archive entry.
 1\1\GINC-NODE144\SP\RwB97XD\Aug-CC-pVTZ\C3H10N1(1+)\LIUCHW\08-Jan-2020
 \0\\#p wB97XD/aug-cc-pvtz NoSymm MaxDisk=100GB polar\\polar\\1,1\N,0,-
 0.00001,-0.000014,-0.343327\C,0,1.197334,-0.786062,0.104303\C,0,-1.279
 418,-0.64388,0.104302\C,0,0.082093,1.42996,0.104306\H,0,0.,0.000007,-1
 .371878\H,0,1.210132,-0.792403,1.194077\H,0,1.11419,-1.802526,-0.27933
 6\H,0,2.096699,-0.30746,-0.282181\H,0,-1.291364,-0.651664,1.194079\H,0
 ,-2.118109,-0.063687,-0.279444\H,0,-1.314612,-1.662105,-0.282054\H,0,1
 .003889,1.866177,-0.279475\H,0,-0.78215,1.969501,-0.282041\H,0,0.08134
 2,1.44415,1.194079\\Version=ES64L-G16RevC.01\HF=-174.862061\RMSD=7.206
 e-09\Dipole=0.0000007,0.0000163,-0.3425403\Polar=44.5569246,-0.0017237
 ,44.5654747,0.0021771,0.0030128,38.2326798\HyperPolar=2.0136927,11.325
 8576,-1.9713613,-11.6007335,-7.5480516,-0.0027518,-7.5450269,0.0029622
 ,-0.0197825,21.2582116\Quadrupole=0.6084184,0.6083394,-1.2167578,-0.00
 0002,-0.0000097,-0.0000639\PG=C01 [X(C3H10N1)]\\@
 The archive entry for this job was punched.


 Cherishing children is the mark of a civilized society.
 -- Joan Ganz Cooney
 Job cpu time:       0 days  3 hours  8 minutes  3.8 seconds.
 Elapsed time:       0 days  0 hours 23 minutes 33.8 seconds.
 File lengths (MBytes):  RWF=     92 Int=      0 D2E=      0 Chk=     12 Scr=      1
 Normal termination of Gaussian 16 at Wed Jan  8 11:35:34 2020.
