 Entering Gaussian System, Link 0=g16
 Input=61_Ethanethiol.com
 Output=61_Ethanethiol.out
 Initial command:
 /opt/software/Gaussian16/bin/avx/g16/l1.exe "/scratch/liuchw/Gau-42947.inp" -scrdir="/scratch/liuchw/"
 Entering Link 1 = /opt/software/Gaussian16/bin/avx/g16/l1.exe PID=     42948.
  
 Copyright (c) 1988-2019, Gaussian, Inc.  All Rights Reserved.
  
 This is part of the Gaussian(R) 16 program.  It is based on
 the Gaussian(R) 09 system (copyright 2009, Gaussian, Inc.),
 the Gaussian(R) 03 system (copyright 2003, Gaussian, Inc.),
 the Gaussian(R) 98 system (copyright 1998, Gaussian, Inc.),
 the Gaussian(R) 94 system (copyright 1995, Gaussian, Inc.),
 the Gaussian 92(TM) system (copyright 1992, Gaussian, Inc.),
 the Gaussian 90(TM) system (copyright 1990, Gaussian, Inc.),
 the Gaussian 88(TM) system (copyright 1988, Gaussian, Inc.),
 the Gaussian 86(TM) system (copyright 1986, Carnegie Mellon
 University), and the Gaussian 82(TM) system (copyright 1983,
 Carnegie Mellon University). Gaussian is a federally registered
 trademark of Gaussian, Inc.
  
 This software contains proprietary and confidential information,
 including trade secrets, belonging to Gaussian, Inc.
  
 This software is provided under written license and may be
 used, copied, transmitted, or stored only in accord with that
 written license.
  
 The following legend is applicable only to US Government
 contracts under FAR:
  
                    RESTRICTED RIGHTS LEGEND
  
 Use, reproduction and disclosure by the US Government is
 subject to restrictions as set forth in subparagraphs (a)
 and (c) of the Commercial Computer Software - Restricted
 Rights clause in FAR 52.227-19.
  
 Gaussian, Inc.
 340 Quinnipiac St., Bldg. 40, Wallingford CT 06492
  
  
 ---------------------------------------------------------------
 Warning -- This program may not be used in any manner that
 competes with the business of Gaussian, Inc. or will provide
 assistance to any competitor of Gaussian, Inc.  The licensee
 of this program is prohibited from giving any competitor of
 Gaussian, Inc. access to this program.  By using this program,
 the user acknowledges that Gaussian, Inc. is engaged in the
 business of creating and licensing software in the field of
 computational chemistry and represents and warrants to the
 licensee that it is not a competitor of Gaussian, Inc. and that
 it will not use this program in any manner prohibited above.
 ---------------------------------------------------------------
  

 Cite this work as:
 Gaussian 16, Revision C.01,
 M. J. Frisch, G. W. Trucks, H. B. Schlegel, G. E. Scuseria, 
 M. A. Robb, J. R. Cheeseman, G. Scalmani, V. Barone, 
 G. A. Petersson, H. Nakatsuji, X. Li, M. Caricato, A. V. Marenich, 
 J. Bloino, B. G. Janesko, R. Gomperts, B. Mennucci, H. P. Hratchian, 
 J. V. Ortiz, A. F. Izmaylov, J. L. Sonnenberg, D. Williams-Young, 
 F. Ding, F. Lipparini, F. Egidi, J. Goings, B. Peng, A. Petrone, 
 T. Henderson, D. Ranasinghe, V. G. Zakrzewski, J. Gao, N. Rega, 
 G. Zheng, W. Liang, M. Hada, M. Ehara, K. Toyota, R. Fukuda, 
 J. Hasegawa, M. Ishida, T. Nakajima, Y. Honda, O. Kitao, H. Nakai, 
 T. Vreven, K. Throssell, J. A. Montgomery, Jr., J. E. Peralta, 
 F. Ogliaro, M. J. Bearpark, J. J. Heyd, E. N. Brothers, K. N. Kudin, 
 V. N. Staroverov, T. A. Keith, R. Kobayashi, J. Normand, 
 K. Raghavachari, A. P. Rendell, J. C. Burant, S. S. Iyengar, 
 J. Tomasi, M. Cossi, J. M. Millam, M. Klene, C. Adamo, R. Cammi, 
 J. W. Ochterski, R. L. Martin, K. Morokuma, O. Farkas, 
 J. B. Foresman, and D. J. Fox, Gaussian, Inc., Wallingford CT, 2019.
 
 ******************************************
 Gaussian 16:  ES64L-G16RevC.01  3-Jul-2019
                 8-Jan-2020 
 ******************************************
 %chk=61_Ethanethiol.chk
 %nproc=8
 Will use up to    8 processors via shared memory.
 %Mem=100GB
 ------------------------------------------------
 #p wB97XD/aug-cc-pvtz NoSymm MaxDisk=100GB polar
 ------------------------------------------------
 1/38=1,172=1/1;
 2/12=2,15=1,17=6,18=5,40=1/2;
 3/5=16,6=1,7=10,11=2,25=1,30=1,74=-58/1,2,3;
 4//1;
 5/5=2,38=5,98=1/2;
 8/6=4,10=90,11=11/1;
 10/6=1,13=10,31=1/2;
 6/7=2,8=2,9=2,10=2,28=1/1;
 99/5=1,9=1/99;
 Leave Link    1 at Wed Jan  8 11:14:00 2020, MaxMem= 13421772800 cpu:               0.5 elap:               0.1
 (Enter /opt/software/Gaussian16/bin/avx/g16/l101.exe)
 -----
 polar
 -----
 Symbolic Z-matrix:
 Charge =  0 Multiplicity = 1
 C                     0.49242   0.64622   0.09058 
 C                     1.63275  -0.35145  -0.05413 
 S                    -1.16085  -0.09925  -0.07819 
 H                     0.55552   1.17774   1.04346 
 H                     0.54116   1.39882  -0.70104 
 H                     2.59712   0.16212   0.01284 
 H                    -1.04548  -0.94713   0.95542 
 H                     1.57726  -0.86659  -1.01555 
 H                     1.59695  -1.10552   0.73726 
 
 ITRead=  0  0  0  0  0  0  0  0  0
 MicOpt= -1 -1 -1 -1 -1 -1 -1 -1 -1
 NAtoms=      9 NQM=        9 NQMF=       0 NMMI=      0 NMMIF=      0
                NMic=       0 NMicF=      0.
                    Isotopes and Nuclear Properties:
 (Nuclear quadrupole moments (NQMom) in fm**2, nuclear magnetic moments (NMagM)
  in nuclear magnetons)

  Atom         1           2           3           4           5           6           7           8           9
 IAtWgt=          12          12          32           1           1           1           1           1           1
 AtmWgt=  12.0000000  12.0000000  31.9720718   1.0078250   1.0078250   1.0078250   1.0078250   1.0078250   1.0078250
 NucSpn=           0           0           0           1           1           1           1           1           1
 AtZEff=  -0.0000000  -0.0000000  -0.0000000  -0.0000000  -0.0000000  -0.0000000  -0.0000000  -0.0000000  -0.0000000
 NQMom=    0.0000000   0.0000000   0.0000000   0.0000000   0.0000000   0.0000000   0.0000000   0.0000000   0.0000000
 NMagM=    0.0000000   0.0000000   0.0000000   2.7928460   2.7928460   2.7928460   2.7928460   2.7928460   2.7928460
 AtZNuc=   6.0000000   6.0000000  16.0000000   1.0000000   1.0000000   1.0000000   1.0000000   1.0000000   1.0000000
 Leave Link  101 at Wed Jan  8 11:14:00 2020, MaxMem= 13421772800 cpu:               1.0 elap:               0.1
 (Enter /opt/software/Gaussian16/bin/avx/g16/l202.exe)
                          Input orientation:                          
 ---------------------------------------------------------------------
 Center     Atomic      Atomic             Coordinates (Angstroms)
 Number     Number       Type             X           Y           Z
 ---------------------------------------------------------------------
      1          6           0        0.492420    0.646216    0.090578
      2          6           0        1.632748   -0.351447   -0.054129
      3         16           0       -1.160846   -0.099253   -0.078193
      4          1           0        0.555523    1.177741    1.043458
      5          1           0        0.541158    1.398816   -0.701036
      6          1           0        2.597119    0.162119    0.012837
      7          1           0       -1.045479   -0.947133    0.955419
      8          1           0        1.577258   -0.866587   -1.015550
      9          1           0        1.596948   -1.105521    0.737256
 ---------------------------------------------------------------------
                    Distance matrix (angstroms):
                    1          2          3          4          5
     1  C    0.000000
     2  C    1.522045   0.000000
     3  S    1.821400   2.805058   0.000000
     4  H    1.092923   2.168762   2.415520   0.000000
     5  H    1.093359   2.161823   2.351374   1.758505   0.000000
     6  H    2.161053   1.094644   3.768143   2.502355   2.503200
     7  H    2.377361   2.923513   1.341851   2.661963   3.280966
     8  H    2.165402   1.092144   2.994103   3.076156   2.510871
     9  H    2.169506   1.093709   3.046795   2.528164   3.074911
                    6          7          8          9
     6  H    0.000000
     7  H    3.922680   0.000000
     8  H    1.776494   3.281761   0.000000
     9  H    1.769756   2.656144   1.769126   0.000000
 Symmetry turned off by external request.
 Stoichiometry    C2H6S
 Framework group  C1[X(C2H6S)]
 Deg. of freedom    21
 Full point group                 C1      NOp   1
 Rotational constants (GHZ):          28.8884998           5.2969191           4.8507965
 Leave Link  202 at Wed Jan  8 11:14:00 2020, MaxMem= 13421772800 cpu:               0.1 elap:               0.0
 (Enter /opt/software/Gaussian16/bin/avx/g16/l301.exe)
 Standard basis: Aug-CC-pVTZ (5D, 7F)
 Ernie: Thresh=  0.10000D-02 Tol=  0.10000D-05 Strict=F.
 Ernie:  19 primitive shells out of 190 were deleted.
   280 basis functions,   420 primitive gaussians,   319 cartesian basis functions
    17 alpha electrons       17 beta electrons
       nuclear repulsion energy       107.3000618628 Hartrees.
 IExCor= 4639 DFT=T Ex+Corr=wB97XD ExCW=0 ScaHFX=  1.000000
 ScaDFX=  1.000000  1.000000  1.000000  1.000000 ScalE2=  1.000000  1.000000
 IRadAn=      5 IRanWt=     -1 IRanGd=            0 ICorTp=0 IEmpDi=121
 HFx  wShort=  0.000000 wLong=  0.200000 cFull=  0.222036 cShort=  0.000000 cLong=  0.777964
 DFx  wShort=  0.000000 wLong=  0.200000 cFull=  0.000000 cShort=  0.000000 cLong=  1.000000
 NAtoms=    9 NActive=    9 NUniq=    9 SFac= 1.00D+00 NAtFMM=   60 NAOKFM=F Big=F
 Integral buffers will be    131072 words long.
 Raffenetti 2 integral format.
 Two-electron integral symmetry is turned off.
 R6Disp:  Grimme-D2 Dispersion energy=       -0.0026761538 Hartrees.
 Nuclear repulsion after empirical dispersion term =      107.2973857091 Hartrees.
 Leave Link  301 at Wed Jan  8 11:14:00 2020, MaxMem= 13421772800 cpu:               0.5 elap:               0.1
 (Enter /opt/software/Gaussian16/bin/avx/g16/l302.exe)
 NPDir=0 NMtPBC=     1 NCelOv=     1 NCel=       1 NClECP=     1 NCelD=      1
         NCelK=      1 NCelE2=     1 NClLst=     1 CellRange=     0.0.
 One-electron integrals computed using PRISM.
 NBasis=   280 RedAO= T EigKep=  2.58D-05  NBF=   280
 NBsUse=   280 1.00D-06 EigRej= -1.00D+00 NBFU=   280
 Precomputing XC quadrature grid using
 IXCGrd= 4 IRadAn=           5 IRanWt=          -1 IRanGd=           0 AccXCQ= 0.00D+00.
 Generated NRdTot=       0 NPtTot=           0 NUsed=           0 NTot=          32
 NSgBfM=   319   319   319   319   319 MxSgAt=     9 MxSgA2=     9.
 Leave Link  302 at Wed Jan  8 11:14:01 2020, MaxMem= 13421772800 cpu:               2.4 elap:               0.3
 (Enter /opt/software/Gaussian16/bin/avx/g16/l303.exe)
 DipDrv:  MaxL=1.
 Leave Link  303 at Wed Jan  8 11:14:01 2020, MaxMem= 13421772800 cpu:               0.3 elap:               0.1
 (Enter /opt/software/Gaussian16/bin/avx/g16/l401.exe)
 ExpMin= 2.53D-02 ExpMax= 3.74D+05 ExpMxC= 1.18D+03 IAcc=3 IRadAn=         5 AccDes= 0.00D+00
 Harris functional with IExCor= 4639 and IRadAn=       5 diagonalized for initial guess.
 HarFok:  IExCor= 4639 AccDes= 0.00D+00 IRadAn=         5 IDoV= 1 UseB2=F ITyADJ=14
 ICtDFT=  3500011 ScaDFX=  1.000000  1.000000  1.000000  1.000000
 FoFCou: FMM=F IPFlag=           0 FMFlag=      100000 FMFlg1=           0
         NFxFlg=           0 DoJE=T BraDBF=F KetDBF=T FulRan=T
         wScrn=  0.000000 ICntrl=       500 IOpCl=  0 I1Cent=   200000004 NGrid=           0
         NMat0=    1 NMatS0=      1 NMatT0=    0 NMatD0=    1 NMtDS0=    0 NMtDT0=    0
 Symmetry not used in FoFCou.
 Harris En= -466.904173158677    
 JPrj=0 DoOrth=F DoCkMO=F.
 Leave Link  401 at Wed Jan  8 11:14:02 2020, MaxMem= 13421772800 cpu:              12.4 elap:               1.6
 (Enter /opt/software/Gaussian16/bin/avx/g16/l502.exe)
 Keep R1 ints in memory in canonical form, NReq=1575153555.
 FoFCou: FMM=F IPFlag=           0 FMFlag=           0 FMFlg1=           0
         NFxFlg=           0 DoJE=F BraDBF=F KetDBF=F FulRan=T
         wScrn=  0.000000 ICntrl=       600 IOpCl=  0 I1Cent=           0 NGrid=           0
         NMat0=    1 NMatS0=  39340 NMatT0=    0 NMatD0=    1 NMtDS0=    0 NMtDT0=    0
 Symmetry not used in FoFCou.
 Two-electron integral symmetry not used.
 Closed shell SCF:
 Using DIIS extrapolation, IDIIS=  1040.
 NGot= 13421772800 LenX= 11873889539 LenY= 11873787337
 Requested convergence on RMS density matrix=1.00D-08 within 128 cycles.
 Requested convergence on MAX density matrix=1.00D-06.
 Requested convergence on             energy=1.00D-06.
 No special actions if energy rises.

 Cycle   1  Pass 1  IDiag  1:
 E= -477.911248254439    
 DIIS: error= 3.08D-02 at cycle   1 NSaved=   1.
 NSaved= 1 IEnMin= 1 EnMin= -477.911248254439     IErMin= 1 ErrMin= 3.08D-02
 ErrMax= 3.08D-02  0.00D+00 EMaxC= 1.00D-01 BMatC= 4.67D-01 BMatP= 4.67D-01
 IDIUse=3 WtCom= 6.92D-01 WtEn= 3.08D-01
 Coeff-Com:  0.100D+01
 Coeff-En:   0.100D+01
 Coeff:      0.100D+01
 Gap=     0.430 Goal=   None    Shift=    0.000
 GapD=    0.430 DampG=2.000 DampE=0.500 DampFc=1.0000 IDamp=-1.
 RMSDP=3.45D-03 MaxDP=3.29D-01              OVMax= 1.18D-01

 Cycle   2  Pass 1  IDiag  1:
 E= -477.990895551492     Delta-E=       -0.079647297053 Rises=F Damp=F
 DIIS: error= 1.06D-02 at cycle   2 NSaved=   2.
 NSaved= 2 IEnMin= 2 EnMin= -477.990895551492     IErMin= 2 ErrMin= 1.06D-02
 ErrMax= 1.06D-02  0.00D+00 EMaxC= 1.00D-01 BMatC= 6.70D-02 BMatP= 4.67D-01
 IDIUse=3 WtCom= 8.94D-01 WtEn= 1.06D-01
 Coeff-Com:  0.246D+00 0.754D+00
 Coeff-En:   0.133D+00 0.867D+00
 Coeff:      0.234D+00 0.766D+00
 Gap=     0.414 Goal=   None    Shift=    0.000
 RMSDP=1.10D-03 MaxDP=8.91D-02 DE=-7.96D-02 OVMax= 7.61D-02

 Cycle   3  Pass 1  IDiag  1:
 E= -478.030588922982     Delta-E=       -0.039693371490 Rises=F Damp=F
 DIIS: error= 3.89D-03 at cycle   3 NSaved=   3.
 NSaved= 3 IEnMin= 3 EnMin= -478.030588922982     IErMin= 3 ErrMin= 3.89D-03
 ErrMax= 3.89D-03  0.00D+00 EMaxC= 1.00D-01 BMatC= 7.40D-03 BMatP= 6.70D-02
 IDIUse=3 WtCom= 9.61D-01 WtEn= 3.89D-02
 Coeff-Com:  0.406D-01 0.282D+00 0.678D+00
 Coeff-En:   0.000D+00 0.000D+00 0.100D+01
 Coeff:      0.390D-01 0.271D+00 0.690D+00
 Gap=     0.351 Goal=   None    Shift=    0.000
 RMSDP=2.65D-04 MaxDP=1.55D-02 DE=-3.97D-02 OVMax= 2.55D-02

 Cycle   4  Pass 1  IDiag  1:
 E= -478.037445126437     Delta-E=       -0.006856203455 Rises=F Damp=F
 DIIS: error= 9.42D-04 at cycle   4 NSaved=   4.
 NSaved= 4 IEnMin= 4 EnMin= -478.037445126437     IErMin= 4 ErrMin= 9.42D-04
 ErrMax= 9.42D-04  0.00D+00 EMaxC= 1.00D-01 BMatC= 2.70D-04 BMatP= 7.40D-03
 IDIUse=3 WtCom= 9.91D-01 WtEn= 9.42D-03
 Coeff-Com:  0.382D-02 0.617D-01 0.249D+00 0.685D+00
 Coeff-En:   0.000D+00 0.000D+00 0.000D+00 0.100D+01
 Coeff:      0.379D-02 0.611D-01 0.247D+00 0.688D+00
 Gap=     0.352 Goal=   None    Shift=    0.000
 RMSDP=6.69D-05 MaxDP=2.74D-03 DE=-6.86D-03 OVMax= 4.61D-03

 Cycle   5  Pass 1  IDiag  1:
 E= -478.037716029976     Delta-E=       -0.000270903539 Rises=F Damp=F
 DIIS: error= 1.43D-04 at cycle   5 NSaved=   5.
 NSaved= 5 IEnMin= 5 EnMin= -478.037716029976     IErMin= 5 ErrMin= 1.43D-04
 ErrMax= 1.43D-04  0.00D+00 EMaxC= 1.00D-01 BMatC= 1.16D-05 BMatP= 2.70D-04
 IDIUse=3 WtCom= 9.99D-01 WtEn= 1.43D-03
 Coeff-Com: -0.217D-02-0.122D-01 0.276D-03 0.166D+00 0.848D+00
 Coeff-En:   0.000D+00 0.000D+00 0.000D+00 0.000D+00 0.100D+01
 Coeff:     -0.217D-02-0.122D-01 0.276D-03 0.165D+00 0.849D+00
 Gap=     0.350 Goal=   None    Shift=    0.000
 RMSDP=3.36D-05 MaxDP=1.53D-03 DE=-2.71D-04 OVMax= 1.66D-03

 Cycle   6  Pass 1  IDiag  1:
 E= -478.037732253147     Delta-E=       -0.000016223171 Rises=F Damp=F
 DIIS: error= 3.91D-05 at cycle   6 NSaved=   6.
 NSaved= 6 IEnMin= 6 EnMin= -478.037732253147     IErMin= 6 ErrMin= 3.91D-05
 ErrMax= 3.91D-05  0.00D+00 EMaxC= 1.00D-01 BMatC= 7.57D-07 BMatP= 1.16D-05
 IDIUse=1 WtCom= 1.00D+00 WtEn= 0.00D+00
 Coeff-Com: -0.779D-03-0.818D-02-0.218D-01-0.217D-01 0.185D+00 0.867D+00
 Coeff:     -0.779D-03-0.818D-02-0.218D-01-0.217D-01 0.185D+00 0.867D+00
 Gap=     0.350 Goal=   None    Shift=    0.000
 RMSDP=1.31D-05 MaxDP=5.16D-04 DE=-1.62D-05 OVMax= 8.27D-04

 Cycle   7  Pass 1  IDiag  1:
 E= -478.037733706557     Delta-E=       -0.000001453411 Rises=F Damp=F
 DIIS: error= 1.18D-05 at cycle   7 NSaved=   7.
 NSaved= 7 IEnMin= 7 EnMin= -478.037733706557     IErMin= 7 ErrMin= 1.18D-05
 ErrMax= 1.18D-05  0.00D+00 EMaxC= 1.00D-01 BMatC= 7.81D-08 BMatP= 7.57D-07
 IDIUse=1 WtCom= 1.00D+00 WtEn= 0.00D+00
 Coeff-Com: -0.647D-05-0.662D-03-0.468D-02-0.200D-01-0.330D-01 0.225D+00
 Coeff-Com:  0.833D+00
 Coeff:     -0.647D-05-0.662D-03-0.468D-02-0.200D-01-0.330D-01 0.225D+00
 Coeff:      0.833D+00
 Gap=     0.350 Goal=   None    Shift=    0.000
 RMSDP=4.40D-06 MaxDP=1.80D-04 DE=-1.45D-06 OVMax= 2.82D-04

 Cycle   8  Pass 1  IDiag  1:
 E= -478.037733849800     Delta-E=       -0.000000143243 Rises=F Damp=F
 DIIS: error= 3.52D-06 at cycle   8 NSaved=   8.
 NSaved= 8 IEnMin= 8 EnMin= -478.037733849800     IErMin= 8 ErrMin= 3.52D-06
 ErrMax= 3.52D-06  0.00D+00 EMaxC= 1.00D-01 BMatC= 4.88D-09 BMatP= 7.81D-08
 IDIUse=1 WtCom= 1.00D+00 WtEn= 0.00D+00
 Coeff-Com:  0.544D-04 0.438D-03 0.849D-03-0.188D-02-0.207D-01-0.268D-01
 Coeff-Com:  0.140D+00 0.908D+00
 Coeff:      0.544D-04 0.438D-03 0.849D-03-0.188D-02-0.207D-01-0.268D-01
 Coeff:      0.140D+00 0.908D+00
 Gap=     0.350 Goal=   None    Shift=    0.000
 RMSDP=1.61D-06 MaxDP=7.00D-05 DE=-1.43D-07 OVMax= 7.97D-05

 Cycle   9  Pass 1  IDiag  1:
 E= -478.037733860829     Delta-E=       -0.000000011029 Rises=F Damp=F
 DIIS: error= 1.00D-06 at cycle   9 NSaved=   9.
 NSaved= 9 IEnMin= 9 EnMin= -478.037733860829     IErMin= 9 ErrMin= 1.00D-06
 ErrMax= 1.00D-06  0.00D+00 EMaxC= 1.00D-01 BMatC= 3.68D-10 BMatP= 4.88D-09
 IDIUse=1 WtCom= 1.00D+00 WtEn= 0.00D+00
 Coeff-Com:  0.881D-05 0.134D-03 0.617D-03 0.158D-02-0.105D-02-0.251D-01
 Coeff-Com: -0.485D-01 0.141D+00 0.931D+00
 Coeff:      0.881D-05 0.134D-03 0.617D-03 0.158D-02-0.105D-02-0.251D-01
 Coeff:     -0.485D-01 0.141D+00 0.931D+00
 Gap=     0.350 Goal=   None    Shift=    0.000
 RMSDP=4.95D-07 MaxDP=2.13D-05 DE=-1.10D-08 OVMax= 2.35D-05

 Cycle  10  Pass 1  IDiag  1:
 E= -478.037733861718     Delta-E=       -0.000000000889 Rises=F Damp=F
 DIIS: error= 2.31D-07 at cycle  10 NSaved=  10.
 NSaved=10 IEnMin=10 EnMin= -478.037733861718     IErMin=10 ErrMin= 2.31D-07
 ErrMax= 2.31D-07  0.00D+00 EMaxC= 1.00D-01 BMatC= 1.89D-11 BMatP= 3.68D-10
 IDIUse=1 WtCom= 1.00D+00 WtEn= 0.00D+00
 Coeff-Com: -0.231D-05-0.142D-04-0.186D-05 0.292D-03 0.128D-02-0.577D-03
 Coeff-Com: -0.137D-01-0.438D-01 0.104D+00 0.953D+00
 Coeff:     -0.231D-05-0.142D-04-0.186D-05 0.292D-03 0.128D-02-0.577D-03
 Coeff:     -0.137D-01-0.438D-01 0.104D+00 0.953D+00
 Gap=     0.350 Goal=   None    Shift=    0.000
 RMSDP=8.70D-08 MaxDP=3.78D-06 DE=-8.89D-10 OVMax= 4.93D-06

 Cycle  11  Pass 1  IDiag  1:
 E= -478.037733861767     Delta-E=       -0.000000000048 Rises=F Damp=F
 DIIS: error= 5.68D-08 at cycle  11 NSaved=  11.
 NSaved=11 IEnMin=11 EnMin= -478.037733861767     IErMin=11 ErrMin= 5.68D-08
 ErrMax= 5.68D-08  0.00D+00 EMaxC= 1.00D-01 BMatC= 1.40D-12 BMatP= 1.89D-11
 IDIUse=1 WtCom= 1.00D+00 WtEn= 0.00D+00
 Coeff-Com: -0.717D-06-0.734D-05-0.299D-04-0.323D-04 0.292D-03 0.119D-02
 Coeff-Com:  0.110D-03-0.148D-01-0.349D-01 0.163D+00 0.885D+00
 Coeff:     -0.717D-06-0.734D-05-0.299D-04-0.323D-04 0.292D-03 0.119D-02
 Coeff:      0.110D-03-0.148D-01-0.349D-01 0.163D+00 0.885D+00
 Gap=     0.350 Goal=   None    Shift=    0.000
 RMSDP=1.59D-08 MaxDP=6.79D-07 DE=-4.83D-11 OVMax= 1.36D-06

 Cycle  12  Pass 1  IDiag  1:
 E= -478.037733861767     Delta-E=       -0.000000000000 Rises=F Damp=F
 DIIS: error= 2.79D-08 at cycle  12 NSaved=  12.
 NSaved=12 IEnMin=12 EnMin= -478.037733861767     IErMin=12 ErrMin= 2.79D-08
 ErrMax= 2.79D-08  0.00D+00 EMaxC= 1.00D-01 BMatC= 9.34D-14 BMatP= 1.40D-12
 IDIUse=1 WtCom= 1.00D+00 WtEn= 0.00D+00
 Coeff-Com:  0.188D-06 0.764D-06-0.103D-06-0.251D-04-0.105D-03-0.134D-04
 Coeff-Com:  0.103D-02 0.434D-02-0.644D-02-0.862D-01-0.531D-01 0.114D+01
 Coeff:      0.188D-06 0.764D-06-0.103D-06-0.251D-04-0.105D-03-0.134D-04
 Coeff:      0.103D-02 0.434D-02-0.644D-02-0.862D-01-0.531D-01 0.114D+01
 Gap=     0.350 Goal=   None    Shift=    0.000
 RMSDP=5.74D-09 MaxDP=1.95D-07 DE=-4.55D-13 OVMax= 6.67D-07

 SCF Done:  E(RwB97XD) =  -478.037733862     A.U. after   12 cycles
            NFock= 12  Conv=0.57D-08     -V/T= 2.0036
 KE= 4.763421498559D+02 PE=-1.345560477012D+03 EE= 2.838832075856D+02
 Leave Link  502 at Wed Jan  8 11:15:18 2020, MaxMem= 13421772800 cpu:             310.9 elap:              75.8
 (Enter /opt/software/Gaussian16/bin/avx/g16/l801.exe)
 DoSCS=F DFT=T ScalE2(SS,OS)=  1.000000  1.000000
 Range of M.O.s used for correlation:     1   280
 NBasis=   280 NAE=    17 NBE=    17 NFC=     0 NFV=     0
 NROrb=    280 NOA=    17 NOB=    17 NVA=   263 NVB=   263

 **** Warning!!: The largest alpha MO coefficient is  0.49704066D+02

 Leave Link  801 at Wed Jan  8 11:15:18 2020, MaxMem= 13421772800 cpu:               0.2 elap:               0.0
 (Enter /opt/software/Gaussian16/bin/avx/g16/l1002.exe)
 Minotr:  Closed shell wavefunction.
          Direct CPHF calculation.
          Differentiating once with respect to electric field.
                with respect to dipole field.
          Electric field/nuclear overlap derivatives assumed to be zero.
          Requested convergence is 1.0D-08 RMS, and 1.0D-07 maximum.
          Secondary convergence is 1.0D-12 RMS, and 1.0D-12 maximum.
          NewPWx=F KeepS1=T KeepF1=T KeepIn=T MapXYZ=F SortEE=F KeepMc=T.
         2781 words used for storage of precomputed grid.
 Keep R1 ints in memory in canonical form, NReq=1575157929.
 FoFCou: FMM=F IPFlag=           0 FMFlag=           0 FMFlg1=           0
         NFxFlg=           0 DoJE=F BraDBF=F KetDBF=F FulRan=T
         wScrn=  0.000000 ICntrl=       600 IOpCl=  0 I1Cent=           0 NGrid=           0
         NMat0=    1 NMatS0=  39340 NMatT0=    0 NMatD0=    1 NMtDS0=    0 NMtDT0=    0
 Symmetry not used in FoFCou.
 Two-electron integral symmetry not used.
          MDV=   13421772800 using IRadAn=       1.
          Solving linear equations simultaneously, MaxMat=       0.
          There are     3 degrees of freedom in the 1st order CPHF.  IDoFFX=0 NUNeed=     3.
      3 vectors produced by pass  0 Test12= 1.49D-13 3.33D-08 XBig12= 2.24D+01 1.33D+00.
 AX will form     3 AO Fock derivatives at one time.
      3 vectors produced by pass  1 Test12= 1.49D-13 3.33D-08 XBig12= 2.35D+00 2.60D-01.
      3 vectors produced by pass  2 Test12= 1.49D-13 3.33D-08 XBig12= 3.30D-01 7.35D-02.
      3 vectors produced by pass  3 Test12= 1.49D-13 3.33D-08 XBig12= 2.52D-02 2.64D-02.
      3 vectors produced by pass  4 Test12= 1.49D-13 3.33D-08 XBig12= 1.78D-03 9.81D-03.
      3 vectors produced by pass  5 Test12= 1.49D-13 3.33D-08 XBig12= 9.28D-05 2.05D-03.
      3 vectors produced by pass  6 Test12= 1.49D-13 3.33D-08 XBig12= 2.48D-06 3.29D-04.
      3 vectors produced by pass  7 Test12= 1.49D-13 3.33D-08 XBig12= 7.95D-08 7.30D-05.
      3 vectors produced by pass  8 Test12= 1.49D-13 3.33D-08 XBig12= 1.93D-09 1.14D-05.
      3 vectors produced by pass  9 Test12= 1.49D-13 3.33D-08 XBig12= 6.08D-11 1.74D-06.
      3 vectors produced by pass 10 Test12= 1.49D-13 3.33D-08 XBig12= 1.91D-12 2.69D-07.
 InvSVY:  IOpt=1 It=  1 EMax= 8.88D-16
 Solved reduced A of dimension    33 with     3 vectors.
 FullF1:  Do perturbations      1 to       3.
 SCF Polarizability for W=    0.000000:
                1             2             3 
      1  0.572822D+02
      2  0.136933D+01  0.465948D+02
      3 -0.459868D+00  0.275186D+00  0.437821D+02
 Isotropic polarizability for W=    0.000000       49.22 Bohr**3.
 SCF Static Hyperpolarizability:
 K=  1 block:
                1 
      1 -0.626915D+02
 K=  2 block:
                1             2 
      1  0.200744D+02
      2 -0.181054D+02 -0.430977D+02
 K=  3 block:
                1             2             3 
      1  0.128210D+02
      2 -0.863009D+01 -0.124602D+02
      3 -0.284134D+02 -0.287426D+02 -0.186497D+02
 End of Minotr F.D. properties file   721 does not exist.
 End of Minotr F.D. properties file   722 does not exist.
 End of Minotr F.D. properties file   788 does not exist.
 Leave Link 1002 at Wed Jan  8 11:16:45 2020, MaxMem= 13421772800 cpu:             694.1 elap:              86.9
 (Enter /opt/software/Gaussian16/bin/avx/g16/l601.exe)
 Copying SCF densities to generalized density rwf, IOpCl= 0 IROHF=0.

 **********************************************************************

            Population analysis using the SCF Density.

 **********************************************************************

 Alpha  occ. eigenvalues --  -89.04576 -10.32173 -10.28571  -8.05614  -6.00580
 Alpha  occ. eigenvalues --   -6.00230  -5.99630  -0.90326  -0.80163  -0.70202
 Alpha  occ. eigenvalues --   -0.55867  -0.52199  -0.49394  -0.46072  -0.43963
 Alpha  occ. eigenvalues --   -0.40414  -0.31961
 Alpha virt. eigenvalues --    0.03041   0.04119   0.04490   0.04740   0.06370
 Alpha virt. eigenvalues --    0.06734   0.08346   0.09534   0.10663   0.10889
 Alpha virt. eigenvalues --    0.12613   0.12683   0.13298   0.13903   0.13937
 Alpha virt. eigenvalues --    0.15192   0.15435   0.16032   0.17777   0.19067
 Alpha virt. eigenvalues --    0.20373   0.21806   0.23104   0.24443   0.26448
 Alpha virt. eigenvalues --    0.26954   0.28015   0.28357   0.30705   0.31450
 Alpha virt. eigenvalues --    0.32551   0.33447   0.33618   0.33810   0.34982
 Alpha virt. eigenvalues --    0.35337   0.36338   0.36871   0.37689   0.38480
 Alpha virt. eigenvalues --    0.38727   0.39352   0.39852   0.40172   0.40890
 Alpha virt. eigenvalues --    0.41377   0.43554   0.43807   0.45116   0.46416
 Alpha virt. eigenvalues --    0.48197   0.49095   0.49976   0.50926   0.51616
 Alpha virt. eigenvalues --    0.52384   0.53072   0.54626   0.55797   0.61652
 Alpha virt. eigenvalues --    0.62675   0.63564   0.64004   0.66678   0.69285
 Alpha virt. eigenvalues --    0.69884   0.71059   0.71857   0.72994   0.74156
 Alpha virt. eigenvalues --    0.75689   0.77108   0.77244   0.77981   0.79011
 Alpha virt. eigenvalues --    0.80328   0.81533   0.82307   0.82633   0.85605
 Alpha virt. eigenvalues --    0.86467   0.87269   0.88148   0.90849   0.91001
 Alpha virt. eigenvalues --    0.92136   0.94064   0.96346   0.96930   0.97768
 Alpha virt. eigenvalues --    0.98666   0.99419   1.01350   1.02930   1.03426
 Alpha virt. eigenvalues --    1.04353   1.05764   1.06522   1.08637   1.09810
 Alpha virt. eigenvalues --    1.12507   1.14038   1.15197   1.15688   1.18669
 Alpha virt. eigenvalues --    1.19127   1.19764   1.22173   1.22536   1.24496
 Alpha virt. eigenvalues --    1.25461   1.27625   1.29816   1.30519   1.33247
 Alpha virt. eigenvalues --    1.35584   1.36400   1.37228   1.38751   1.40533
 Alpha virt. eigenvalues --    1.42903   1.45304   1.46906   1.50704   1.51713
 Alpha virt. eigenvalues --    1.53119   1.53536   1.54106   1.55564   1.56221
 Alpha virt. eigenvalues --    1.58736   1.59039   1.60670   1.62392   1.64160
 Alpha virt. eigenvalues --    1.65580   1.67622   1.70582   1.71948   1.73866
 Alpha virt. eigenvalues --    1.74963   1.77193   1.79232   1.80669   1.81902
 Alpha virt. eigenvalues --    1.86833   1.87683   1.91132   1.94001   1.97288
 Alpha virt. eigenvalues --    1.98567   2.02469   2.05629   2.06597   2.08885
 Alpha virt. eigenvalues --    2.09757   2.10666   2.13839   2.16680   2.21457
 Alpha virt. eigenvalues --    2.21673   2.23609   2.29451   2.30357   2.33524
 Alpha virt. eigenvalues --    2.40020   2.43287   2.44275   2.46282   2.50283
 Alpha virt. eigenvalues --    2.54689   2.63171   2.63795   2.76164   2.81262
 Alpha virt. eigenvalues --    2.86805   2.96750   3.02755   3.15652   3.16831
 Alpha virt. eigenvalues --    3.18200   3.21449   3.30443   3.33221   3.34307
 Alpha virt. eigenvalues --    3.35132   3.36286   3.39649   3.44271   3.46937
 Alpha virt. eigenvalues --    3.49710   3.50944   3.53297   3.57448   3.59540
 Alpha virt. eigenvalues --    3.60015   3.67329   3.70309   3.71508   3.71806
 Alpha virt. eigenvalues --    3.73388   3.81133   3.84128   3.84865   3.86071
 Alpha virt. eigenvalues --    3.91708   3.94254   3.95067   3.96950   3.99195
 Alpha virt. eigenvalues --    4.02577   4.06395   4.12427   4.15093   4.16900
 Alpha virt. eigenvalues --    4.19984   4.20693   4.28205   4.29864   4.33358
 Alpha virt. eigenvalues --    4.34178   4.38718   4.43999   4.46852   4.50900
 Alpha virt. eigenvalues --    4.51636   4.55748   4.57711   4.58293   4.61653
 Alpha virt. eigenvalues --    4.67047   4.71015   4.74813   4.76283   4.82289
 Alpha virt. eigenvalues --    4.84755   4.89231   4.90124   4.98978   5.03498
 Alpha virt. eigenvalues --    5.08209   5.10949   5.12286   5.16905   5.24986
 Alpha virt. eigenvalues --    5.27177   5.30184   5.39654   5.47370   5.54553
 Alpha virt. eigenvalues --    5.65848   5.69717   5.73757   5.80625   5.88250
 Alpha virt. eigenvalues --    5.92015   5.99007   6.40911   6.46118   6.52829
 Alpha virt. eigenvalues --    7.53915  16.04120  17.03417
          Condensed to atoms (all electrons):
               1          2          3          4          5          6
     1  C    5.269374   0.112729   0.140297   0.407805   0.434955  -0.009659
     2  C    0.112729   5.582089   0.020591  -0.036984  -0.023696   0.407628
     3  S    0.140297   0.020591  15.894944  -0.025815  -0.058638   0.008793
     4  H    0.407805  -0.036984  -0.025815   0.432249  -0.007451   0.004716
     5  H    0.434955  -0.023696  -0.058638  -0.007451   0.390637  -0.000909
     6  H   -0.009659   0.407628   0.008793   0.004716  -0.000909   0.335730
     7  H   -0.000338  -0.011029   0.353459  -0.003697   0.005183   0.000223
     8  H   -0.002835   0.396243  -0.018288  -0.004962  -0.001134   0.000831
     9  H   -0.001835   0.391698  -0.009740  -0.009176   0.000835   0.001934
               7          8          9
     1  C   -0.000338  -0.002835  -0.001835
     2  C   -0.011029   0.396243   0.391698
     3  S    0.353459  -0.018288  -0.009740
     4  H   -0.003697  -0.004962  -0.009176
     5  H    0.005183  -0.001134   0.000835
     6  H    0.000223   0.000831   0.001934
     7  H    0.486834  -0.001987   0.001993
     8  H   -0.001987   0.329664   0.012961
     9  H    0.001993   0.012961   0.329079
 Mulliken charges:
               1
     1  C   -0.350493
     2  C   -0.839269
     3  S   -0.305602
     4  H    0.243315
     5  H    0.260219
     6  H    0.250713
     7  H    0.169360
     8  H    0.289507
     9  H    0.282250
 Sum of Mulliken charges =  -0.00000
 Mulliken charges with hydrogens summed into heavy atoms:
               1
     1  C    0.153041
     2  C   -0.016799
     3  S   -0.136242
 Electronic spatial extent (au):  <R**2>=            298.8498
 Charge=             -0.0000 electrons
 Dipole moment (field-independent basis, Debye):
    X=              1.5872    Y=              0.1502    Z=              0.6577  Tot=              1.7247
 Quadrupole moment (field-independent basis, Debye-Ang):
   XX=            -29.1127   YY=            -27.0767   ZZ=            -27.0050
   XY=              1.3001   XZ=             -0.5653   YZ=             -1.7109
 Traceless Quadrupole moment (field-independent basis, Debye-Ang):
   XX=             -1.3812   YY=              0.6548   ZZ=              0.7265
   XY=              1.3001   XZ=             -0.5653   YZ=             -1.7109
 Octapole moment (field-independent basis, Debye-Ang**2):
  XXX=              2.8471  YYY=              0.9541  ZZZ=              1.0547  XYY=              0.2375
  XXY=             -1.7733  XXZ=              0.1949  XZZ=              0.5132  YZZ=              0.1786
  YYZ=              0.9928  XYZ=              1.9051
 Hexadecapole moment (field-independent basis, Debye-Ang**3):
 XXXX=           -294.0456 YYYY=            -79.9397 ZZZZ=            -51.1881 XXXY=              8.9119
 XXXZ=              0.7391 YYYX=              1.8586 YYYZ=             -3.6105 ZZZX=             -0.9970
 ZZZY=             -2.0762 XXYY=            -62.2100 XXZZ=            -58.8458 YYZZ=            -19.3295
 XXYZ=             -2.6475 YYXZ=             -0.9764 ZZXY=              0.2544
 N-N= 1.072973857091D+02 E-N=-1.345560476797D+03  KE= 4.763421498559D+02
  Exact polarizability:      57.282       1.369      46.595      -0.460       0.275      43.782
 Approx polarizability:      55.318       2.864      50.958       0.127      -1.706      49.535
 No NMR shielding tensors so no spin-rotation constants.
 Leave Link  601 at Wed Jan  8 11:16:46 2020, MaxMem= 13421772800 cpu:               1.9 elap:               0.3
 (Enter /opt/software/Gaussian16/bin/avx/g16/l9999.exe)

 ----------------------------------------------------------------------

 Electric dipole moment (input orientation):
 (Debye = 10**-18 statcoulomb cm , SI units = C m)
                  (au)            (Debye)         (10**-30 SI)
   Tot        0.678541D+00      0.172468D+01      0.575291D+01
   x          0.624472D+00      0.158725D+01      0.529449D+01
   y          0.591099D-01      0.150242D+00      0.501155D+00
   z          0.258764D+00      0.657712D+00      0.219389D+01

 Dipole polarizability, Alpha (input orientation).
 (esu units = cm**3 , SI units = C**2 m**2 J**-1)
 Alpha(0;0):
               (au)            (10**-24 esu)      (10**-40 SI)
   iso        0.492197D+02      0.729361D+01      0.811523D+01
   aniso      0.125968D+02      0.186665D+01      0.207693D+01
   xx         0.572822D+02      0.848835D+01      0.944456D+01
   yx         0.136933D+01      0.202914D+00      0.225773D+00
   yy         0.465948D+02      0.690463D+01      0.768244D+01
   zx        -0.459868D+00     -0.681454D-01     -0.758220D-01
   zy         0.275186D+00      0.407784D-01      0.453721D-01
   zz         0.437821D+02      0.648784D+01      0.721870D+01

 First dipole hyperpolarizability, Beta (input orientation).
 ||, _|_  parallel and perpendicular components, (z) with respect to z axis,
 vector components x,y,z.  Values do not include the 1/n! factor of 1/2.
 (esu units = statvolt**-1 cm**4 , SI units = C**3 m**3 J**-2)
 Beta(0;0,0):
               (au)            (10**-30 esu)      (10**-50 SI)
   || (z)    -0.109734D+02     -0.948014D-01     -0.351846D-01
   _|_(z)    -0.365779D+01     -0.316005D-01     -0.117282D-01
   x         -0.327631D+03     -0.283047D+01     -0.105050D+01
   y         -0.155298D+03     -0.134165D+01     -0.497942D+00
   z         -0.548669D+02     -0.474007D+00     -0.175923D+00
   ||         0.733402D+02      0.633603D+00      0.235155D+00
   xxx       -0.626915D+02     -0.541606D+00     -0.201012D+00
   xxy        0.200744D+02      0.173427D+00      0.643656D-01
   yxy       -0.181054D+02     -0.156417D+00     -0.580525D-01
   yyy       -0.430977D+02     -0.372331D+00     -0.138187D+00
   xxz        0.128210D+02      0.110763D+00      0.411086D-01
   yxz       -0.863009D+01     -0.745573D-01     -0.276712D-01
   yyz       -0.124602D+02     -0.107647D+00     -0.399520D-01
   zxz       -0.284134D+02     -0.245470D+00     -0.911036D-01
   zyz       -0.287426D+02     -0.248314D+00     -0.921593D-01
   zzz       -0.186497D+02     -0.161119D+00     -0.597976D-01

 ----------------------------------------------------------------------

 Dipole orientation:
     6          0.13157303          1.14554448          1.02804508
     6          1.32627956         -0.83065398          2.74272128
    16         -0.70174427         -0.04634048         -2.09156809
     1         -1.53778853          1.98067890          1.91198623
     1          1.46139057          2.68490940          0.66622136
     1          1.85847856          0.01772034          4.55270444
     1         -2.32201481         -1.82260562         -1.28563038
     1          3.01426347         -1.63442429          1.86856244
     1          0.00648008         -2.37417035          3.12663838

 Electric dipole moment (dipole orientation):
 (Debye = 10**-18 statcoulomb cm , SI units = C m)
                  (au)            (Debye)         (10**-30 SI)
   Tot        0.678541D+00      0.172468D+01      0.575291D+01
   x          0.000000D+00      0.000000D+00      0.000000D+00
   y          0.000000D+00      0.000000D+00      0.000000D+00
   z          0.678541D+00      0.172468D+01      0.575291D+01

 Dipole polarizability, Alpha (dipole orientation).
 (esu units = cm**3 , SI units = C**2 m**2 J**-1)
 Alpha(0;0):
               (au)            (10**-24 esu)      (10**-40 SI)
   iso        0.492197D+02      0.729361D+01      0.811523D+01
   aniso      0.125968D+02      0.186665D+01      0.207693D+01
   xx         0.461073D+02      0.683239D+01      0.760206D+01
   yx        -0.193566D+00     -0.286835D-01     -0.319147D-01
   yy         0.463990D+02      0.687563D+01      0.765017D+01
   zx         0.505860D+01      0.749607D+00      0.834050D+00
   zy         0.918282D+00      0.136075D+00      0.151404D+00
   zz         0.551528D+02      0.817281D+01      0.909347D+01

 First dipole hyperpolarizability, Beta (dipole orientation).
 ||, _|_  parallel and perpendicular components, (z) with respect to z axis,
 vector components x,y,z.  Values do not include the 1/n! factor of 1/2.
 (esu units = statvolt**-1 cm**4 , SI units = C**3 m**3 J**-2)
 Beta(0;0,0):
               (au)            (10**-30 esu)      (10**-50 SI)
   || (z)    -0.671952D+02     -0.580514D+00     -0.215452D+00
   _|_(z)    -0.223984D+02     -0.193505D+00     -0.718174D-01
   x         -0.672349D+02     -0.580857D+00     -0.215579D+00
   y         -0.130650D+03     -0.112872D+01     -0.418911D+00
   z         -0.335976D+03     -0.290257D+01     -0.107726D+01
   ||         0.733402D+02      0.633603D+00      0.235155D+00
   xxx       -0.196193D+02     -0.169495D+00     -0.629065D-01
   xxy       -0.135072D+02     -0.116692D+00     -0.433090D-01
   yxy        0.107727D+01      0.930677D-02      0.345412D-02
   yyy       -0.367113D+02     -0.317157D+00     -0.117710D+00
   xxz       -0.409154D+02     -0.353477D+00     -0.131190D+00
   yxz        0.232105D+02      0.200520D+00      0.744211D-01
   yyz       -0.234415D+02     -0.202517D+00     -0.751620D-01
   zxz       -0.386963D+01     -0.334306D-01     -0.124074D-01
   zyz        0.666848D+01      0.576105D-01      0.213816D-01
   zzz       -0.476350D+02     -0.411529D+00     -0.152735D+00

 ----------------------------------------------------------------------
 Unable to Open any file for archive entry.
 1\1\GINC-GENOME\SP\RwB97XD\Aug-CC-pVTZ\C2H6S1\LIUCHW\08-Jan-2020\0\\#p
  wB97XD/aug-cc-pvtz NoSymm MaxDisk=100GB polar\\polar\\0,1\C,0,0.49242
 ,0.646216,0.090578\C,0,1.632748,-0.351447,-0.054129\S,0,-1.160846,-0.0
 99253,-0.078193\H,0,0.555523,1.177741,1.043458\H,0,0.541158,1.398816,-
 0.701036\H,0,2.597119,0.162119,0.012837\H,0,-1.045479,-0.947133,0.9554
 19\H,0,1.577258,-0.866587,-1.01555\H,0,1.596948,-1.105521,0.737256\\Ve
 rsion=ES64L-G16RevC.01\HF=-478.0377339\RMSD=5.737e-09\Dipole=0.6244719
 ,0.0591099,0.2587639\Polar=57.2822014,1.3693337,46.5947852,-0.4598678,
 0.2751865,43.7821355\HyperPolar=-62.6914747,20.0743515,-18.1053998,-43
 .0977357,12.8209565,-8.6300897,-12.4602436,-28.4133864,-28.7426446,-18
 .64967\Quadrupole=-1.0269199,0.4868008,0.5401191,0.9666284,-0.4202667,
 -1.2719918\PG=C01 [X(C2H6S1)]\\@
 The archive entry for this job was punched.


 A MAN BEGINS CUTTING HIS WISDOM TEETH THE 1ST
 TIME HE BITES OFF MORE THAN HE CAN CHEW.
 Job cpu time:       0 days  0 hours 17 minutes  4.7 seconds.
 Elapsed time:       0 days  0 hours  2 minutes 45.3 seconds.
 File lengths (MBytes):  RWF=     47 Int=      0 D2E=      0 Chk=      7 Scr=      1
 Normal termination of Gaussian 16 at Wed Jan  8 11:16:46 2020.
