 Entering Gaussian System, Link 0=g16
 Input=70_Hexamethylbenzene.com
 Output=70_Hexamethylbenzene.out
 Initial command:
 /opt/software/Gaussian16/bin/avx/g16/l1.exe "/scratch/liuchw/Gau-46150.inp" -scrdir="/scratch/liuchw/"
 Entering Link 1 = /opt/software/Gaussian16/bin/avx/g16/l1.exe PID=     46151.
  
 Copyright (c) 1988-2019, Gaussian, Inc.  All Rights Reserved.
  
 This is part of the Gaussian(R) 16 program.  It is based on
 the Gaussian(R) 09 system (copyright 2009, Gaussian, Inc.),
 the Gaussian(R) 03 system (copyright 2003, Gaussian, Inc.),
 the Gaussian(R) 98 system (copyright 1998, Gaussian, Inc.),
 the Gaussian(R) 94 system (copyright 1995, Gaussian, Inc.),
 the Gaussian 92(TM) system (copyright 1992, Gaussian, Inc.),
 the Gaussian 90(TM) system (copyright 1990, Gaussian, Inc.),
 the Gaussian 88(TM) system (copyright 1988, Gaussian, Inc.),
 the Gaussian 86(TM) system (copyright 1986, Carnegie Mellon
 University), and the Gaussian 82(TM) system (copyright 1983,
 Carnegie Mellon University). Gaussian is a federally registered
 trademark of Gaussian, Inc.
  
 This software contains proprietary and confidential information,
 including trade secrets, belonging to Gaussian, Inc.
  
 This software is provided under written license and may be
 used, copied, transmitted, or stored only in accord with that
 written license.
  
 The following legend is applicable only to US Government
 contracts under FAR:
  
                    RESTRICTED RIGHTS LEGEND
  
 Use, reproduction and disclosure by the US Government is
 subject to restrictions as set forth in subparagraphs (a)
 and (c) of the Commercial Computer Software - Restricted
 Rights clause in FAR 52.227-19.
  
 Gaussian, Inc.
 340 Quinnipiac St., Bldg. 40, Wallingford CT 06492
  
  
 ---------------------------------------------------------------
 Warning -- This program may not be used in any manner that
 competes with the business of Gaussian, Inc. or will provide
 assistance to any competitor of Gaussian, Inc.  The licensee
 of this program is prohibited from giving any competitor of
 Gaussian, Inc. access to this program.  By using this program,
 the user acknowledges that Gaussian, Inc. is engaged in the
 business of creating and licensing software in the field of
 computational chemistry and represents and warrants to the
 licensee that it is not a competitor of Gaussian, Inc. and that
 it will not use this program in any manner prohibited above.
 ---------------------------------------------------------------
  

 Cite this work as:
 Gaussian 16, Revision C.01,
 M. J. Frisch, G. W. Trucks, H. B. Schlegel, G. E. Scuseria, 
 M. A. Robb, J. R. Cheeseman, G. Scalmani, V. Barone, 
 G. A. Petersson, H. Nakatsuji, X. Li, M. Caricato, A. V. Marenich, 
 J. Bloino, B. G. Janesko, R. Gomperts, B. Mennucci, H. P. Hratchian, 
 J. V. Ortiz, A. F. Izmaylov, J. L. Sonnenberg, D. Williams-Young, 
 F. Ding, F. Lipparini, F. Egidi, J. Goings, B. Peng, A. Petrone, 
 T. Henderson, D. Ranasinghe, V. G. Zakrzewski, J. Gao, N. Rega, 
 G. Zheng, W. Liang, M. Hada, M. Ehara, K. Toyota, R. Fukuda, 
 J. Hasegawa, M. Ishida, T. Nakajima, Y. Honda, O. Kitao, H. Nakai, 
 T. Vreven, K. Throssell, J. A. Montgomery, Jr., J. E. Peralta, 
 F. Ogliaro, M. J. Bearpark, J. J. Heyd, E. N. Brothers, K. N. Kudin, 
 V. N. Staroverov, T. A. Keith, R. Kobayashi, J. Normand, 
 K. Raghavachari, A. P. Rendell, J. C. Burant, S. S. Iyengar, 
 J. Tomasi, M. Cossi, J. M. Millam, M. Klene, C. Adamo, R. Cammi, 
 J. W. Ochterski, R. L. Martin, K. Morokuma, O. Farkas, 
 J. B. Foresman, and D. J. Fox, Gaussian, Inc., Wallingford CT, 2019.
 
 ******************************************
 Gaussian 16:  ES64L-G16RevC.01  3-Jul-2019
                 8-Jan-2020 
 ******************************************
 %chk=70_Hexamethylbenzene.chk
 %nproc=8
 Will use up to    8 processors via shared memory.
 %Mem=100GB
 ------------------------------------------------
 #p wB97XD/aug-cc-pvtz NoSymm MaxDisk=100GB polar
 ------------------------------------------------
 1/38=1,172=1/1;
 2/12=2,15=1,17=6,18=5,40=1/2;
 3/5=16,6=1,7=10,11=2,25=1,30=1,74=-58/1,2,3;
 4//1;
 5/5=2,38=5,98=1/2;
 8/6=4,10=90,11=11/1;
 10/6=1,13=10,31=1/2;
 6/7=2,8=2,9=2,10=2,28=1/1;
 99/5=1,9=1/99;
 Leave Link    1 at Wed Jan  8 11:21:41 2020, MaxMem= 13421772800 cpu:               0.4 elap:               0.1
 (Enter /opt/software/Gaussian16/bin/avx/g16/l101.exe)
 -----
 polar
 -----
 Symbolic Z-matrix:
 Charge =  0 Multiplicity = 1
 C                    -0.50888   1.31151  -0.02274 
 C                    -1.39019   0.21504   0.02274 
 C                     0.88135   1.09648   0.02266 
 C                    -0.88134  -1.09643  -0.02269 
 C                     1.39023  -0.21501  -0.02279 
 C                     0.50891  -1.31149   0.02267 
 C                    -1.05567   2.72031  -0.08749 
 C                    -2.88365   0.44589   0.08753 
 C                     1.82817   2.27427   0.08749 
 C                    -1.82823  -2.27419  -0.0875 
 C                     2.88367  -0.44603  -0.08743 
 C                     1.05567  -2.7203    0.08748 
 H                    -1.2229    3.15078   0.90824 
 H                    -0.37315   3.38387  -0.622 
 H                    -2.00709   2.7495   -0.62212 
 H                    -3.11696   1.36902   0.62162 
 H                    -3.34018   0.51587  -0.90818 
 H                    -3.38458  -0.36322   0.62258 
 H                     2.74405   2.01463   0.62192 
 H                     1.37806   3.1129    0.62223 
 H                     2.11743   2.63432  -0.90822 
 H                    -1.37781  -3.11303  -0.62163 
 H                    -2.11809  -2.63385   0.90819 
 H                    -2.74381  -2.01471  -0.62252 
 H                     3.34008  -0.51595   0.90834 
 H                     3.11689  -1.36924  -0.62141 
 H                     3.38481   0.36294  -0.62249 
 H                     0.37293  -3.38384   0.62172 
 H                     1.22325  -3.15074  -0.90821 
 H                     2.00691  -2.74955   0.62242 
 
 ITRead=  0  0  0  0  0  0  0  0  0  0  0  0  0  0  0  0  0  0  0  0
 ITRead=  0  0  0  0  0  0  0  0  0  0
 MicOpt= -1 -1 -1 -1 -1 -1 -1 -1 -1 -1 -1 -1 -1 -1 -1 -1 -1 -1 -1 -1
 MicOpt= -1 -1 -1 -1 -1 -1 -1 -1 -1 -1
 NAtoms=     30 NQM=       30 NQMF=       0 NMMI=      0 NMMIF=      0
                NMic=       0 NMicF=      0.
                    Isotopes and Nuclear Properties:
 (Nuclear quadrupole moments (NQMom) in fm**2, nuclear magnetic moments (NMagM)
  in nuclear magnetons)

  Atom         1           2           3           4           5           6           7           8           9          10
 IAtWgt=          12          12          12          12          12          12          12          12          12          12
 AtmWgt=  12.0000000  12.0000000  12.0000000  12.0000000  12.0000000  12.0000000  12.0000000  12.0000000  12.0000000  12.0000000
 NucSpn=           0           0           0           0           0           0           0           0           0           0
 AtZEff=  -0.0000000  -0.0000000  -0.0000000  -0.0000000  -0.0000000  -0.0000000  -0.0000000  -0.0000000  -0.0000000  -0.0000000
 NQMom=    0.0000000   0.0000000   0.0000000   0.0000000   0.0000000   0.0000000   0.0000000   0.0000000   0.0000000   0.0000000
 NMagM=    0.0000000   0.0000000   0.0000000   0.0000000   0.0000000   0.0000000   0.0000000   0.0000000   0.0000000   0.0000000
 AtZNuc=   6.0000000   6.0000000   6.0000000   6.0000000   6.0000000   6.0000000   6.0000000   6.0000000   6.0000000   6.0000000

  Atom        11          12          13          14          15          16          17          18          19          20
 IAtWgt=          12          12           1           1           1           1           1           1           1           1
 AtmWgt=  12.0000000  12.0000000   1.0078250   1.0078250   1.0078250   1.0078250   1.0078250   1.0078250   1.0078250   1.0078250
 NucSpn=           0           0           1           1           1           1           1           1           1           1
 AtZEff=  -0.0000000  -0.0000000  -0.0000000  -0.0000000  -0.0000000  -0.0000000  -0.0000000  -0.0000000  -0.0000000  -0.0000000
 NQMom=    0.0000000   0.0000000   0.0000000   0.0000000   0.0000000   0.0000000   0.0000000   0.0000000   0.0000000   0.0000000
 NMagM=    0.0000000   0.0000000   2.7928460   2.7928460   2.7928460   2.7928460   2.7928460   2.7928460   2.7928460   2.7928460
 AtZNuc=   6.0000000   6.0000000   1.0000000   1.0000000   1.0000000   1.0000000   1.0000000   1.0000000   1.0000000   1.0000000

  Atom        21          22          23          24          25          26          27          28          29          30
 IAtWgt=           1           1           1           1           1           1           1           1           1           1
 AtmWgt=   1.0078250   1.0078250   1.0078250   1.0078250   1.0078250   1.0078250   1.0078250   1.0078250   1.0078250   1.0078250
 NucSpn=           1           1           1           1           1           1           1           1           1           1
 AtZEff=  -0.0000000  -0.0000000  -0.0000000  -0.0000000  -0.0000000  -0.0000000  -0.0000000  -0.0000000  -0.0000000  -0.0000000
 NQMom=    0.0000000   0.0000000   0.0000000   0.0000000   0.0000000   0.0000000   0.0000000   0.0000000   0.0000000   0.0000000
 NMagM=    2.7928460   2.7928460   2.7928460   2.7928460   2.7928460   2.7928460   2.7928460   2.7928460   2.7928460   2.7928460
 AtZNuc=   1.0000000   1.0000000   1.0000000   1.0000000   1.0000000   1.0000000   1.0000000   1.0000000   1.0000000   1.0000000
 Leave Link  101 at Wed Jan  8 11:21:41 2020, MaxMem= 13421772800 cpu:               0.9 elap:               0.1
 (Enter /opt/software/Gaussian16/bin/avx/g16/l202.exe)
                          Input orientation:                          
 ---------------------------------------------------------------------
 Center     Atomic      Atomic             Coordinates (Angstroms)
 Number     Number       Type             X           Y           Z
 ---------------------------------------------------------------------
      1          6           0       -0.508883    1.311513   -0.022742
      2          6           0       -1.390194    0.215043    0.022743
      3          6           0        0.881345    1.096475    0.022656
      4          6           0       -0.881344   -1.096434   -0.022694
      5          6           0        1.390227   -0.215011   -0.022790
      6          6           0        0.508906   -1.311493    0.022668
      7          6           0       -1.055667    2.720313   -0.087490
      8          6           0       -2.883650    0.445894    0.087530
      9          6           0        1.828174    2.274273    0.087493
     10          6           0       -1.828227   -2.274190   -0.087496
     11          6           0        2.883666   -0.446030   -0.087431
     12          6           0        1.055673   -2.720304    0.087475
     13          1           0       -1.222899    3.150782    0.908240
     14          1           0       -0.373152    3.383870   -0.621998
     15          1           0       -2.007085    2.749497   -0.622120
     16          1           0       -3.116960    1.369020    0.621618
     17          1           0       -3.340182    0.515872   -0.908178
     18          1           0       -3.384581   -0.363222    0.622576
     19          1           0        2.744052    2.014632    0.621917
     20          1           0        1.378059    3.112902    0.622231
     21          1           0        2.117431    2.634316   -0.908223
     22          1           0       -1.377806   -3.113031   -0.621631
     23          1           0       -2.118086   -2.633848    0.908185
     24          1           0       -2.743812   -2.014710   -0.622521
     25          1           0        3.340077   -0.515951    0.908336
     26          1           0        3.116894   -1.369235   -0.621408
     27          1           0        3.384810    0.362943   -0.622492
     28          1           0        0.372926   -3.383839    0.621717
     29          1           0        1.223247   -3.150744   -0.908208
     30          1           0        2.006912   -2.749552    0.622420
 ---------------------------------------------------------------------
                    Distance matrix (angstroms):
                    1          2          3          4          5
     1  C    0.000000
     2  C    1.407489   0.000000
     3  C    1.407493   2.436557   0.000000
     4  C    2.436583   1.407468   2.813890   0.000000
     5  C    2.436574   2.813852   1.407488   2.436584   0.000000
     6  C    2.813915   2.436574   2.436600   1.407517   1.407503
     7  C    1.512575   2.529909   2.530019   3.821275   3.821349
     8  C    2.530015   1.512581   3.821342   2.529853   4.326083
     9  C    2.529999   3.821324   1.512580   4.326118   2.529920
    10  C    3.821273   2.529883   4.326118   1.512579   3.821368
    11  C    3.821326   4.326088   2.529966   3.821324   1.512583
    12  C    4.326145   3.821350   3.821308   2.530045   2.529936
    13  H    2.181618   3.070937   3.071202   4.361438   4.361629
    14  H    2.161526   3.389916   2.687288   4.548686   4.052222
    15  H    2.161403   2.686980   3.389874   4.051887   4.548542
    16  H    2.687112   2.161489   4.052096   3.389923   4.820700
    17  H    3.071367   2.181643   4.361748   3.070749   4.867738
    18  H    3.389810   2.161428   4.548488   2.687037   4.820504
    19  H    3.389919   4.548573   2.161435   4.820555   2.686968
    20  H    2.687293   4.052184   2.161526   4.820720   3.389868
    21  H    3.071060   4.361538   2.181605   4.867783   3.071072
    22  H    4.548657   3.389904   4.820665   2.161449   4.052053
    23  H    4.361426   3.070833   4.867860   2.181676   4.361851
    24  H    4.051963   2.687089   4.820528   2.161437   4.548502
    25  H    4.361310   4.867658   3.070783   4.361671   2.181622
    26  H    4.548744   4.820654   3.390018   4.052010   2.161471
    27  H    4.052201   4.820671   2.687308   4.548583   2.161489
    28  H    4.820710   4.052075   4.548690   2.687132   3.389950
    29  H    4.867860   4.361796   4.361453   3.071421   3.070892
    30  H    4.820551   4.548490   4.051980   3.389837   2.687098
                    6          7          8          9         10
     6  C    0.000000
     7  C    4.326140   0.000000
     8  C    3.821263   2.923206   0.000000
     9  C    3.821307   2.923373   5.054132   0.000000
    10  C    2.530042   5.053900   2.922911   5.838528   0.000000
    11  C    2.529947   5.054114   5.838499   2.923134   5.054118
    12  C    1.512581   5.838551   5.054016   5.053965   2.923442
    13  H    4.867780   1.097610   3.278426   3.278863   5.548715
    14  H    4.820794   1.091711   3.929088   2.565233   5.866564
    15  H    4.820540   1.091731   2.564870   3.929198   5.055219
    16  H    4.548714   2.564714   1.091717   5.055603   3.928951
    17  H    4.361332   3.279039   1.097612   5.549346   3.277800
    18  H    4.051956   3.928896   1.091730   5.866473   2.564808
    19  H    4.051924   3.929263   5.866646   1.091721   6.308962
    20  H    4.548645   2.565317   5.055789   1.091717   6.309100
    21  H    4.361573   3.278650   5.549011   1.097611   6.351003
    22  H    2.687070   5.866599   3.928921   6.309058   1.091711
    23  H    3.071457   5.548616   3.277861   6.351075   1.097612
    24  H    3.389831   5.055347   2.564820   6.308926   1.091731
    25  H    3.071290   5.548661   6.350878   3.277954   5.549275
    26  H    2.686963   5.866834   6.309026   3.929184   5.055515
    27  H    3.389807   5.055814   6.309089   2.565224   5.866553
    28  H    2.161474   6.309083   5.055442   5.866632   2.565030
    29  H    2.181664   6.351089   5.549225   5.548709   3.279239
    30  H    2.161420   6.308945   5.866394   5.055384   3.929153
                   11         12         13         14         15
    11  C    0.000000
    12  C    2.923093   0.000000
    13  H    5.549080   6.351000   0.000000
    14  H    5.055765   6.309186   1.765794   0.000000
    15  H    5.866577   6.308941   1.765780   1.752760   0.000000
    16  H    6.309094   5.866749   2.616160   3.624180   2.164353
    17  H    6.350997   5.548667   3.837318   4.136494   2.616879
    18  H    6.308874   5.055494   4.135541   4.965719   3.624332
    19  H    2.564668   5.055281   4.136365   3.624789   4.965980
    20  H    3.928927   5.866531   2.616910   2.165241   3.624869
    21  H    3.278620   5.548937   3.837197   2.616631   4.136031
    22  H    5.055532   2.564934   6.449795   6.574120   5.896204
    23  H    5.549353   3.279297   5.853486   6.449743   5.597728
    24  H    5.866480   3.929128   5.598099   5.896159   4.820833
    25  H    1.097612   3.278946   5.853690   5.598089   6.449619
    26  H    1.091712   2.564475   6.450130   5.896815   6.574125
    27  H    1.091729   3.928784   5.598765   4.821647   5.896454
    28  H    3.929049   1.091713   6.732758   6.921369   6.695476
    29  H    3.278131   1.097608   6.999453   6.732874   6.732736
    30  H    2.564917   1.091731   6.732556   6.695681   6.921025
                   16         17         18         19         20
    16  H    0.000000
    17  H    1.765776   0.000000
    18  H    1.752793   1.765782   0.000000
    19  H    5.896463   6.450223   6.573761   0.000000
    20  H    4.821444   5.598974   5.896285   1.752750   0.000000
    21  H    5.598235   5.854344   6.449862   1.765783   1.765787
    22  H    4.965794   4.135452   3.624451   6.695450   6.921288
    23  H    4.135556   3.835809   2.615593   6.732808   6.732751
    24  H    3.624465   2.615550   2.165240   6.921046   6.695643
    25  H    6.732655   6.999303   6.732459   2.615556   4.135208
    26  H    6.921278   6.732733   6.695426   3.624283   4.965857
    27  H    6.695746   6.732794   6.921139   2.164994   3.624729
    28  H    5.896522   5.597812   4.821098   5.896247   6.574035
    29  H    6.450274   5.853969   5.598719   5.597789   6.449765
    30  H    6.573941   6.449584   5.895996   4.820874   5.896085
                   21         22         23         24         25
    21  H    0.000000
    22  H    6.732816   0.000000
    23  H    6.999464   1.765777   0.000000
    24  H    6.732515   1.752793   1.765765   0.000000
    25  H    3.836526   5.598575   5.854659   6.450078   0.000000
    26  H    4.136376   4.821115   5.598564   5.896144   1.765792
    27  H    2.616682   5.896177   6.450240   6.573678   1.765755
    28  H    6.449977   2.164328   2.617191   3.624458   4.136534
    29  H    5.853758   2.617064   3.838095   4.136393   3.837048
    30  H    5.598314   3.624375   4.136503   4.965808   2.616878
                   26         27         28         29         30
    26  H    0.000000
    27  H    1.752775   0.000000
    28  H    3.623996   4.965670   0.000000
    29  H    2.615708   4.135213   1.765800   0.000000
    30  H    2.164357   3.624367   1.752778   1.765760   0.000000
 Symmetry turned off by external request.
 Stoichiometry    C12H18
 Framework group  C1[X(C12H18)]
 Deg. of freedom    84
 Full point group                 C1      NOp   1
 Rotational constants (GHZ):           1.0259126           1.0258342           0.5238424
 Leave Link  202 at Wed Jan  8 11:21:41 2020, MaxMem= 13421772800 cpu:               0.1 elap:               0.0
 (Enter /opt/software/Gaussian16/bin/avx/g16/l301.exe)
 Standard basis: Aug-CC-pVTZ (5D, 7F)
 Ernie: Thresh=  0.10000D-02 Tol=  0.10000D-05 Strict=F.
 Ernie:  36 primitive shells out of 558 were deleted.
   966 basis functions,  1350 primitive gaussians,  1110 cartesian basis functions
    45 alpha electrons       45 beta electrons
       nuclear repulsion energy       714.0288549216 Hartrees.
 IExCor= 4639 DFT=T Ex+Corr=wB97XD ExCW=0 ScaHFX=  1.000000
 ScaDFX=  1.000000  1.000000  1.000000  1.000000 ScalE2=  1.000000  1.000000
 IRadAn=      5 IRanWt=     -1 IRanGd=            0 ICorTp=0 IEmpDi=121
 HFx  wShort=  0.000000 wLong=  0.200000 cFull=  0.222036 cShort=  0.000000 cLong=  0.777964
 DFx  wShort=  0.000000 wLong=  0.200000 cFull=  0.000000 cShort=  0.000000 cLong=  1.000000
 NAtoms=   30 NActive=   30 NUniq=   30 SFac= 1.00D+00 NAtFMM=   60 NAOKFM=F Big=F
 Integral buffers will be    131072 words long.
 Raffenetti 2 integral format.
 Two-electron integral symmetry is turned off.
 R6Disp:  Grimme-D2 Dispersion energy=       -0.0220243295 Hartrees.
 Nuclear repulsion after empirical dispersion term =      714.0068305920 Hartrees.
 Leave Link  301 at Wed Jan  8 11:21:41 2020, MaxMem= 13421772800 cpu:               0.5 elap:               0.1
 (Enter /opt/software/Gaussian16/bin/avx/g16/l302.exe)
 NPDir=0 NMtPBC=     1 NCelOv=     1 NCel=       1 NClECP=     1 NCelD=      1
         NCelK=      1 NCelE2=     1 NClLst=     1 CellRange=     0.0.
 One-electron integrals computed using PRISM.
 NBasis=   966 RedAO= T EigKep=  1.15D-06  NBF=   966
 NBsUse=   958 1.00D-06 EigRej=  9.88D-07 NBFU=   958
 Precomputing XC quadrature grid using
 IXCGrd= 4 IRadAn=           5 IRanWt=          -1 IRanGd=           0 AccXCQ= 0.00D+00.
 Generated NRdTot=       0 NPtTot=           0 NUsed=           0 NTot=          32
 NSgBfM=  1109  1109  1109  1109  1109 MxSgAt=    30 MxSgA2=    30.
 Leave Link  302 at Wed Jan  8 11:21:43 2020, MaxMem= 13421772800 cpu:              15.5 elap:               2.0
 (Enter /opt/software/Gaussian16/bin/avx/g16/l303.exe)
 DipDrv:  MaxL=1.
 Leave Link  303 at Wed Jan  8 11:21:43 2020, MaxMem= 13421772800 cpu:               1.8 elap:               0.3
 (Enter /opt/software/Gaussian16/bin/avx/g16/l401.exe)
 ExpMin= 2.53D-02 ExpMax= 8.24D+03 ExpMxC= 2.81D+02 IAcc=3 IRadAn=         5 AccDes= 0.00D+00
 Harris functional with IExCor= 4639 and IRadAn=       5 diagonalized for initial guess.
 HarFok:  IExCor= 4639 AccDes= 0.00D+00 IRadAn=         5 IDoV= 1 UseB2=F ITyADJ=14
 ICtDFT=  3500011 ScaDFX=  1.000000  1.000000  1.000000  1.000000
 FoFCou: FMM=F IPFlag=           0 FMFlag=      100000 FMFlg1=           0
         NFxFlg=           0 DoJE=T BraDBF=F KetDBF=T FulRan=T
         wScrn=  0.000000 ICntrl=       500 IOpCl=  0 I1Cent=   200000004 NGrid=           0
         NMat0=    1 NMatS0=      1 NMatT0=    0 NMatD0=    1 NMtDS0=    0 NMtDT0=    0
 Symmetry not used in FoFCou.
 Harris En= -445.635519165976    
 JPrj=0 DoOrth=F DoCkMO=F.
 Leave Link  401 at Wed Jan  8 11:22:00 2020, MaxMem= 13421772800 cpu:             135.4 elap:              17.0
 (Enter /opt/software/Gaussian16/bin/avx/g16/l502.exe)
 Two-electron integral symmetry not used.
 Closed shell SCF:
 Using DIIS extrapolation, IDIIS=  1040.
 NGot= 13421772800 LenX= 13419292384 LenY= 13418059174
 Requested convergence on RMS density matrix=1.00D-08 within 128 cycles.
 Requested convergence on MAX density matrix=1.00D-06.
 Requested convergence on             energy=1.00D-06.
 No special actions if energy rises.
 Fock matrices will be formed incrementally for  20 cycles.

 Cycle   1  Pass 1  IDiag  1:
 FoFJK:  IHMeth= 1 ICntrl=       0 DoSepK=T KAlg= 0 I1Cent=           0 FoldK=F
 IRaf=         1 NMat=       1 IRICut=       1 DoRegI=T DoRafI=F ISym2E= 0 IDoP0=0 IntGTp=1.
 FoFCou: FMM=F IPFlag=           0 FMFlag=      100000 FMFlg1=           0
         NFxFlg=           0 DoJE=T BraDBF=F KetDBF=F FulRan=T
         wScrn=  0.000000 ICntrl=       500 IOpCl=  0 I1Cent=           0 NGrid=           0
         NMat0=    1 NMatS0=      1 NMatT0=    0 NMatD0=    1 NMtDS0=    0 NMtDT0=    0
 Symmetry not used in FoFCou.
 E= -467.991102558914    
 DIIS: error= 4.99D-02 at cycle   1 NSaved=   1.
 NSaved= 1 IEnMin= 1 EnMin= -467.991102558914     IErMin= 1 ErrMin= 4.99D-02
 ErrMax= 4.99D-02  0.00D+00 EMaxC= 1.00D-01 BMatC= 9.30D-01 BMatP= 9.30D-01
 IDIUse=3 WtCom= 5.01D-01 WtEn= 4.99D-01
 Coeff-Com:  0.100D+01
 Coeff-En:   0.100D+01
 Coeff:      0.100D+01
 Gap=     0.296 Goal=   None    Shift=    0.000
 GapD=    0.296 DampG=1.000 DampE=0.500 DampFc=0.5000 IDamp=-1.
 Damping current iteration by 5.00D-01
 RMSDP=3.14D-03 MaxDP=1.51D-01              OVMax= 5.83D-02

 Cycle   2  Pass 1  IDiag  1:
 RMSU=  1.33D-03    CP:  8.79D-01
 E= -468.070443941244     Delta-E=       -0.079341382330 Rises=F Damp=T
 DIIS: error= 2.35D-02 at cycle   2 NSaved=   2.
 NSaved= 2 IEnMin= 2 EnMin= -468.070443941244     IErMin= 2 ErrMin= 2.35D-02
 ErrMax= 2.35D-02  0.00D+00 EMaxC= 1.00D-01 BMatC= 2.08D-01 BMatP= 9.30D-01
 IDIUse=3 WtCom= 7.65D-01 WtEn= 2.35D-01
 Coeff-Com: -0.834D+00 0.183D+01
 Coeff-En:   0.000D+00 0.100D+01
 Coeff:     -0.638D+00 0.164D+01
 Gap=     0.328 Goal=   None    Shift=    0.000
 RMSDP=1.38D-03 MaxDP=7.58D-02 DE=-7.93D-02 OVMax= 2.68D-02

 Cycle   3  Pass 1  IDiag  1:
 RMSU=  5.82D-04    CP:  7.96D-01  1.83D+00
 E= -468.140270041521     Delta-E=       -0.069826100277 Rises=F Damp=F
 DIIS: error= 3.36D-03 at cycle   3 NSaved=   3.
 NSaved= 3 IEnMin= 3 EnMin= -468.140270041521     IErMin= 3 ErrMin= 3.36D-03
 ErrMax= 3.36D-03  0.00D+00 EMaxC= 1.00D-01 BMatC= 5.67D-03 BMatP= 2.08D-01
 IDIUse=3 WtCom= 9.66D-01 WtEn= 3.36D-02
 Coeff-Com: -0.295D+00 0.635D+00 0.660D+00
 Coeff-En:   0.000D+00 0.000D+00 0.100D+01
 Coeff:     -0.285D+00 0.613D+00 0.672D+00
 Gap=     0.322 Goal=   None    Shift=    0.000
 RMSDP=1.30D-04 MaxDP=6.64D-03 DE=-6.98D-02 OVMax= 9.35D-03

 Cycle   4  Pass 1  IDiag  1:
 RMSU=  8.96D-05    CP:  7.87D-01  1.87D+00  9.11D-01
 E= -468.145096814482     Delta-E=       -0.004826772961 Rises=F Damp=F
 DIIS: error= 5.62D-04 at cycle   4 NSaved=   4.
 NSaved= 4 IEnMin= 4 EnMin= -468.145096814482     IErMin= 4 ErrMin= 5.62D-04
 ErrMax= 5.62D-04  0.00D+00 EMaxC= 1.00D-01 BMatC= 8.39D-05 BMatP= 5.67D-03
 IDIUse=3 WtCom= 9.94D-01 WtEn= 5.62D-03
 Coeff-Com: -0.484D-01 0.104D+00 0.162D+00 0.783D+00
 Coeff-En:   0.000D+00 0.000D+00 0.000D+00 0.100D+01
 Coeff:     -0.481D-01 0.104D+00 0.161D+00 0.784D+00
 Gap=     0.319 Goal=   None    Shift=    0.000
 RMSDP=2.68D-05 MaxDP=1.08D-03 DE=-4.83D-03 OVMax= 2.05D-03

 Cycle   5  Pass 1  IDiag  1:
 RMSU=  2.64D-05    CP:  7.87D-01  1.87D+00  9.15D-01  9.80D-01
 E= -468.145169890544     Delta-E=       -0.000073076061 Rises=F Damp=F
 DIIS: error= 2.56D-04 at cycle   5 NSaved=   5.
 NSaved= 5 IEnMin= 5 EnMin= -468.145169890544     IErMin= 5 ErrMin= 2.56D-04
 ErrMax= 2.56D-04  0.00D+00 EMaxC= 1.00D-01 BMatC= 1.25D-05 BMatP= 8.39D-05
 IDIUse=3 WtCom= 9.97D-01 WtEn= 2.56D-03
 Coeff-Com:  0.208D-01-0.452D-01-0.267D-01 0.278D+00 0.773D+00
 Coeff-En:   0.000D+00 0.000D+00 0.000D+00 0.000D+00 0.100D+01
 Coeff:      0.208D-01-0.451D-01-0.266D-01 0.277D+00 0.774D+00
 Gap=     0.320 Goal=   None    Shift=    0.000
 RMSDP=1.42D-05 MaxDP=1.18D-03 DE=-7.31D-05 OVMax= 7.90D-04

 Cycle   6  Pass 1  IDiag  1:
 RMSU=  1.13D-05    CP:  7.87D-01  1.87D+00  9.19D-01  1.05D+00  1.11D+00
 E= -468.145184569437     Delta-E=       -0.000014678893 Rises=F Damp=F
 DIIS: error= 3.39D-05 at cycle   6 NSaved=   6.
 NSaved= 6 IEnMin= 6 EnMin= -468.145184569437     IErMin= 6 ErrMin= 3.39D-05
 ErrMax= 3.39D-05  0.00D+00 EMaxC= 1.00D-01 BMatC= 2.97D-07 BMatP= 1.25D-05
 IDIUse=1 WtCom= 1.00D+00 WtEn= 0.00D+00
 Coeff-Com:  0.703D-02-0.151D-01-0.138D-01 0.125D-01 0.145D+00 0.864D+00
 Coeff:      0.703D-02-0.151D-01-0.138D-01 0.125D-01 0.145D+00 0.864D+00
 Gap=     0.320 Goal=   None    Shift=    0.000
 RMSDP=4.95D-06 MaxDP=3.06D-04 DE=-1.47D-05 OVMax= 2.08D-04

 Cycle   7  Pass 1  IDiag  1:
 RMSU=  2.16D-06    CP:  7.86D-01  1.87D+00  9.16D-01  1.07D+00  1.17D+00
                    CP:  1.23D+00
 E= -468.145185007119     Delta-E=       -0.000000437682 Rises=F Damp=F
 DIIS: error= 8.55D-06 at cycle   7 NSaved=   7.
 NSaved= 7 IEnMin= 7 EnMin= -468.145185007119     IErMin= 7 ErrMin= 8.55D-06
 ErrMax= 8.55D-06  0.00D+00 EMaxC= 1.00D-01 BMatC= 1.18D-08 BMatP= 2.97D-07
 IDIUse=1 WtCom= 1.00D+00 WtEn= 0.00D+00
 Coeff-Com: -0.105D-02 0.231D-02 0.132D-02-0.182D-01-0.489D-01 0.649D-01
 Coeff-Com:  0.100D+01
 Coeff:     -0.105D-02 0.231D-02 0.132D-02-0.182D-01-0.489D-01 0.649D-01
 Coeff:      0.100D+01
 Gap=     0.320 Goal=   None    Shift=    0.000
 RMSDP=1.41D-06 MaxDP=1.09D-04 DE=-4.38D-07 OVMax= 3.87D-05

 Cycle   8  Pass 1  IDiag  1:
 RMSU=  5.55D-07    CP:  7.86D-01  1.87D+00  9.16D-01  1.07D+00  1.20D+00
                    CP:  1.31D+00  1.13D+00
 E= -468.145185029542     Delta-E=       -0.000000022423 Rises=F Damp=F
 DIIS: error= 8.19D-07 at cycle   8 NSaved=   8.
 NSaved= 8 IEnMin= 8 EnMin= -468.145185029542     IErMin= 8 ErrMin= 8.19D-07
 ErrMax= 8.19D-07  0.00D+00 EMaxC= 1.00D-01 BMatC= 1.06D-10 BMatP= 1.18D-08
 IDIUse=1 WtCom= 1.00D+00 WtEn= 0.00D+00
 Coeff-Com:  0.443D-04-0.104D-03 0.355D-04 0.203D-02 0.437D-02-0.199D-01
 Coeff-Com: -0.128D+00 0.114D+01
 Coeff:      0.443D-04-0.104D-03 0.355D-04 0.203D-02 0.437D-02-0.199D-01
 Coeff:     -0.128D+00 0.114D+01
 Gap=     0.320 Goal=   None    Shift=    0.000
 RMSDP=1.61D-07 MaxDP=1.52D-05 DE=-2.24D-08 OVMax= 6.38D-06

 Cycle   9  Pass 1  IDiag  1:
 RMSU=  6.96D-08    CP:  7.86D-01  1.87D+00  9.16D-01  1.07D+00  1.20D+00
                    CP:  1.32D+00  1.14D+00  1.11D+00
 E= -468.145185029838     Delta-E=       -0.000000000296 Rises=F Damp=F
 DIIS: error= 2.40D-07 at cycle   9 NSaved=   9.
 NSaved= 9 IEnMin= 9 EnMin= -468.145185029838     IErMin= 9 ErrMin= 2.40D-07
 ErrMax= 2.40D-07  0.00D+00 EMaxC= 1.00D-01 BMatC= 1.85D-11 BMatP= 1.06D-10
 IDIUse=1 WtCom= 1.00D+00 WtEn= 0.00D+00
 Coeff-Com:  0.373D-04-0.838D-04-0.159D-04 0.105D-02 0.243D-02-0.770D-02
 Coeff-Com: -0.639D-01 0.361D+00 0.707D+00
 Coeff:      0.373D-04-0.838D-04-0.159D-04 0.105D-02 0.243D-02-0.770D-02
 Coeff:     -0.639D-01 0.361D+00 0.707D+00
 Gap=     0.320 Goal=   None    Shift=    0.000
 RMSDP=1.85D-08 MaxDP=1.61D-06 DE=-2.96D-10 OVMax= 2.13D-06

 Cycle  10  Pass 1  IDiag  1:
 RMSU=  1.20D-08    CP:  7.86D-01  1.87D+00  9.16D-01  1.07D+00  1.20D+00
                    CP:  1.32D+00  1.14D+00  1.12D+00  1.13D+00
 E= -468.145185029853     Delta-E=       -0.000000000015 Rises=F Damp=F
 DIIS: error= 1.44D-07 at cycle  10 NSaved=  10.
 NSaved=10 IEnMin=10 EnMin= -468.145185029853     IErMin=10 ErrMin= 1.44D-07
 ErrMax= 1.44D-07  0.00D+00 EMaxC= 1.00D-01 BMatC= 6.04D-12 BMatP= 1.85D-11
 IDIUse=1 WtCom= 1.00D+00 WtEn= 0.00D+00
 Coeff-Com:  0.108D-04-0.233D-04-0.128D-04 0.176D-03 0.436D-03-0.366D-03
 Coeff-Com: -0.102D-01-0.195D-01 0.371D+00 0.659D+00
 Coeff:      0.108D-04-0.233D-04-0.128D-04 0.176D-03 0.436D-03-0.366D-03
 Coeff:     -0.102D-01-0.195D-01 0.371D+00 0.659D+00
 Gap=     0.320 Goal=   None    Shift=    0.000
 RMSDP=8.30D-09 MaxDP=5.94D-07 DE=-1.55D-11 OVMax= 8.30D-07

 SCF Done:  E(RwB97XD) =  -468.145185030     A.U. after   10 cycles
            NFock= 10  Conv=0.83D-08     -V/T= 2.0069
 KE= 4.649343773883D+02 PE=-2.511961360427D+03 EE= 8.648749674172D+02
 Leave Link  502 at Wed Jan  8 12:34:23 2020, MaxMem= 13421772800 cpu:           34735.9 elap:            4342.2
 (Enter /opt/software/Gaussian16/bin/avx/g16/l801.exe)
 DoSCS=F DFT=T ScalE2(SS,OS)=  1.000000  1.000000
 Range of M.O.s used for correlation:     1   958
 NBasis=   966 NAE=    45 NBE=    45 NFC=     0 NFV=     0
 NROrb=    958 NOA=    45 NOB=    45 NVA=   913 NVB=   913

 **** Warning!!: The largest alpha MO coefficient is  0.12216454D+03

 Leave Link  801 at Wed Jan  8 12:34:23 2020, MaxMem= 13421772800 cpu:               0.3 elap:               0.1
 (Enter /opt/software/Gaussian16/bin/avx/g16/l1002.exe)
 Minotr:  Closed shell wavefunction.
          Direct CPHF calculation.
          Differentiating once with respect to electric field.
                with respect to dipole field.
          Electric field/nuclear overlap derivatives assumed to be zero.
          Requested convergence is 1.0D-08 RMS, and 1.0D-07 maximum.
          Secondary convergence is 1.0D-12 RMS, and 1.0D-12 maximum.
          NewPWx=F KeepS1=T KeepF1=T KeepIn=T MapXYZ=F SortEE=F KeepMc=T.
         9319 words used for storage of precomputed grid.
 Two-electron integral symmetry not used.
          MDV=   13421772800 using IRadAn=       1.
          Solving linear equations simultaneously, MaxMat=     384.
          There are     3 degrees of freedom in the 1st order CPHF.  IDoFFX=0 NUNeed=     3.
      3 vectors produced by pass  0 Test12= 1.37D-12 3.33D-08 XBig12= 7.99D+01 2.90D+00.
 AX will form     3 AO Fock derivatives at one time.
 FoFJK:  IHMeth= 1 ICntrl=       0 DoSepK=T KAlg= 0 I1Cent=           0 FoldK=F
 IRaf=         1 NMat=       3 IRICut=       1 DoRegI=T DoRafI=F ISym2E= 0 IDoP0=0 IntGTp=1.
 FoFCou: FMM=F IPFlag=           0 FMFlag=      100000 FMFlg1=           0
         NFxFlg=           0 DoJE=T BraDBF=F KetDBF=F FulRan=T
         wScrn=  0.000000 ICntrl=       500 IOpCl=  0 I1Cent=           0 NGrid=           0
         NMat0=    3 NMatS0=      3 NMatT0=    0 NMatD0=    3 NMtDS0=    0 NMtDT0=    0
 Symmetry not used in FoFCou.
      3 vectors produced by pass  1 Test12= 1.37D-12 3.33D-08 XBig12= 1.31D+01 6.36D-01.
      3 vectors produced by pass  2 Test12= 1.37D-12 3.33D-08 XBig12= 3.12D+00 3.10D-01.
      3 vectors produced by pass  3 Test12= 1.37D-12 3.33D-08 XBig12= 1.18D-01 3.54D-02.
      3 vectors produced by pass  4 Test12= 1.37D-12 3.33D-08 XBig12= 1.94D-02 1.64D-02.
      3 vectors produced by pass  5 Test12= 1.37D-12 3.33D-08 XBig12= 2.09D-03 7.89D-03.
      3 vectors produced by pass  6 Test12= 1.37D-12 3.33D-08 XBig12= 5.84D-05 8.38D-04.
      3 vectors produced by pass  7 Test12= 1.37D-12 3.33D-08 XBig12= 2.20D-06 2.08D-04.
      3 vectors produced by pass  8 Test12= 1.37D-12 3.33D-08 XBig12= 7.72D-08 4.42D-05.
      3 vectors produced by pass  9 Test12= 1.37D-12 3.33D-08 XBig12= 1.97D-09 8.26D-06.
      3 vectors produced by pass 10 Test12= 1.37D-12 3.33D-08 XBig12= 1.23D-10 2.19D-06.
      3 vectors produced by pass 11 Test12= 1.37D-12 3.33D-08 XBig12= 3.69D-11 1.21D-06.
      3 vectors produced by pass 12 Test12= 1.37D-12 3.33D-08 XBig12= 4.33D-12 6.57D-07.
      2 vectors produced by pass 13 Test12= 1.37D-12 3.33D-08 XBig12= 2.77D-13 9.28D-08.
 InvSVY:  IOpt=1 It=  1 EMax= 1.24D-14
 Solved reduced A of dimension    41 with     3 vectors.
 FullF1:  Do perturbations      1 to       3.
 SCF Polarizability for W=    0.000000:
                1             2             3 
      1  0.171184D+03
      2  0.146058D-01  0.171171D+03
      3 -0.295754D-02  0.389176D-02  0.962940D+02
 Isotropic polarizability for W=    0.000000      146.22 Bohr**3.
 SCF Static Hyperpolarizability:
 K=  1 block:
                1 
      1 -0.509939D-01
 K=  2 block:
                1             2 
      1  0.144771D-02
      2 -0.127012D-02  0.463908D-01
 K=  3 block:
                1             2             3 
      1 -0.864930D-02
      2 -0.703083D-02  0.571606D-03
      3 -0.651782D-02  0.151287D-01  0.495873D-03
 End of Minotr F.D. properties file   721 does not exist.
 End of Minotr F.D. properties file   722 does not exist.
 End of Minotr F.D. properties file   788 does not exist.
 Leave Link 1002 at Wed Jan  8 16:00:32 2020, MaxMem= 13421772800 cpu:           98962.1 elap:           12369.5
 (Enter /opt/software/Gaussian16/bin/avx/g16/l601.exe)
 Copying SCF densities to generalized density rwf, IOpCl= 0 IROHF=0.

 **********************************************************************

            Population analysis using the SCF Density.

 **********************************************************************

 Alpha  occ. eigenvalues --  -10.28318 -10.28292 -10.28292 -10.28231 -10.28231
 Alpha  occ. eigenvalues --  -10.28208 -10.27372 -10.27371 -10.27371 -10.27370
 Alpha  occ. eigenvalues --  -10.27369 -10.27368  -0.95913  -0.88943  -0.88941
 Alpha  occ. eigenvalues --   -0.81898  -0.81897  -0.79358  -0.78688  -0.72654
 Alpha  occ. eigenvalues --   -0.72653  -0.63417  -0.63416  -0.58962  -0.54078
 Alpha  occ. eigenvalues --   -0.53034  -0.50567  -0.50566  -0.49857  -0.49853
 Alpha  occ. eigenvalues --   -0.49535  -0.48072  -0.48070  -0.47119  -0.46209
 Alpha  occ. eigenvalues --   -0.46209  -0.45549  -0.45549  -0.44447  -0.43176
 Alpha  occ. eigenvalues --   -0.39722  -0.39319  -0.39319  -0.28922  -0.28922
 Alpha virt. eigenvalues --    0.03102   0.03299   0.03299   0.04168   0.04492
 Alpha virt. eigenvalues --    0.04492   0.05277   0.05277   0.06038   0.06536
 Alpha virt. eigenvalues --    0.06710   0.06710   0.07087   0.07739   0.07740
 Alpha virt. eigenvalues --    0.08697   0.08697   0.09735   0.09937   0.09939
 Alpha virt. eigenvalues --    0.10157   0.10301   0.10301   0.11844   0.11900
 Alpha virt. eigenvalues --    0.11900   0.11987   0.11988   0.12889   0.13526
 Alpha virt. eigenvalues --    0.13527   0.14066   0.14371   0.14509   0.14509
 Alpha virt. eigenvalues --    0.15293   0.15744   0.16257   0.16259   0.16718
 Alpha virt. eigenvalues --    0.16719   0.17554   0.17555   0.17638   0.17987
 Alpha virt. eigenvalues --    0.17988   0.18499   0.18829   0.19116   0.20178
 Alpha virt. eigenvalues --    0.20181   0.20271   0.20489   0.22149   0.22150
 Alpha virt. eigenvalues --    0.22206   0.22208   0.22368   0.23409   0.23410
 Alpha virt. eigenvalues --    0.24278   0.24278   0.24529   0.24532   0.24908
 Alpha virt. eigenvalues --    0.25021   0.25021   0.25293   0.25295   0.25814
 Alpha virt. eigenvalues --    0.26319   0.26319   0.26562   0.26564   0.27217
 Alpha virt. eigenvalues --    0.28314   0.28650   0.30644   0.31642   0.31644
 Alpha virt. eigenvalues --    0.31680   0.32520   0.33319   0.33684   0.33686
 Alpha virt. eigenvalues --    0.34595   0.34597   0.35252   0.35564   0.35839
 Alpha virt. eigenvalues --    0.35840   0.35981   0.35995   0.35997   0.36063
 Alpha virt. eigenvalues --    0.36182   0.36184   0.37088   0.37090   0.37774
 Alpha virt. eigenvalues --    0.37775   0.38300   0.38597   0.38599   0.39373
 Alpha virt. eigenvalues --    0.39756   0.40375   0.40376   0.40973   0.40976
 Alpha virt. eigenvalues --    0.41369   0.42025   0.42828   0.42829   0.42980
 Alpha virt. eigenvalues --    0.43292   0.43500   0.44113   0.44115   0.44232
 Alpha virt. eigenvalues --    0.44233   0.44532   0.44534   0.44637   0.44977
 Alpha virt. eigenvalues --    0.45078   0.45080   0.46248   0.46250   0.46407
 Alpha virt. eigenvalues --    0.46408   0.47139   0.47280   0.47322   0.47325
 Alpha virt. eigenvalues --    0.47772   0.49507   0.49508   0.49772   0.49774
 Alpha virt. eigenvalues --    0.50965   0.50966   0.50982   0.50985   0.50995
 Alpha virt. eigenvalues --    0.51535   0.51957   0.51957   0.52138   0.52141
 Alpha virt. eigenvalues --    0.52811   0.52829   0.53171   0.53175   0.54978
 Alpha virt. eigenvalues --    0.54979   0.54992   0.55558   0.56744   0.57266
 Alpha virt. eigenvalues --    0.57268   0.57875   0.58547   0.58550   0.59683
 Alpha virt. eigenvalues --    0.60019   0.60020   0.60363   0.60364   0.60489
 Alpha virt. eigenvalues --    0.60948   0.60950   0.61410   0.61459   0.61461
 Alpha virt. eigenvalues --    0.63284   0.64822   0.64824   0.64986   0.65702
 Alpha virt. eigenvalues --    0.65705   0.67407   0.67829   0.67875   0.67880
 Alpha virt. eigenvalues --    0.68362   0.68363   0.68781   0.69849   0.70745
 Alpha virt. eigenvalues --    0.70748   0.71084   0.71093   0.71187   0.71191
 Alpha virt. eigenvalues --    0.71194   0.72053   0.73763   0.73906   0.73908
 Alpha virt. eigenvalues --    0.74487   0.76383   0.76384   0.76400   0.76404
 Alpha virt. eigenvalues --    0.76556   0.77799   0.77800   0.78108   0.79616
 Alpha virt. eigenvalues --    0.80755   0.80755   0.81529   0.82037   0.82039
 Alpha virt. eigenvalues --    0.83402   0.83408   0.83737   0.84037   0.85547
 Alpha virt. eigenvalues --    0.85656   0.85657   0.85924   0.85929   0.86257
 Alpha virt. eigenvalues --    0.86918   0.86925   0.87424   0.87442   0.87443
 Alpha virt. eigenvalues --    0.87508   0.88086   0.88675   0.89454   0.89785
 Alpha virt. eigenvalues --    0.90175   0.90175   0.90667   0.90672   0.91146
 Alpha virt. eigenvalues --    0.91149   0.92102   0.92106   0.93228   0.93232
 Alpha virt. eigenvalues --    0.93276   0.93276   0.93538   0.93547   0.94881
 Alpha virt. eigenvalues --    0.95079   0.95080   0.95240   0.95244   0.96261
 Alpha virt. eigenvalues --    0.96661   0.96663   0.97812   0.98327   0.98332
 Alpha virt. eigenvalues --    0.99889   0.99898   0.99899   1.00682   1.00685
 Alpha virt. eigenvalues --    1.00881   1.00882   1.01150   1.02125   1.02129
 Alpha virt. eigenvalues --    1.02989   1.03377   1.03470   1.03868   1.04196
 Alpha virt. eigenvalues --    1.04200   1.06846   1.06849   1.07077   1.09216
 Alpha virt. eigenvalues --    1.09221   1.09439   1.09763   1.09894   1.10785
 Alpha virt. eigenvalues --    1.11507   1.11818   1.11825   1.12454   1.12459
 Alpha virt. eigenvalues --    1.13230   1.13231   1.13888   1.13895   1.14509
 Alpha virt. eigenvalues --    1.14516   1.16286   1.17255   1.17258   1.17434
 Alpha virt. eigenvalues --    1.17442   1.17637   1.17637   1.18274   1.19378
 Alpha virt. eigenvalues --    1.19814   1.19874   1.20612   1.20616   1.21048
 Alpha virt. eigenvalues --    1.22048   1.22050   1.22544   1.23787   1.23787
 Alpha virt. eigenvalues --    1.24024   1.25216   1.25465   1.25469   1.26847
 Alpha virt. eigenvalues --    1.27446   1.27452   1.27856   1.28652   1.28657
 Alpha virt. eigenvalues --    1.29695   1.30092   1.30689   1.31263   1.31268
 Alpha virt. eigenvalues --    1.32908   1.32911   1.33017   1.33193   1.33199
 Alpha virt. eigenvalues --    1.36986   1.36995   1.37331   1.37334   1.38708
 Alpha virt. eigenvalues --    1.38718   1.38927   1.39180   1.39183   1.40121
 Alpha virt. eigenvalues --    1.41047   1.41052   1.42350   1.42450   1.43021
 Alpha virt. eigenvalues --    1.44463   1.44653   1.44655   1.44980   1.45071
 Alpha virt. eigenvalues --    1.45074   1.45310   1.45314   1.47347   1.47354
 Alpha virt. eigenvalues --    1.48438   1.48440   1.48448   1.49429   1.49434
 Alpha virt. eigenvalues --    1.51354   1.51566   1.51571   1.53255   1.53262
 Alpha virt. eigenvalues --    1.54011   1.55771   1.55774   1.55780   1.57242
 Alpha virt. eigenvalues --    1.57453   1.57827   1.57829   1.58105   1.58113
 Alpha virt. eigenvalues --    1.59282   1.59284   1.59962   1.59972   1.60332
 Alpha virt. eigenvalues --    1.60414   1.60420   1.60422   1.61762   1.61765
 Alpha virt. eigenvalues --    1.62068   1.62070   1.62297   1.63278   1.63282
 Alpha virt. eigenvalues --    1.64213   1.64222   1.64555   1.65906   1.65932
 Alpha virt. eigenvalues --    1.66354   1.66364   1.66985   1.66990   1.67536
 Alpha virt. eigenvalues --    1.68257   1.69086   1.69087   1.69187   1.69886
 Alpha virt. eigenvalues --    1.69891   1.72092   1.72095   1.73235   1.73330
 Alpha virt. eigenvalues --    1.73332   1.75979   1.75991   1.76332   1.76714
 Alpha virt. eigenvalues --    1.77141   1.77175   1.78944   1.78955   1.80064
 Alpha virt. eigenvalues --    1.80427   1.80431   1.80619   1.80622   1.81730
 Alpha virt. eigenvalues --    1.81736   1.82101   1.82260   1.82265   1.83025
 Alpha virt. eigenvalues --    1.83888   1.86084   1.86096   1.86311   1.86441
 Alpha virt. eigenvalues --    1.86444   1.87106   1.87111   1.88603   1.88611
 Alpha virt. eigenvalues --    1.88825   1.89470   1.90824   1.90831   1.92527
 Alpha virt. eigenvalues --    1.93388   1.94564   1.94785   1.95779   1.95786
 Alpha virt. eigenvalues --    1.96072   1.96078   1.98375   1.99663   2.00156
 Alpha virt. eigenvalues --    2.00330   2.00333   2.01236   2.02864   2.02867
 Alpha virt. eigenvalues --    2.04903   2.04904   2.05832   2.05837   2.06693
 Alpha virt. eigenvalues --    2.06696   2.07347   2.07397   2.07400   2.08624
 Alpha virt. eigenvalues --    2.08951   2.12442   2.12450   2.13270   2.14062
 Alpha virt. eigenvalues --    2.14349   2.14364   2.15150   2.15152   2.16502
 Alpha virt. eigenvalues --    2.16507   2.16680   2.16720   2.18289   2.18292
 Alpha virt. eigenvalues --    2.18750   2.19588   2.20604   2.20607   2.22953
 Alpha virt. eigenvalues --    2.22954   2.24620   2.24625   2.24643   2.24775
 Alpha virt. eigenvalues --    2.24797   2.25329   2.25337   2.27842   2.27847
 Alpha virt. eigenvalues --    2.27921   2.28521   2.28674   2.31300   2.31306
 Alpha virt. eigenvalues --    2.32649   2.32652   2.33188   2.33189   2.35587
 Alpha virt. eigenvalues --    2.35588   2.35595   2.37336   2.38343   2.39864
 Alpha virt. eigenvalues --    2.39869   2.40844   2.45708   2.47925   2.47928
 Alpha virt. eigenvalues --    2.49541   2.49564   2.50619   2.50624   2.51313
 Alpha virt. eigenvalues --    2.55725   2.57135   2.57142   2.57526   2.57531
 Alpha virt. eigenvalues --    2.59499   2.59717   2.59723   2.63517   2.63520
 Alpha virt. eigenvalues --    2.63597   2.67006   2.68228   2.68266   2.68267
 Alpha virt. eigenvalues --    2.70057   2.81469   2.81473   2.81785   2.82162
 Alpha virt. eigenvalues --    2.82170   2.82260   2.83026   2.91594   2.95774
 Alpha virt. eigenvalues --    3.10445   3.12505   3.12511   3.14859   3.15638
 Alpha virt. eigenvalues --    3.15639   3.19804   3.20931   3.22263   3.22276
 Alpha virt. eigenvalues --    3.22966   3.22972   3.24242   3.24257   3.24744
 Alpha virt. eigenvalues --    3.26325   3.26331   3.29174   3.29179   3.30441
 Alpha virt. eigenvalues --    3.32582   3.33223   3.33228   3.33488   3.35096
 Alpha virt. eigenvalues --    3.35549   3.35550   3.36070   3.38684   3.38697
 Alpha virt. eigenvalues --    3.38719   3.41493   3.41884   3.41898   3.42639
 Alpha virt. eigenvalues --    3.42647   3.43443   3.43446   3.43463   3.43477
 Alpha virt. eigenvalues --    3.47216   3.47222   3.48387   3.48622   3.49829
 Alpha virt. eigenvalues --    3.49829   3.51349   3.51361   3.51948   3.52927
 Alpha virt. eigenvalues --    3.52928   3.53175   3.53182   3.54013   3.54729
 Alpha virt. eigenvalues --    3.56348   3.56359   3.57352   3.57355   3.58698
 Alpha virt. eigenvalues --    3.60316   3.61508   3.61515   3.61632   3.61639
 Alpha virt. eigenvalues --    3.62619   3.62718   3.63432   3.64369   3.66267
 Alpha virt. eigenvalues --    3.66273   3.67267   3.67369   3.67460   3.67461
 Alpha virt. eigenvalues --    3.67605   3.67607   3.72335   3.72346   3.72500
 Alpha virt. eigenvalues --    3.73206   3.73219   3.73240   3.73251   3.75179
 Alpha virt. eigenvalues --    3.75182   3.75563   3.75568   3.75627   3.75632
 Alpha virt. eigenvalues --    3.76141   3.76505   3.76846   3.79205   3.79286
 Alpha virt. eigenvalues --    3.80328   3.80341   3.81293   3.81300   3.82840
 Alpha virt. eigenvalues --    3.82849   3.84600   3.84618   3.85099   3.85103
 Alpha virt. eigenvalues --    3.88120   3.88123   3.89104   3.90822   3.90832
 Alpha virt. eigenvalues --    3.92152   3.92160   3.93643   3.96387   3.97350
 Alpha virt. eigenvalues --    3.97356   3.97823   3.97827   3.98059   3.99418
 Alpha virt. eigenvalues --    3.99439   4.00966   4.00972   4.02453   4.02457
 Alpha virt. eigenvalues --    4.02745   4.03562   4.03710   4.03720   4.04837
 Alpha virt. eigenvalues --    4.04849   4.06419   4.07615   4.07953   4.07965
 Alpha virt. eigenvalues --    4.08238   4.08406   4.08410   4.08556   4.08839
 Alpha virt. eigenvalues --    4.09245   4.09252   4.11158   4.15871   4.16593
 Alpha virt. eigenvalues --    4.16719   4.16723   4.21099   4.21109   4.21144
 Alpha virt. eigenvalues --    4.21146   4.21304   4.23223   4.23228   4.24690
 Alpha virt. eigenvalues --    4.24694   4.24793   4.27062   4.27126   4.27198
 Alpha virt. eigenvalues --    4.29830   4.31291   4.31294   4.32123   4.33458
 Alpha virt. eigenvalues --    4.33466   4.37558   4.37563   4.38441   4.38868
 Alpha virt. eigenvalues --    4.38871   4.39639   4.41229   4.41239   4.41375
 Alpha virt. eigenvalues --    4.41850   4.41861   4.42973   4.43200   4.44441
 Alpha virt. eigenvalues --    4.44482   4.44485   4.45972   4.47766   4.47783
 Alpha virt. eigenvalues --    4.47794   4.48982   4.48983   4.51240   4.52263
 Alpha virt. eigenvalues --    4.54850   4.54853   4.55278   4.55287   4.58020
 Alpha virt. eigenvalues --    4.58027   4.59484   4.59490   4.60328   4.61346
 Alpha virt. eigenvalues --    4.61351   4.61601   4.61608   4.61689   4.61706
 Alpha virt. eigenvalues --    4.61712   4.63551   4.63574   4.64493   4.65125
 Alpha virt. eigenvalues --    4.68988   4.68991   4.70405   4.70407   4.71362
 Alpha virt. eigenvalues --    4.71365   4.72595   4.74020   4.74374   4.74696
 Alpha virt. eigenvalues --    4.74707   4.74764   4.81035   4.81044   4.83113
 Alpha virt. eigenvalues --    4.83116   4.83923   4.84990   4.86674   4.87517
 Alpha virt. eigenvalues --    4.87532   4.89556   4.89574   4.90147   4.94572
 Alpha virt. eigenvalues --    4.95084   4.95107   4.96473   4.96483   4.99505
 Alpha virt. eigenvalues --    5.01068   5.03284   5.03297   5.03332   5.06778
 Alpha virt. eigenvalues --    5.06807   5.09635   5.09640   5.11772   5.12092
 Alpha virt. eigenvalues --    5.12103   5.12911   5.13629   5.13647   5.15049
 Alpha virt. eigenvalues --    5.15594   5.15822   5.15830   5.19444   5.22887
 Alpha virt. eigenvalues --    5.22894   5.23019   5.23043   5.24496   5.24659
 Alpha virt. eigenvalues --    5.24666   5.24687   5.30236   5.30824   5.30828
 Alpha virt. eigenvalues --    5.30966   5.31197   5.31602   5.31609   5.33399
 Alpha virt. eigenvalues --    5.34813   5.35882   5.35888   5.39492   5.39499
 Alpha virt. eigenvalues --    5.41416   5.45257   5.45264   5.50177   5.50185
 Alpha virt. eigenvalues --    5.51680   5.52075   5.52080   5.53725   5.53945
 Alpha virt. eigenvalues --    5.53948   5.58020   5.58142   5.58155   5.58563
 Alpha virt. eigenvalues --    5.67890   5.68541   5.68543   5.74746   5.74748
 Alpha virt. eigenvalues --    5.74754   5.75699   5.75719   5.79492   5.83856
 Alpha virt. eigenvalues --    5.83865   5.91198   5.91200   5.91596   5.95895
 Alpha virt. eigenvalues --    5.96685   5.96687   5.98296   5.99684   5.99696
 Alpha virt. eigenvalues --    5.99711   6.00109   6.00131   6.02108   6.03283
 Alpha virt. eigenvalues --    6.03288   6.04127   6.04139   6.06624   6.06633
 Alpha virt. eigenvalues --    6.06879   6.19853   6.28529   6.28534   6.29962
 Alpha virt. eigenvalues --    6.29975   6.35535   6.50935   6.54699   6.55304
 Alpha virt. eigenvalues --    6.55307   6.55635   6.60042   6.60045   6.65412
 Alpha virt. eigenvalues --    6.71377   6.71396   6.76026   6.78954   6.78975
 Alpha virt. eigenvalues --    6.85725  16.19207  16.19324  16.24540  17.48382
 Alpha virt. eigenvalues --   17.48427  17.86623  19.50907  19.50921  19.92819
 Alpha virt. eigenvalues --   20.20114  20.65634  20.65658
          Condensed to atoms (all electrons):
               1          2          3          4          5          6
     1  C    7.392339  -0.136257  -0.136257  -0.271503  -0.271377   0.188075
     2  C   -0.136257   7.391895  -0.271693  -0.136621   0.188570  -0.271498
     3  C   -0.136257  -0.271693   7.392899   0.188252  -0.137101  -0.271446
     4  C   -0.271503  -0.136621   0.188252   7.392642  -0.271816  -0.136162
     5  C   -0.271377   0.188570  -0.137101  -0.271816   7.392331  -0.135926
     6  C    0.188075  -0.271498  -0.271446  -0.136162  -0.135926   7.392255
     7  C   -0.899184  -0.009596  -0.010198   0.069462   0.069783  -0.073104
     8  C   -0.010137  -0.898283   0.069666  -0.009868  -0.073109   0.069492
     9  C   -0.009411   0.069595  -0.900244  -0.073159  -0.009119   0.069537
    10  C    0.069565  -0.008777  -0.073210  -0.900268   0.069578  -0.009758
    11  C    0.069498  -0.073082  -0.009749   0.069633  -0.898455  -0.010102
    12  C   -0.073166   0.069714   0.069608  -0.010207  -0.009523  -0.899390
    13  H   -0.092743   0.012972   0.013002   0.004523   0.004559  -0.006865
    14  H   -0.082594   0.004124  -0.011118   0.000679  -0.001560  -0.008588
    15  H   -0.082268  -0.011157   0.004094  -0.001595   0.000651  -0.008547
    16  H   -0.011332  -0.082534  -0.001565   0.004126  -0.008609   0.000645
    17  H    0.012985  -0.092723   0.004538   0.012960  -0.006887   0.004561
    18  H    0.004217  -0.082209   0.000688  -0.011235  -0.008536  -0.001580
    19  H    0.004219   0.000621  -0.082480  -0.008593  -0.011395  -0.001496
    20  H   -0.011259  -0.001549  -0.082667  -0.008527   0.004357   0.000545
    21  H    0.013036   0.004535  -0.092772  -0.006885   0.013014   0.004543
    22  H    0.000555   0.004280  -0.008558  -0.082668  -0.001501  -0.011305
    23  H    0.004546   0.013017  -0.006894  -0.092824   0.004533   0.013045
    24  H   -0.001524  -0.011300  -0.008559  -0.082430   0.000590   0.004234
    25  H    0.004561  -0.006885   0.012943   0.004547  -0.092639   0.012965
    26  H    0.000659  -0.008607   0.004138  -0.001551  -0.082492  -0.011385
    27  H   -0.001607  -0.008531  -0.011199   0.000675  -0.082340   0.004238
    28  H   -0.008586  -0.001558   0.000684  -0.011061   0.004126  -0.082687
    29  H   -0.006876   0.004549   0.004536   0.013011   0.012974  -0.092787
    30  H   -0.008547   0.000657  -0.001564   0.004064  -0.011281  -0.082088
               7          8          9         10         11         12
     1  C   -0.899184  -0.010137  -0.009411   0.069565   0.069498  -0.073166
     2  C   -0.009596  -0.898283   0.069595  -0.008777  -0.073082   0.069714
     3  C   -0.010198   0.069666  -0.900244  -0.073210  -0.009749   0.069608
     4  C    0.069462  -0.009868  -0.073159  -0.900268   0.069633  -0.010207
     5  C    0.069783  -0.073109  -0.009119   0.069578  -0.898455  -0.009523
     6  C   -0.073104   0.069492   0.069537  -0.009758  -0.010102  -0.899390
     7  C    6.745048  -0.050472  -0.050451   0.009696   0.009668  -0.015575
     8  C   -0.050472   6.743985   0.009652  -0.050651  -0.015566   0.009688
     9  C   -0.050451   0.009652   6.743257  -0.015541  -0.050578   0.009674
    10  C    0.009696  -0.050651  -0.015541   6.743250   0.009641  -0.050472
    11  C    0.009668  -0.015566  -0.050578   0.009641   6.744087  -0.050508
    12  C   -0.015575   0.009688   0.009674  -0.050472  -0.050508   6.745060
    13  H    0.393968  -0.029289  -0.029319   0.002232   0.002237  -0.001131
    14  H    0.445801   0.000416   0.039189  -0.001093   0.002220  -0.000144
    15  H    0.446237   0.039206   0.000456   0.002222  -0.001098  -0.000147
    16  H    0.039349   0.446175   0.002214   0.000499  -0.000147  -0.001098
    17  H   -0.029329   0.394109   0.002233  -0.029336  -0.001131   0.002244
    18  H    0.000392   0.445796  -0.001096   0.039109  -0.000145   0.002232
    19  H    0.000433  -0.001098   0.446604  -0.000149   0.039315   0.002231
    20  H    0.039323   0.002225   0.446070  -0.000140   0.000405  -0.001104
    21  H   -0.029393   0.002237   0.393569  -0.001128  -0.029359   0.002238
    22  H   -0.001102   0.000428  -0.000141   0.445863   0.002233   0.039371
    23  H    0.002238  -0.029370  -0.001128   0.393600   0.002236  -0.029395
    24  H    0.002237   0.039212  -0.000149   0.446821  -0.001103   0.000409
    25  H    0.002241  -0.001131  -0.029315   0.002236   0.394033  -0.029341
    26  H   -0.001098  -0.000146   0.000476   0.002215   0.446226   0.039404
    27  H    0.002225  -0.000144   0.039064  -0.001094   0.445837   0.000384
    28  H   -0.000143   0.002217  -0.001089   0.039170   0.000401   0.445776
    29  H   -0.001129   0.002234   0.002235  -0.029310  -0.029316   0.393976
    30  H   -0.000149  -0.001094   0.002219   0.000422   0.039239   0.446243
              13         14         15         16         17         18
     1  C   -0.092743  -0.082594  -0.082268  -0.011332   0.012985   0.004217
     2  C    0.012972   0.004124  -0.011157  -0.082534  -0.092723  -0.082209
     3  C    0.013002  -0.011118   0.004094  -0.001565   0.004538   0.000688
     4  C    0.004523   0.000679  -0.001595   0.004126   0.012960  -0.011235
     5  C    0.004559  -0.001560   0.000651  -0.008609  -0.006887  -0.008536
     6  C   -0.006865  -0.008588  -0.008547   0.000645   0.004561  -0.001580
     7  C    0.393968   0.445801   0.446237   0.039349  -0.029329   0.000392
     8  C   -0.029289   0.000416   0.039206   0.446175   0.394109   0.445796
     9  C   -0.029319   0.039189   0.000456   0.002214   0.002233  -0.001096
    10  C    0.002232  -0.001093   0.002222   0.000499  -0.029336   0.039109
    11  C    0.002237   0.002220  -0.001098  -0.000147  -0.001131  -0.000145
    12  C   -0.001131  -0.000144  -0.000147  -0.001098   0.002244   0.002232
    13  H    0.333873  -0.011803  -0.011959  -0.008386  -0.000916   0.000500
    14  H   -0.011803   0.508248  -0.041366   0.004514   0.000498  -0.001504
    15  H   -0.011959  -0.041366   0.508862  -0.004659  -0.008379   0.004520
    16  H   -0.008386   0.004514  -0.004659   0.509168  -0.012051  -0.041299
    17  H   -0.000916   0.000498  -0.008379  -0.012051   0.333790  -0.011652
    18  H    0.000500  -0.001504   0.004520  -0.041299  -0.011652   0.508052
    19  H    0.000514   0.004516  -0.001510  -0.000022   0.000055  -0.000139
    20  H   -0.008432  -0.004735   0.004572   0.000323  -0.000058  -0.000022
    21  H   -0.000928  -0.008387   0.000501  -0.000059   0.000375   0.000055
    22  H    0.000054  -0.000139  -0.000022  -0.001510   0.000519   0.004511
    23  H    0.000375   0.000056  -0.000059   0.000511  -0.000937  -0.008416
    24  H   -0.000057  -0.000022   0.000326   0.004564  -0.008431  -0.004733
    25  H    0.000376  -0.000058   0.000055  -0.000031  -0.000089  -0.000031
    26  H    0.000055  -0.000022  -0.000139   0.000005  -0.000031  -0.000027
    27  H   -0.000058   0.000323  -0.000022  -0.000027  -0.000031   0.000005
    28  H   -0.000031   0.000005  -0.000028  -0.000023  -0.000059   0.000324
    29  H   -0.000089  -0.000031  -0.000031   0.000055   0.000376  -0.000058
    30  H   -0.000031  -0.000028   0.000005  -0.000139   0.000055  -0.000022
              19         20         21         22         23         24
     1  C    0.004219  -0.011259   0.013036   0.000555   0.004546  -0.001524
     2  C    0.000621  -0.001549   0.004535   0.004280   0.013017  -0.011300
     3  C   -0.082480  -0.082667  -0.092772  -0.008558  -0.006894  -0.008559
     4  C   -0.008593  -0.008527  -0.006885  -0.082668  -0.092824  -0.082430
     5  C   -0.011395   0.004357   0.013014  -0.001501   0.004533   0.000590
     6  C   -0.001496   0.000545   0.004543  -0.011305   0.013045   0.004234
     7  C    0.000433   0.039323  -0.029393  -0.001102   0.002238   0.002237
     8  C   -0.001098   0.002225   0.002237   0.000428  -0.029370   0.039212
     9  C    0.446604   0.446070   0.393569  -0.000141  -0.001128  -0.000149
    10  C   -0.000149  -0.000140  -0.001128   0.445863   0.393600   0.446821
    11  C    0.039315   0.000405  -0.029359   0.002233   0.002236  -0.001103
    12  C    0.002231  -0.001104   0.002238   0.039371  -0.029395   0.000409
    13  H    0.000514  -0.008432  -0.000928   0.000054   0.000375  -0.000057
    14  H    0.004516  -0.004735  -0.008387  -0.000139   0.000056  -0.000022
    15  H   -0.001510   0.004572   0.000501  -0.000022  -0.000059   0.000326
    16  H   -0.000022   0.000323  -0.000059  -0.001510   0.000511   0.004564
    17  H    0.000055  -0.000058   0.000375   0.000519  -0.000937  -0.008431
    18  H   -0.000139  -0.000022   0.000055   0.004511  -0.008416  -0.004733
    19  H    0.510750  -0.042317  -0.011878  -0.000029  -0.000031   0.000005
    20  H   -0.042317   0.510684  -0.011897   0.000006  -0.000031  -0.000029
    21  H   -0.011878  -0.011897   0.333720  -0.000030  -0.000089  -0.000031
    22  H   -0.000029   0.000006  -0.000030   0.511112  -0.012004  -0.042377
    23  H   -0.000031  -0.000031  -0.000089  -0.012004   0.333742  -0.011760
    24  H    0.000005  -0.000029  -0.000031  -0.042377  -0.011760   0.510507
    25  H   -0.008440   0.000518  -0.000933  -0.000058   0.000375   0.000055
    26  H    0.004570  -0.001510   0.000506   0.000324  -0.000059  -0.000022
    27  H   -0.004759   0.004513  -0.008395  -0.000022   0.000055  -0.000139
    28  H   -0.000022  -0.000139   0.000056  -0.004725  -0.008387   0.004513
    29  H   -0.000057   0.000054   0.000375  -0.008452  -0.000923   0.000513
    30  H    0.000325  -0.000023  -0.000059   0.004573   0.000498  -0.001510
              25         26         27         28         29         30
     1  C    0.004561   0.000659  -0.001607  -0.008586  -0.006876  -0.008547
     2  C   -0.006885  -0.008607  -0.008531  -0.001558   0.004549   0.000657
     3  C    0.012943   0.004138  -0.011199   0.000684   0.004536  -0.001564
     4  C    0.004547  -0.001551   0.000675  -0.011061   0.013011   0.004064
     5  C   -0.092639  -0.082492  -0.082340   0.004126   0.012974  -0.011281
     6  C    0.012965  -0.011385   0.004238  -0.082687  -0.092787  -0.082088
     7  C    0.002241  -0.001098   0.002225  -0.000143  -0.001129  -0.000149
     8  C   -0.001131  -0.000146  -0.000144   0.002217   0.002234  -0.001094
     9  C   -0.029315   0.000476   0.039064  -0.001089   0.002235   0.002219
    10  C    0.002236   0.002215  -0.001094   0.039170  -0.029310   0.000422
    11  C    0.394033   0.446226   0.445837   0.000401  -0.029316   0.039239
    12  C   -0.029341   0.039404   0.000384   0.445776   0.393976   0.446243
    13  H    0.000376   0.000055  -0.000058  -0.000031  -0.000089  -0.000031
    14  H   -0.000058  -0.000022   0.000323   0.000005  -0.000031  -0.000028
    15  H    0.000055  -0.000139  -0.000022  -0.000028  -0.000031   0.000005
    16  H   -0.000031   0.000005  -0.000027  -0.000023   0.000055  -0.000139
    17  H   -0.000089  -0.000031  -0.000031  -0.000059   0.000376   0.000055
    18  H   -0.000031  -0.000027   0.000005   0.000324  -0.000058  -0.000022
    19  H   -0.008440   0.004570  -0.004759  -0.000022  -0.000057   0.000325
    20  H    0.000518  -0.001510   0.004513  -0.000139   0.000054  -0.000023
    21  H   -0.000933   0.000506  -0.008395   0.000056   0.000375  -0.000059
    22  H   -0.000058   0.000324  -0.000022  -0.004725  -0.008452   0.004573
    23  H    0.000375  -0.000059   0.000055  -0.008387  -0.000923   0.000498
    24  H    0.000055  -0.000022  -0.000139   0.004513   0.000513  -0.001510
    25  H    0.333786  -0.012064  -0.011658   0.000498  -0.000918  -0.008370
    26  H   -0.012064   0.509156  -0.041304   0.004510  -0.008402  -0.004618
    27  H   -0.011658  -0.041304   0.508122  -0.001505   0.000503   0.004515
    28  H    0.000498   0.004510  -0.001505   0.508497  -0.011858  -0.041428
    29  H   -0.000918  -0.008402   0.000503  -0.011858   0.333888  -0.011899
    30  H   -0.008370  -0.004618   0.004515  -0.041428  -0.011899   0.508776
 Mulliken charges:
               1
     1  C    0.350375
     2  C    0.348330
     3  C    0.352224
     4  C    0.352398
     5  C    0.348598
     6  C    0.350577
     7  C   -1.107180
     8  C   -1.106379
     9  C   -1.105303
    10  C   -1.105193
    11  C   -1.106572
    12  C   -1.107050
    13  H    0.432797
    14  H    0.162605
    15  H    0.161278
    16  H    0.161346
    17  H    0.432743
    18  H    0.162303
    19  H    0.160256
    20  H    0.160844
    21  H    0.433463
    22  H    0.160812
    23  H    0.433477
    24  H    0.160191
    25  H    0.432774
    26  H    0.161237
    27  H    0.162380
    28  H    0.162555
    29  H    0.432858
    30  H    0.161257
 Sum of Mulliken charges =  -0.00000
 Mulliken charges with hydrogens summed into heavy atoms:
               1
     1  C    0.350375
     2  C    0.348330
     3  C    0.352224
     4  C    0.352398
     5  C    0.348598
     6  C    0.350577
     7  C   -0.350500
     8  C   -0.349988
     9  C   -0.350739
    10  C   -0.350713
    11  C   -0.350181
    12  C   -0.350380
 Electronic spatial extent (au):  <R**2>=           2289.1928
 Charge=             -0.0000 electrons
 Dipole moment (field-independent basis, Debye):
    X=              0.0000    Y=             -0.0000    Z=              0.0001  Tot=              0.0001
 Quadrupole moment (field-independent basis, Debye-Ang):
   XX=            -71.4409   YY=            -71.4447   ZZ=            -77.0341
   XY=             -0.0023   XZ=             -0.0010   YZ=             -0.0008
 Traceless Quadrupole moment (field-independent basis, Debye-Ang):
   XX=              1.8657   YY=              1.8618   ZZ=             -3.7275
   XY=             -0.0023   XZ=             -0.0010   YZ=             -0.0008
 Octapole moment (field-independent basis, Debye-Ang**2):
  XXX=              0.0009  YYY=             -0.0003  ZZZ=              0.0007  XYY=              0.0005
  XXY=             -0.0010  XXZ=              0.0001  XZZ=             -0.0003  YZZ=              0.0013
  YYZ=             -0.0000  XYZ=              0.0010
 Hexadecapole moment (field-independent basis, Debye-Ang**3):
 XXXX=          -1531.1183 YYYY=          -1531.0150 ZZZZ=           -130.6733 XXXY=             -0.0185
 XXXZ=              7.9318 YYYX=             -0.0235 YYYZ=              3.9313 ZZZX=             -0.0004
 ZZZY=             -0.0011 XXYY=           -510.3676 XXZZ=           -270.1623 YYZZ=           -270.1560
 XXYZ=             -3.9399 YYXZ=             -7.9516 ZZXY=              0.0020
 N-N= 7.140068305920D+02 E-N=-2.511961361970D+03  KE= 4.649343773883D+02
  Exact polarizability:     171.184       0.015     171.171      -0.003       0.004      96.294
 Approx polarizability:     177.960       0.002     177.955      -0.002      -0.001     122.683
 No NMR shielding tensors so no spin-rotation constants.
 Leave Link  601 at Wed Jan  8 16:00:34 2020, MaxMem= 13421772800 cpu:              10.5 elap:               1.5
 (Enter /opt/software/Gaussian16/bin/avx/g16/l9999.exe)

 ----------------------------------------------------------------------

 Electric dipole moment (input orientation):
 (Debye = 10**-18 statcoulomb cm , SI units = C m)
                  (au)            (Debye)         (10**-30 SI)
   Tot        0.478025D-04      0.121502D-03      0.405287D-03
   x          0.000000D+00      0.000000D+00      0.000000D+00
   y         -0.126864D-04     -0.322457D-04     -0.107560D-03
   z          0.460883D-04      0.117145D-03      0.390753D-03

 Dipole polarizability, Alpha (input orientation).
 (esu units = cm**3 , SI units = C**2 m**2 J**-1)
 Alpha(0;0):
               (au)            (10**-24 esu)      (10**-40 SI)
   iso        0.146216D+03      0.216670D+02      0.241078D+02
   aniso      0.748835D+02      0.110966D+02      0.123466D+02
   xx         0.171184D+03      0.253668D+02      0.282244D+02
   yx         0.146058D-01      0.216436D-02      0.240817D-02
   yy         0.171171D+03      0.253650D+02      0.282224D+02
   zx        -0.295754D-02     -0.438262D-03     -0.487632D-03
   zy         0.389176D-02      0.576699D-03      0.641665D-03
   zz         0.962940D+02      0.142693D+02      0.158767D+02

 First dipole hyperpolarizability, Beta (input orientation).
 ||, _|_  parallel and perpendicular components, (z) with respect to z axis,
 vector components x,y,z.  Values do not include the 1/n! factor of 1/2.
 (esu units = statvolt**-1 cm**4 , SI units = C**3 m**3 J**-2)
 Beta(0;0,0):
               (au)            (10**-30 esu)      (10**-50 SI)
   || (z)    -0.454909D-02     -0.393006D-04     -0.145860D-04
   _|_(z)    -0.151636D-02     -0.131002D-04     -0.486201D-05
   x         -0.176346D+00     -0.152349D-02     -0.565428D-03
   y          0.188901D+00      0.163196D-02      0.605686D-03
   z         -0.227455D-01     -0.196503D-03     -0.729301D-04
   ||         0.518841D-01      0.448238D-03      0.166359D-03
   xxx       -0.509939D-01     -0.440548D-03     -0.163505D-03
   xxy        0.144771D-02      0.125071D-04      0.464188D-05
   yxy       -0.127012D-02     -0.109729D-04     -0.407248D-05
   yyy        0.463908D-01      0.400780D-03      0.148746D-03
   xxz       -0.864930D-02     -0.747232D-04     -0.277328D-04
   yxz       -0.703083D-02     -0.607409D-04     -0.225434D-04
   yyz        0.571606D-03      0.493823D-05      0.183278D-05
   zxz       -0.651782D-02     -0.563089D-04     -0.208985D-04
   zyz        0.151287D-01      0.130700D-03      0.485080D-04
   zzz        0.495873D-03      0.428395D-05      0.158995D-05

 ----------------------------------------------------------------------

 Dipole orientation:
     6         -0.93958386          2.37125175         -0.75062139
     6         -2.62245090          0.38386515         -0.20967804
     6          1.67590412          2.02151928         -0.41697707
     6         -1.67589775         -2.02146358          0.41688751
     6          2.62251846         -0.38382992          0.20957992
     6          0.93963517         -2.37125204          0.75047912
     6         -1.94499503          4.89820833         -1.63028922
     6         -5.44385834          0.81615094         -0.36143293
     6          3.47214965          4.21325315         -0.79118766
     6         -3.47224819         -4.21310415          0.79113517
     6          5.44387643         -0.81634894          0.36168279
     6          1.94500802         -4.89819936          1.63025804
     1         -2.35723048          6.17887689         -0.05162384
     1         -0.59282456          5.84912125         -2.86459633
     1         -3.68464559          4.67040993         -2.71564372
     1         -5.92630655          2.76239920          0.12386876
     1         -6.20161162          0.43867962         -2.25499459
     1         -6.45548766         -0.39718929          0.96547089
     1          5.14155367          4.02053468          0.40553335
     1          2.57937749          6.00284504         -0.28474805
     1          4.12563449          4.37469342         -2.75310974
     1         -2.57896379         -6.00277610          0.28593029
     1         -4.12685995         -4.37386882          2.75273870
     1         -5.14103963         -4.02097592         -0.40656836
     1          6.20139610         -0.43874590          2.25531076
     1          5.92615736         -2.76268672         -0.12338586
     1          6.45590721          0.39672618         -0.96515474
     1          0.59242754         -5.84920863          2.86404629
     1          2.35788434         -6.17878678          0.05169892
     1          3.68428746         -4.67036232          2.71619920

 Electric dipole moment (dipole orientation):
 (Debye = 10**-18 statcoulomb cm , SI units = C m)
                  (au)            (Debye)         (10**-30 SI)
   Tot        0.478739D-04      0.121683D-03      0.405892D-03
   x          0.000000D+00      0.000000D+00      0.000000D+00
   y          0.000000D+00      0.000000D+00      0.000000D+00
   z          0.478739D-04      0.121683D-03      0.405892D-03

 Dipole polarizability, Alpha (dipole orientation).
 (esu units = cm**3 , SI units = C**2 m**2 J**-1)
 Alpha(0;0):
               (au)            (10**-24 esu)      (10**-40 SI)
   iso        0.146216D+03      0.216670D+02      0.241078D+02
   aniso      0.748835D+02      0.110966D+02      0.123466D+02
   xx         0.170961D+03      0.253338D+02      0.281877D+02
   yx         0.109601D+01      0.162412D+00      0.180708D+00
   yy         0.165915D+03      0.245861D+02      0.273558D+02
   zx         0.392787D+01      0.582051D+00      0.647619D+00
   zy        -0.190982D+02     -0.283007D+01     -0.314887D+01
   zz         0.101773D+03      0.150811D+02      0.167800D+02

 First dipole hyperpolarizability, Beta (dipole orientation).
 ||, _|_  parallel and perpendicular components, (z) with respect to z axis,
 vector components x,y,z.  Values do not include the 1/n! factor of 1/2.
 (esu units = statvolt**-1 cm**4 , SI units = C**3 m**3 J**-2)
 Beta(0;0,0):
               (au)            (10**-30 esu)      (10**-50 SI)
   || (z)    -0.163158D-01     -0.140956D-03     -0.523144D-04
   _|_(z)    -0.543860D-02     -0.469853D-04     -0.174381D-04
   x         -0.173445D+00     -0.149843D-02     -0.556127D-03
   y          0.174816D+00      0.151027D-02      0.560523D-03
   z         -0.815790D-01     -0.704779D-03     -0.261572D-03
   ||         0.518841D-01      0.448238D-03      0.166359D-03
   xxx       -0.493590D-01     -0.426423D-03     -0.158263D-03
   xxy       -0.336806D-03     -0.290974D-05     -0.107992D-05
   yxy       -0.535806D-02     -0.462895D-04     -0.171799D-04
   yyy        0.449764D-01      0.388561D-03      0.144211D-03
   xxz       -0.110431D-01     -0.954039D-04     -0.354082D-04
   yxz       -0.823006D-02     -0.711013D-04     -0.263886D-04
   yyz       -0.419584D-02     -0.362487D-04     -0.134534D-04
   zxz       -0.309792D-02     -0.267636D-04     -0.993305D-05
   zyz        0.136324D-01      0.117773D-03      0.437104D-04
   zzz       -0.119541D-01     -0.103274D-03     -0.383290D-04

 ----------------------------------------------------------------------
 Unable to Open any file for archive entry.
 1\1\GINC-NODE35\SP\RwB97XD\Aug-CC-pVTZ\C12H18\LIUCHW\08-Jan-2020\0\\#p
  wB97XD/aug-cc-pvtz NoSymm MaxDisk=100GB polar\\polar\\0,1\C,0,-0.5088
 83,1.311513,-0.022742\C,0,-1.390194,0.215043,0.022743\C,0,0.881345,1.0
 96475,0.022656\C,0,-0.881344,-1.096434,-0.022694\C,0,1.390227,-0.21501
 1,-0.02279\C,0,0.508906,-1.311493,0.022668\C,0,-1.055667,2.720313,-0.0
 8749\C,0,-2.88365,0.445894,0.08753\C,0,1.828174,2.274273,0.087493\C,0,
 -1.828227,-2.27419,-0.087496\C,0,2.883666,-0.44603,-0.087431\C,0,1.055
 673,-2.720304,0.087475\H,0,-1.222899,3.150782,0.90824\H,0,-0.373152,3.
 38387,-0.621998\H,0,-2.007085,2.749497,-0.62212\H,0,-3.11696,1.36902,0
 .621618\H,0,-3.340182,0.515872,-0.908178\H,0,-3.384581,-0.363222,0.622
 576\H,0,2.744052,2.014632,0.621917\H,0,1.378059,3.112902,0.622231\H,0,
 2.117431,2.634316,-0.908223\H,0,-1.377806,-3.113031,-0.621631\H,0,-2.1
 18086,-2.633848,0.908185\H,0,-2.743812,-2.01471,-0.622521\H,0,3.340077
 ,-0.515951,0.908336\H,0,3.116894,-1.369235,-0.621408\H,0,3.38481,0.362
 943,-0.622492\H,0,0.372926,-3.383839,0.621717\H,0,1.223247,-3.150744,-
 0.908208\H,0,2.006912,-2.749552,0.62242\\Version=ES64L-G16RevC.01\HF=-
 468.145185\RMSD=8.305e-09\Dipole=0.0000026,-0.0000127,0.0000461\Polar=
 171.1836359,0.0146058,171.1714526,-0.0029575,0.0038918,96.2940442\Hype
 rPolar=-0.0509939,0.0014477,-0.0012701,0.0463908,-0.0086493,-0.0070308
 ,0.0005716,-0.0065178,0.0151287,0.0004959\Quadrupole=1.3870973,1.38423
 16,-2.7713289,-0.0017471,-0.000767,-0.0005908\PG=C01 [X(C12H18)]\\@
 The archive entry for this job was punched.


 IT MATTERS NOT HOW DEEP YOU PLOW,
 BUT HOW LONG YOU STAY IN THE FURROW.
 Job cpu time:       1 days 13 hours 11 minutes  4.3 seconds.
 Elapsed time:       0 days  4 hours 38 minutes 53.1 seconds.
 File lengths (MBytes):  RWF=    484 Int=      0 D2E=      0 Chk=     62 Scr=      1
 Normal termination of Gaussian 16 at Wed Jan  8 16:00:36 2020.
