 Entering Gaussian System, Link 0=g16
 Input=83_Ether.com
 Output=83_Ether.out
 Initial command:
 /opt/software/Gaussian16/bin/avx/g16/l1.exe "/scratch/liuchw/Gau-28207.inp" -scrdir="/scratch/liuchw/"
 Entering Link 1 = /opt/software/Gaussian16/bin/avx/g16/l1.exe PID=     28208.
  
 Copyright (c) 1988-2019, Gaussian, Inc.  All Rights Reserved.
  
 This is part of the Gaussian(R) 16 program.  It is based on
 the Gaussian(R) 09 system (copyright 2009, Gaussian, Inc.),
 the Gaussian(R) 03 system (copyright 2003, Gaussian, Inc.),
 the Gaussian(R) 98 system (copyright 1998, Gaussian, Inc.),
 the Gaussian(R) 94 system (copyright 1995, Gaussian, Inc.),
 the Gaussian 92(TM) system (copyright 1992, Gaussian, Inc.),
 the Gaussian 90(TM) system (copyright 1990, Gaussian, Inc.),
 the Gaussian 88(TM) system (copyright 1988, Gaussian, Inc.),
 the Gaussian 86(TM) system (copyright 1986, Carnegie Mellon
 University), and the Gaussian 82(TM) system (copyright 1983,
 Carnegie Mellon University). Gaussian is a federally registered
 trademark of Gaussian, Inc.
  
 This software contains proprietary and confidential information,
 including trade secrets, belonging to Gaussian, Inc.
  
 This software is provided under written license and may be
 used, copied, transmitted, or stored only in accord with that
 written license.
  
 The following legend is applicable only to US Government
 contracts under FAR:
  
                    RESTRICTED RIGHTS LEGEND
  
 Use, reproduction and disclosure by the US Government is
 subject to restrictions as set forth in subparagraphs (a)
 and (c) of the Commercial Computer Software - Restricted
 Rights clause in FAR 52.227-19.
  
 Gaussian, Inc.
 340 Quinnipiac St., Bldg. 40, Wallingford CT 06492
  
  
 ---------------------------------------------------------------
 Warning -- This program may not be used in any manner that
 competes with the business of Gaussian, Inc. or will provide
 assistance to any competitor of Gaussian, Inc.  The licensee
 of this program is prohibited from giving any competitor of
 Gaussian, Inc. access to this program.  By using this program,
 the user acknowledges that Gaussian, Inc. is engaged in the
 business of creating and licensing software in the field of
 computational chemistry and represents and warrants to the
 licensee that it is not a competitor of Gaussian, Inc. and that
 it will not use this program in any manner prohibited above.
 ---------------------------------------------------------------
  

 Cite this work as:
 Gaussian 16, Revision C.01,
 M. J. Frisch, G. W. Trucks, H. B. Schlegel, G. E. Scuseria, 
 M. A. Robb, J. R. Cheeseman, G. Scalmani, V. Barone, 
 G. A. Petersson, H. Nakatsuji, X. Li, M. Caricato, A. V. Marenich, 
 J. Bloino, B. G. Janesko, R. Gomperts, B. Mennucci, H. P. Hratchian, 
 J. V. Ortiz, A. F. Izmaylov, J. L. Sonnenberg, D. Williams-Young, 
 F. Ding, F. Lipparini, F. Egidi, J. Goings, B. Peng, A. Petrone, 
 T. Henderson, D. Ranasinghe, V. G. Zakrzewski, J. Gao, N. Rega, 
 G. Zheng, W. Liang, M. Hada, M. Ehara, K. Toyota, R. Fukuda, 
 J. Hasegawa, M. Ishida, T. Nakajima, Y. Honda, O. Kitao, H. Nakai, 
 T. Vreven, K. Throssell, J. A. Montgomery, Jr., J. E. Peralta, 
 F. Ogliaro, M. J. Bearpark, J. J. Heyd, E. N. Brothers, K. N. Kudin, 
 V. N. Staroverov, T. A. Keith, R. Kobayashi, J. Normand, 
 K. Raghavachari, A. P. Rendell, J. C. Burant, S. S. Iyengar, 
 J. Tomasi, M. Cossi, J. M. Millam, M. Klene, C. Adamo, R. Cammi, 
 J. W. Ochterski, R. L. Martin, K. Morokuma, O. Farkas, 
 J. B. Foresman, and D. J. Fox, Gaussian, Inc., Wallingford CT, 2019.
 
 ******************************************
 Gaussian 16:  ES64L-G16RevC.01  3-Jul-2019
                 8-Jan-2020 
 ******************************************
 %chk=83_Ether.chk
 %nproc=8
 Will use up to    8 processors via shared memory.
 %Mem=100GB
 ------------------------------------------------
 #p wB97XD/aug-cc-pvtz NoSymm MaxDisk=100GB polar
 ------------------------------------------------
 1/38=1,172=1/1;
 2/12=2,15=1,17=6,18=5,40=1/2;
 3/5=16,6=1,7=10,11=2,25=1,30=1,74=-58/1,2,3;
 4//1;
 5/5=2,38=5,98=1/2;
 8/6=4,10=90,11=11/1;
 10/6=1,13=10,31=1/2;
 6/7=2,8=2,9=2,10=2,28=1/1;
 99/5=1,9=1/99;
 Leave Link    1 at Wed Jan  8 07:27:48 2020, MaxMem= 13421772800 cpu:               0.4 elap:               0.1
 (Enter /opt/software/Gaussian16/bin/avx/g16/l101.exe)
 -----
 polar
 -----
 Symbolic Z-matrix:
 Charge =  0 Multiplicity = 1
 O                     0.00002   0.26936  0. 
 C                     1.17841  -0.52514  -0.00001 
 C                    -1.17846  -0.52518  -0.00001 
 C                     2.36644   0.41324   0.00001 
 C                    -2.36643   0.41325   0. 
 H                     1.19456  -1.17799   0.88714 
 H                     1.19457  -1.17797  -0.88717 
 H                    -1.19455  -1.17797  -0.88717 
 H                    -1.19455  -1.17799   0.88715 
 H                     3.30317  -0.15158   0. 
 H                     2.34073   1.05077  -0.88621 
 H                     2.34072   1.05075   0.88624 
 H                    -3.30322  -0.15147  0. 
 H                    -2.34066   1.05076   0.88623 
 H                    -2.34066   1.05078  -0.88621 
 
 ITRead=  0  0  0  0  0  0  0  0  0  0  0  0  0  0  0
 MicOpt= -1 -1 -1 -1 -1 -1 -1 -1 -1 -1 -1 -1 -1 -1 -1
 NAtoms=     15 NQM=       15 NQMF=       0 NMMI=      0 NMMIF=      0
                NMic=       0 NMicF=      0.
                    Isotopes and Nuclear Properties:
 (Nuclear quadrupole moments (NQMom) in fm**2, nuclear magnetic moments (NMagM)
  in nuclear magnetons)

  Atom         1           2           3           4           5           6           7           8           9          10
 IAtWgt=          16          12          12          12          12           1           1           1           1           1
 AtmWgt=  15.9949146  12.0000000  12.0000000  12.0000000  12.0000000   1.0078250   1.0078250   1.0078250   1.0078250   1.0078250
 NucSpn=           0           0           0           0           0           1           1           1           1           1
 AtZEff=  -0.0000000  -0.0000000  -0.0000000  -0.0000000  -0.0000000  -0.0000000  -0.0000000  -0.0000000  -0.0000000  -0.0000000
 NQMom=    0.0000000   0.0000000   0.0000000   0.0000000   0.0000000   0.0000000   0.0000000   0.0000000   0.0000000   0.0000000
 NMagM=    0.0000000   0.0000000   0.0000000   0.0000000   0.0000000   2.7928460   2.7928460   2.7928460   2.7928460   2.7928460
 AtZNuc=   8.0000000   6.0000000   6.0000000   6.0000000   6.0000000   1.0000000   1.0000000   1.0000000   1.0000000   1.0000000

  Atom        11          12          13          14          15
 IAtWgt=           1           1           1           1           1
 AtmWgt=   1.0078250   1.0078250   1.0078250   1.0078250   1.0078250
 NucSpn=           1           1           1           1           1
 AtZEff=  -0.0000000  -0.0000000  -0.0000000  -0.0000000  -0.0000000
 NQMom=    0.0000000   0.0000000   0.0000000   0.0000000   0.0000000
 NMagM=    2.7928460   2.7928460   2.7928460   2.7928460   2.7928460
 AtZNuc=   1.0000000   1.0000000   1.0000000   1.0000000   1.0000000
 Leave Link  101 at Wed Jan  8 07:27:48 2020, MaxMem= 13421772800 cpu:               0.7 elap:               0.1
 (Enter /opt/software/Gaussian16/bin/avx/g16/l202.exe)
                          Input orientation:                          
 ---------------------------------------------------------------------
 Center     Atomic      Atomic             Coordinates (Angstroms)
 Number     Number       Type             X           Y           Z
 ---------------------------------------------------------------------
      1          8           0        0.000015    0.269359   -0.000002
      2          6           0        1.178413   -0.525136   -0.000005
      3          6           0       -1.178463   -0.525178   -0.000006
      4          6           0        2.366440    0.413238    0.000009
      5          6           0       -2.366428    0.413252    0.000004
      6          1           0        1.194563   -1.177990    0.887140
      7          1           0        1.194569   -1.177970   -0.887165
      8          1           0       -1.194552   -1.177974   -0.887171
      9          1           0       -1.194547   -1.177989    0.887148
     10          1           0        3.303173   -0.151584    0.000004
     11          1           0        2.340726    1.050768   -0.886206
     12          1           0        2.340721    1.050747    0.886238
     13          1           0       -3.303222   -0.151473   -0.000003
     14          1           0       -2.340664    1.050757    0.886233
     15          1           0       -2.340662    1.050778   -0.886210
 ---------------------------------------------------------------------
                    Distance matrix (angstroms):
                    1          2          3          4          5
     1  O    0.000000
     2  C    1.421212   0.000000
     3  C    1.421302   2.356876   0.000000
     4  C    2.370795   1.513920   3.667010   0.000000
     5  C    2.370814   3.666943   1.513906   4.732868   0.000000
     6  H    2.075761   1.101592   2.616189   2.166173   3.999965
     7  H    2.075760   1.101593   2.616194   2.166172   3.999969
     8  H    2.075773   2.616147   1.101573   3.999964   2.166189
     9  H    2.075772   2.616142   1.101573   3.999956   2.166190
    10  H    3.329872   2.157347   4.497181   1.093843   5.697668
    11  H    2.622000   2.149371   3.956469   1.092009   4.832090
    12  H    2.622002   2.149371   3.956466   1.092008   4.832087
    13  H    3.329936   4.497185   2.157373   5.697716   1.093845
    14  H    2.621979   3.956357   2.149349   4.832044   1.092007
    15  H    2.621974   3.956356   2.149349   4.832044   1.092007
                    6          7          8          9         10
     6  H    0.000000
     7  H    1.774305   0.000000
     8  H    2.975912   2.389121   0.000000
     9  H    2.389110   2.975914   1.774319   0.000000
    10  H    2.507340   2.507339   4.697881   4.697874   0.000000
    11  H    3.070148   2.506182   4.179172   4.539857   1.776886
    12  H    2.506182   3.070147   4.539860   4.179161   1.776886
    13  H    4.697960   4.697965   2.507441   2.507445   6.606395
    14  H    4.179132   4.539828   3.070143   2.506171   5.838144
    15  H    4.539823   4.179136   2.506173   3.070143   5.838144
                   11         12         13         14         15
    11  H    0.000000
    12  H    1.772444   0.000000
    13  H    5.838226   5.838223   0.000000
    14  H    5.005692   4.681385   1.776876   0.000000
    15  H    4.681388   5.005689   1.776877   1.772443   0.000000
 Symmetry turned off by external request.
 Stoichiometry    C4H10O
 Framework group  C1[X(C4H10O)]
 Deg. of freedom    39
 Full point group                 C1      NOp   1
 Rotational constants (GHZ):          17.8582746           2.2571562           2.1099456
 Leave Link  202 at Wed Jan  8 07:27:48 2020, MaxMem= 13421772800 cpu:               0.1 elap:               0.0
 (Enter /opt/software/Gaussian16/bin/avx/g16/l301.exe)
 Standard basis: Aug-CC-pVTZ (5D, 7F)
 Ernie: Thresh=  0.10000D-02 Tol=  0.10000D-05 Strict=F.
 Ernie:  15 primitive shells out of 260 were deleted.
   460 basis functions,   630 primitive gaussians,   525 cartesian basis functions
    21 alpha electrons       21 beta electrons
       nuclear repulsion energy       189.9352150357 Hartrees.
 IExCor= 4639 DFT=T Ex+Corr=wB97XD ExCW=0 ScaHFX=  1.000000
 ScaDFX=  1.000000  1.000000  1.000000  1.000000 ScalE2=  1.000000  1.000000
 IRadAn=      5 IRanWt=     -1 IRanGd=            0 ICorTp=0 IEmpDi=121
 HFx  wShort=  0.000000 wLong=  0.200000 cFull=  0.222036 cShort=  0.000000 cLong=  0.777964
 DFx  wShort=  0.000000 wLong=  0.200000 cFull=  0.000000 cShort=  0.000000 cLong=  1.000000
 NAtoms=   15 NActive=   15 NUniq=   15 SFac= 1.00D+00 NAtFMM=   60 NAOKFM=F Big=F
 Integral buffers will be    131072 words long.
 Raffenetti 2 integral format.
 Two-electron integral symmetry is turned off.
 R6Disp:  Grimme-D2 Dispersion energy=       -0.0059345027 Hartrees.
 Nuclear repulsion after empirical dispersion term =      189.9292805330 Hartrees.
 Leave Link  301 at Wed Jan  8 07:27:48 2020, MaxMem= 13421772800 cpu:               0.4 elap:               0.1
 (Enter /opt/software/Gaussian16/bin/avx/g16/l302.exe)
 NPDir=0 NMtPBC=     1 NCelOv=     1 NCel=       1 NClECP=     1 NCelD=      1
         NCelK=      1 NCelE2=     1 NClLst=     1 CellRange=     0.0.
 One-electron integrals computed using PRISM.
 NBasis=   460 RedAO= T EigKep=  8.73D-06  NBF=   460
 NBsUse=   460 1.00D-06 EigRej= -1.00D+00 NBFU=   460
 Precomputing XC quadrature grid using
 IXCGrd= 4 IRadAn=           5 IRanWt=          -1 IRanGd=           0 AccXCQ= 0.00D+00.
 Generated NRdTot=       0 NPtTot=           0 NUsed=           0 NTot=          32
 NSgBfM=   525   525   525   525   525 MxSgAt=    15 MxSgA2=    15.
 Leave Link  302 at Wed Jan  8 07:27:49 2020, MaxMem= 13421772800 cpu:               3.3 elap:               0.4
 (Enter /opt/software/Gaussian16/bin/avx/g16/l303.exe)
 DipDrv:  MaxL=1.
 Leave Link  303 at Wed Jan  8 07:27:49 2020, MaxMem= 13421772800 cpu:               0.4 elap:               0.1
 (Enter /opt/software/Gaussian16/bin/avx/g16/l401.exe)
 ExpMin= 2.53D-02 ExpMax= 1.53D+04 ExpMxC= 5.22D+02 IAcc=3 IRadAn=         5 AccDes= 0.00D+00
 Harris functional with IExCor= 4639 and IRadAn=       5 diagonalized for initial guess.
 HarFok:  IExCor= 4639 AccDes= 0.00D+00 IRadAn=         5 IDoV= 1 UseB2=F ITyADJ=14
 ICtDFT=  3500011 ScaDFX=  1.000000  1.000000  1.000000  1.000000
 FoFCou: FMM=F IPFlag=           0 FMFlag=      100000 FMFlg1=           0
         NFxFlg=           0 DoJE=T BraDBF=F KetDBF=T FulRan=T
         wScrn=  0.000000 ICntrl=       500 IOpCl=  0 I1Cent=   200000004 NGrid=           0
         NMat0=    1 NMatS0=      1 NMatT0=    0 NMatD0=    1 NMtDS0=    0 NMtDT0=    0
 Symmetry not used in FoFCou.
 Harris En= -223.058196113914    
 JPrj=0 DoOrth=F DoCkMO=F.
 Leave Link  401 at Wed Jan  8 07:27:52 2020, MaxMem= 13421772800 cpu:              25.1 elap:               3.2
 (Enter /opt/software/Gaussian16/bin/avx/g16/l502.exe)
 Two-electron integral symmetry not used.
 Closed shell SCF:
 Using DIIS extrapolation, IDIIS=  1040.
 NGot= 13421772800 LenX= 13421213749 LenY= 13420937599
 Requested convergence on RMS density matrix=1.00D-08 within 128 cycles.
 Requested convergence on MAX density matrix=1.00D-06.
 Requested convergence on             energy=1.00D-06.
 No special actions if energy rises.
 Fock matrices will be formed incrementally for  20 cycles.

 Cycle   1  Pass 1  IDiag  1:
 FoFJK:  IHMeth= 1 ICntrl=       0 DoSepK=T KAlg= 0 I1Cent=           0 FoldK=F
 IRaf=         1 NMat=       1 IRICut=       1 DoRegI=T DoRafI=F ISym2E= 0 IDoP0=0 IntGTp=1.
 FoFCou: FMM=F IPFlag=           0 FMFlag=      100000 FMFlg1=           0
         NFxFlg=           0 DoJE=T BraDBF=F KetDBF=F FulRan=T
         wScrn=  0.000000 ICntrl=       500 IOpCl=  0 I1Cent=           0 NGrid=           0
         NMat0=    1 NMatS0=      1 NMatT0=    0 NMatD0=    1 NMtDS0=    0 NMtDT0=    0
 Symmetry not used in FoFCou.
 E= -233.582148582947    
 DIIS: error= 6.57D-02 at cycle   1 NSaved=   1.
 NSaved= 1 IEnMin= 1 EnMin= -233.582148582947     IErMin= 1 ErrMin= 6.57D-02
 ErrMax= 6.57D-02  0.00D+00 EMaxC= 1.00D-01 BMatC= 4.57D-01 BMatP= 4.57D-01
 IDIUse=3 WtCom= 3.43D-01 WtEn= 6.57D-01
 Coeff-Com:  0.100D+01
 Coeff-En:   0.100D+01
 Coeff:      0.100D+01
 Gap=     0.460 Goal=   None    Shift=    0.000
 GapD=    0.460 DampG=2.000 DampE=0.500 DampFc=1.0000 IDamp=-1.
 RMSDP=1.46D-03 MaxDP=9.70D-02              OVMax= 9.19D-02

 Cycle   2  Pass 1  IDiag  1:
 RMSU=  1.45D-03    CP:  9.69D-01
 E= -233.615267539185     Delta-E=       -0.033118956238 Rises=F Damp=F
 DIIS: error= 2.00D-02 at cycle   2 NSaved=   2.
 NSaved= 2 IEnMin= 2 EnMin= -233.615267539185     IErMin= 2 ErrMin= 2.00D-02
 ErrMax= 2.00D-02  0.00D+00 EMaxC= 1.00D-01 BMatC= 9.77D-02 BMatP= 4.57D-01
 IDIUse=3 WtCom= 8.00D-01 WtEn= 2.00D-01
 Coeff-Com:  0.260D+00 0.740D+00
 Coeff-En:   0.359D+00 0.641D+00
 Coeff:      0.280D+00 0.720D+00
 Gap=     0.393 Goal=   None    Shift=    0.000
 RMSDP=5.78D-04 MaxDP=3.47D-02 DE=-3.31D-02 OVMax= 8.66D-02

 Cycle   3  Pass 1  IDiag  1:
 RMSU=  4.64D-04    CP:  9.82D-01  7.67D-01
 E= -233.655255830512     Delta-E=       -0.039988291327 Rises=F Damp=F
 DIIS: error= 1.26D-02 at cycle   3 NSaved=   3.
 NSaved= 3 IEnMin= 3 EnMin= -233.655255830512     IErMin= 3 ErrMin= 1.26D-02
 ErrMax= 1.26D-02  0.00D+00 EMaxC= 1.00D-01 BMatC= 3.41D-02 BMatP= 9.77D-02
 IDIUse=3 WtCom= 8.74D-01 WtEn= 1.26D-01
 Coeff-Com:  0.255D-01 0.374D+00 0.600D+00
 Coeff-En:   0.000D+00 0.267D+00 0.733D+00
 Coeff:      0.223D-01 0.361D+00 0.617D+00
 Gap=     0.385 Goal=   None    Shift=    0.000
 RMSDP=2.16D-04 MaxDP=1.83D-02 DE=-4.00D-02 OVMax= 3.91D-02

 Cycle   4  Pass 1  IDiag  1:
 RMSU=  1.52D-04    CP:  9.82D-01  8.22D-01  7.16D-01
 E= -233.677296841381     Delta-E=       -0.022041010870 Rises=F Damp=F
 DIIS: error= 1.44D-03 at cycle   4 NSaved=   4.
 NSaved= 4 IEnMin= 4 EnMin= -233.677296841381     IErMin= 4 ErrMin= 1.44D-03
 ErrMax= 1.44D-03  0.00D+00 EMaxC= 1.00D-01 BMatC= 7.15D-04 BMatP= 3.41D-02
 IDIUse=3 WtCom= 9.86D-01 WtEn= 1.44D-02
 Coeff-Com:  0.807D-02 0.129D+00 0.265D+00 0.598D+00
 Coeff-En:   0.000D+00 0.000D+00 0.000D+00 0.100D+01
 Coeff:      0.795D-02 0.127D+00 0.261D+00 0.603D+00
 Gap=     0.375 Goal=   None    Shift=    0.000
 RMSDP=3.99D-05 MaxDP=2.32D-03 DE=-2.20D-02 OVMax= 4.20D-03

 Cycle   5  Pass 1  IDiag  1:
 RMSU=  3.54D-05    CP:  9.81D-01  8.27D-01  7.27D-01  9.02D-01
 E= -233.677799231254     Delta-E=       -0.000502389873 Rises=F Damp=F
 DIIS: error= 2.07D-04 at cycle   5 NSaved=   5.
 NSaved= 5 IEnMin= 5 EnMin= -233.677799231254     IErMin= 5 ErrMin= 2.07D-04
 ErrMax= 2.07D-04  0.00D+00 EMaxC= 1.00D-01 BMatC= 1.40D-05 BMatP= 7.15D-04
 IDIUse=3 WtCom= 9.98D-01 WtEn= 2.07D-03
 Coeff-Com: -0.153D-02-0.203D-01-0.141D-01 0.956D-01 0.940D+00
 Coeff-En:   0.000D+00 0.000D+00 0.000D+00 0.000D+00 0.100D+01
 Coeff:     -0.152D-02-0.202D-01-0.141D-01 0.954D-01 0.940D+00
 Gap=     0.374 Goal=   None    Shift=    0.000
 RMSDP=1.73D-05 MaxDP=7.94D-04 DE=-5.02D-04 OVMax= 9.72D-04

 Cycle   6  Pass 1  IDiag  1:
 RMSU=  1.08D-05    CP:  9.81D-01  8.27D-01  7.37D-01  9.72D-01  1.19D+00
 E= -233.677815136775     Delta-E=       -0.000015905521 Rises=F Damp=F
 DIIS: error= 2.97D-05 at cycle   6 NSaved=   6.
 NSaved= 6 IEnMin= 6 EnMin= -233.677815136775     IErMin= 6 ErrMin= 2.97D-05
 ErrMax= 2.97D-05  0.00D+00 EMaxC= 1.00D-01 BMatC= 2.62D-07 BMatP= 1.40D-05
 IDIUse=1 WtCom= 1.00D+00 WtEn= 0.00D+00
 Coeff-Com: -0.373D-03-0.506D-02-0.844D-02-0.665D-02 0.570D-01 0.964D+00
 Coeff:     -0.373D-03-0.506D-02-0.844D-02-0.665D-02 0.570D-01 0.964D+00
 Gap=     0.374 Goal=   None    Shift=    0.000
 RMSDP=4.52D-06 MaxDP=2.80D-04 DE=-1.59D-05 OVMax= 3.96D-04

 Cycle   7  Pass 1  IDiag  1:
 RMSU=  1.83D-06    CP:  9.81D-01  8.27D-01  7.37D-01  9.89D-01  1.25D+00
                    CP:  1.20D+00
 E= -233.677815617553     Delta-E=       -0.000000480778 Rises=F Damp=F
 DIIS: error= 1.30D-05 at cycle   7 NSaved=   7.
 NSaved= 7 IEnMin= 7 EnMin= -233.677815617553     IErMin= 7 ErrMin= 1.30D-05
 ErrMax= 1.30D-05  0.00D+00 EMaxC= 1.00D-01 BMatC= 6.27D-08 BMatP= 2.62D-07
 IDIUse=1 WtCom= 1.00D+00 WtEn= 0.00D+00
 Coeff-Com:  0.842D-05-0.416D-03-0.201D-02-0.963D-02-0.514D-01 0.326D+00
 Coeff-Com:  0.737D+00
 Coeff:      0.842D-05-0.416D-03-0.201D-02-0.963D-02-0.514D-01 0.326D+00
 Coeff:      0.737D+00
 Gap=     0.374 Goal=   None    Shift=    0.000
 RMSDP=1.09D-06 MaxDP=3.98D-05 DE=-4.81D-07 OVMax= 6.62D-05

 Cycle   8  Pass 1  IDiag  1:
 RMSU=  4.55D-07    CP:  9.81D-01  8.27D-01  7.36D-01  9.90D-01  1.27D+00
                    CP:  1.28D+00  1.00D+00
 E= -233.677815689278     Delta-E=       -0.000000071725 Rises=F Damp=F
 DIIS: error= 2.78D-06 at cycle   8 NSaved=   8.
 NSaved= 8 IEnMin= 8 EnMin= -233.677815689278     IErMin= 8 ErrMin= 2.78D-06
 ErrMax= 2.78D-06  0.00D+00 EMaxC= 1.00D-01 BMatC= 2.36D-09 BMatP= 6.27D-08
 IDIUse=1 WtCom= 1.00D+00 WtEn= 0.00D+00
 Coeff-Com:  0.141D-04 0.189D-03 0.169D-03-0.162D-02-0.143D-01 0.578D-02
 Coeff-Com:  0.121D+00 0.889D+00
 Coeff:      0.141D-04 0.189D-03 0.169D-03-0.162D-02-0.143D-01 0.578D-02
 Coeff:      0.121D+00 0.889D+00
 Gap=     0.374 Goal=   None    Shift=    0.000
 RMSDP=3.33D-07 MaxDP=2.33D-05 DE=-7.17D-08 OVMax= 2.86D-05

 Cycle   9  Pass 1  IDiag  1:
 RMSU=  1.14D-07    CP:  9.81D-01  8.27D-01  7.37D-01  9.90D-01  1.27D+00
                    CP:  1.29D+00  1.08D+00  1.15D+00
 E= -233.677815692571     Delta-E=       -0.000000003293 Rises=F Damp=F
 DIIS: error= 7.63D-07 at cycle   9 NSaved=   9.
 NSaved= 9 IEnMin= 9 EnMin= -233.677815692571     IErMin= 9 ErrMin= 7.63D-07
 ErrMax= 7.63D-07  0.00D+00 EMaxC= 1.00D-01 BMatC= 1.25D-10 BMatP= 2.36D-09
 IDIUse=1 WtCom= 1.00D+00 WtEn= 0.00D+00
 Coeff-Com: -0.698D-06 0.117D-04 0.135D-03 0.623D-03 0.351D-02-0.234D-01
 Coeff-Com: -0.533D-01 0.827D-01 0.990D+00
 Coeff:     -0.698D-06 0.117D-04 0.135D-03 0.623D-03 0.351D-02-0.234D-01
 Coeff:     -0.533D-01 0.827D-01 0.990D+00
 Gap=     0.374 Goal=   None    Shift=    0.000
 RMSDP=9.27D-08 MaxDP=5.38D-06 DE=-3.29D-09 OVMax= 7.21D-06

 Cycle  10  Pass 1  IDiag  1:
 RMSU=  4.03D-08    CP:  9.81D-01  8.27D-01  7.37D-01  9.90D-01  1.27D+00
                    CP:  1.30D+00  1.10D+00  1.22D+00  1.25D+00
 E= -233.677815692773     Delta-E=       -0.000000000202 Rises=F Damp=F
 DIIS: error= 1.48D-07 at cycle  10 NSaved=  10.
 NSaved=10 IEnMin=10 EnMin= -233.677815692773     IErMin=10 ErrMin= 1.48D-07
 ErrMax= 1.48D-07  0.00D+00 EMaxC= 1.00D-01 BMatC= 2.35D-12 BMatP= 1.25D-10
 IDIUse=1 WtCom= 1.00D+00 WtEn= 0.00D+00
 Coeff-Com: -0.216D-06-0.294D-05-0.831D-05 0.343D-04 0.262D-03 0.768D-03
 Coeff-Com: -0.856D-03-0.323D-01-0.221D-01 0.105D+01
 Coeff:     -0.216D-06-0.294D-05-0.831D-05 0.343D-04 0.262D-03 0.768D-03
 Coeff:     -0.856D-03-0.323D-01-0.221D-01 0.105D+01
 Gap=     0.374 Goal=   None    Shift=    0.000
 RMSDP=1.73D-08 MaxDP=8.46D-07 DE=-2.02D-10 OVMax= 1.48D-06

 Cycle  11  Pass 1  IDiag  1:
 RMSU=  6.63D-09    CP:  9.81D-01  8.27D-01  7.37D-01  9.91D-01  1.27D+00
                    CP:  1.30D+00  1.10D+00  1.22D+00  1.34D+00  1.21D+00
 E= -233.677815692781     Delta-E=       -0.000000000008 Rises=F Damp=F
 DIIS: error= 2.10D-08 at cycle  11 NSaved=  11.
 NSaved=11 IEnMin=11 EnMin= -233.677815692781     IErMin=11 ErrMin= 2.10D-08
 ErrMax= 2.10D-08  0.00D+00 EMaxC= 1.00D-01 BMatC= 6.84D-14 BMatP= 2.35D-12
 IDIUse=1 WtCom= 1.00D+00 WtEn= 0.00D+00
 Coeff-Com:  0.272D-08-0.122D-05-0.496D-05-0.187D-04-0.962D-04 0.723D-03
 Coeff-Com:  0.172D-02-0.270D-02-0.312D-01-0.347D-01 0.107D+01
 Coeff:      0.272D-08-0.122D-05-0.496D-05-0.187D-04-0.962D-04 0.723D-03
 Coeff:      0.172D-02-0.270D-02-0.312D-01-0.347D-01 0.107D+01
 Gap=     0.374 Goal=   None    Shift=    0.000
 RMSDP=3.46D-09 MaxDP=2.32D-07 DE=-7.67D-12 OVMax= 3.08D-07

 SCF Done:  E(RwB97XD) =  -233.677815693     A.U. after   11 cycles
            NFock= 11  Conv=0.35D-08     -V/T= 2.0068
 KE= 2.321033461427D+02 PE=-9.238546473794D+02 EE= 2.681442050109D+02
 Leave Link  502 at Wed Jan  8 07:32:49 2020, MaxMem= 13421772800 cpu:            2376.4 elap:             297.2
 (Enter /opt/software/Gaussian16/bin/avx/g16/l801.exe)
 DoSCS=F DFT=T ScalE2(SS,OS)=  1.000000  1.000000
 Range of M.O.s used for correlation:     1   460
 NBasis=   460 NAE=    21 NBE=    21 NFC=     0 NFV=     0
 NROrb=    460 NOA=    21 NOB=    21 NVA=   439 NVB=   439

 **** Warning!!: The largest alpha MO coefficient is  0.60849826D+02

 Leave Link  801 at Wed Jan  8 07:32:49 2020, MaxMem= 13421772800 cpu:               0.2 elap:               0.0
 (Enter /opt/software/Gaussian16/bin/avx/g16/l1002.exe)
 Minotr:  Closed shell wavefunction.
          Direct CPHF calculation.
          Differentiating once with respect to electric field.
                with respect to dipole field.
          Electric field/nuclear overlap derivatives assumed to be zero.
          Requested convergence is 1.0D-08 RMS, and 1.0D-07 maximum.
          Secondary convergence is 1.0D-12 RMS, and 1.0D-12 maximum.
          NewPWx=F KeepS1=T KeepF1=T KeepIn=T MapXYZ=F SortEE=F KeepMc=T.
         4667 words used for storage of precomputed grid.
 Two-electron integral symmetry not used.
          MDV=   13421772800 using IRadAn=       1.
          Solving linear equations simultaneously, MaxMat=     384.
          There are     3 degrees of freedom in the 1st order CPHF.  IDoFFX=0 NUNeed=     3.
      3 vectors produced by pass  0 Test12= 3.07D-13 3.33D-08 XBig12= 2.07D+01 1.22D+00.
 AX will form     3 AO Fock derivatives at one time.
 FoFJK:  IHMeth= 1 ICntrl=       0 DoSepK=T KAlg= 0 I1Cent=           0 FoldK=F
 IRaf=         1 NMat=       3 IRICut=       1 DoRegI=T DoRafI=F ISym2E= 0 IDoP0=0 IntGTp=1.
 FoFCou: FMM=F IPFlag=           0 FMFlag=      100000 FMFlg1=           0
         NFxFlg=           0 DoJE=T BraDBF=F KetDBF=F FulRan=T
         wScrn=  0.000000 ICntrl=       500 IOpCl=  0 I1Cent=           0 NGrid=           0
         NMat0=    3 NMatS0=      3 NMatT0=    0 NMatD0=    3 NMtDS0=    0 NMtDT0=    0
 Symmetry not used in FoFCou.
      3 vectors produced by pass  1 Test12= 3.07D-13 3.33D-08 XBig12= 2.69D+00 2.68D-01.
      3 vectors produced by pass  2 Test12= 3.07D-13 3.33D-08 XBig12= 8.02D-01 1.49D-01.
      3 vectors produced by pass  3 Test12= 3.07D-13 3.33D-08 XBig12= 5.87D-02 4.84D-02.
      3 vectors produced by pass  4 Test12= 3.07D-13 3.33D-08 XBig12= 7.52D-03 2.06D-02.
      3 vectors produced by pass  5 Test12= 3.07D-13 3.33D-08 XBig12= 1.02D-03 1.02D-02.
      3 vectors produced by pass  6 Test12= 3.07D-13 3.33D-08 XBig12= 4.41D-05 1.98D-03.
      3 vectors produced by pass  7 Test12= 3.07D-13 3.33D-08 XBig12= 3.57D-06 3.14D-04.
      3 vectors produced by pass  8 Test12= 3.07D-13 3.33D-08 XBig12= 5.16D-07 1.52D-04.
      3 vectors produced by pass  9 Test12= 3.07D-13 3.33D-08 XBig12= 1.99D-08 2.45D-05.
      2 vectors produced by pass 10 Test12= 3.07D-13 3.33D-08 XBig12= 8.04D-10 5.24D-06.
      1 vectors produced by pass 11 Test12= 3.07D-13 3.33D-08 XBig12= 2.50D-11 7.27D-07.
      1 vectors produced by pass 12 Test12= 3.07D-13 3.33D-08 XBig12= 8.01D-13 2.00D-07.
 InvSVY:  IOpt=1 It=  1 EMax= 1.78D-15
 Solved reduced A of dimension    34 with     3 vectors.
 FullF1:  Do perturbations      1 to       3.
 SCF Polarizability for W=    0.000000:
                1             2             3 
      1  0.690413D+02
      2  0.148845D-03  0.555422D+02
      3  0.138798D-04  0.445815D-04  0.517150D+02
 Isotropic polarizability for W=    0.000000       58.77 Bohr**3.
 SCF Static Hyperpolarizability:
 K=  1 block:
                1 
      1  0.722655D-03
 K=  2 block:
                1             2 
      1 -0.429553D+02
      2  0.807905D-02 -0.313525D+02
 K=  3 block:
                1             2             3 
      1 -0.511004D-03
      2 -0.365948D-04  0.132043D-04
      3  0.755288D-02 -0.273754D+02 -0.540624D-03
 End of Minotr F.D. properties file   721 does not exist.
 End of Minotr F.D. properties file   722 does not exist.
 End of Minotr F.D. properties file   788 does not exist.
 Leave Link 1002 at Wed Jan  8 07:44:37 2020, MaxMem= 13421772800 cpu:            5664.3 elap:             708.1
 (Enter /opt/software/Gaussian16/bin/avx/g16/l601.exe)
 Copying SCF densities to generalized density rwf, IOpCl= 0 IROHF=0.

 **********************************************************************

            Population analysis using the SCF Density.

 **********************************************************************

 Alpha  occ. eigenvalues --  -19.25181 -10.32862 -10.32861 -10.27206 -10.27205
 Alpha  occ. eigenvalues --   -1.13158  -0.87431  -0.82279  -0.71060  -0.69752
 Alpha  occ. eigenvalues --   -0.58176  -0.57732  -0.52789  -0.51640  -0.47932
 Alpha  occ. eigenvalues --   -0.45672  -0.45498  -0.43309  -0.42302  -0.40420
 Alpha  occ. eigenvalues --   -0.34103
 Alpha virt. eigenvalues --    0.03322   0.03830   0.04275   0.04335   0.05687
 Alpha virt. eigenvalues --    0.05786   0.05996   0.06763   0.07950   0.08594
 Alpha virt. eigenvalues --    0.10231   0.11376   0.12002   0.12390   0.13027
 Alpha virt. eigenvalues --    0.13185   0.13450   0.13647   0.13790   0.13979
 Alpha virt. eigenvalues --    0.15383   0.16015   0.17909   0.18117   0.19063
 Alpha virt. eigenvalues --    0.19246   0.20072   0.20898   0.21453   0.22405
 Alpha virt. eigenvalues --    0.22719   0.24206   0.24433   0.25768   0.26691
 Alpha virt. eigenvalues --    0.26749   0.28510   0.28976   0.29125   0.30624
 Alpha virt. eigenvalues --    0.30740   0.32438   0.32487   0.32654   0.33931
 Alpha virt. eigenvalues --    0.34556   0.35056   0.35234   0.35857   0.35901
 Alpha virt. eigenvalues --    0.36271   0.36311   0.37019   0.38211   0.38335
 Alpha virt. eigenvalues --    0.38371   0.38917   0.39713   0.39880   0.40626
 Alpha virt. eigenvalues --    0.41220   0.42029   0.42188   0.42710   0.43809
 Alpha virt. eigenvalues --    0.43908   0.44042   0.44214   0.45225   0.45667
 Alpha virt. eigenvalues --    0.45855   0.45993   0.46423   0.48260   0.49437
 Alpha virt. eigenvalues --    0.51456   0.51962   0.52179   0.52796   0.52883
 Alpha virt. eigenvalues --    0.54878   0.55264   0.56133   0.56477   0.56664
 Alpha virt. eigenvalues --    0.58039   0.59183   0.60708   0.60808   0.61760
 Alpha virt. eigenvalues --    0.63750   0.64110   0.64777   0.66141   0.68970
 Alpha virt. eigenvalues --    0.69477   0.69695   0.72701   0.73108   0.73142
 Alpha virt. eigenvalues --    0.73924   0.75736   0.76992   0.77101   0.78809
 Alpha virt. eigenvalues --    0.79047   0.79209   0.79226   0.80250   0.82220
 Alpha virt. eigenvalues --    0.82293   0.82642   0.83765   0.84277   0.84898
 Alpha virt. eigenvalues --    0.85126   0.86291   0.86863   0.87025   0.87852
 Alpha virt. eigenvalues --    0.88909   0.88955   0.90423   0.92387   0.92898
 Alpha virt. eigenvalues --    0.93137   0.93868   0.94831   0.97746   0.98410
 Alpha virt. eigenvalues --    0.98948   0.99133   0.99886   1.01003   1.01658
 Alpha virt. eigenvalues --    1.01881   1.02677   1.04467   1.04761   1.05642
 Alpha virt. eigenvalues --    1.07039   1.07127   1.07680   1.08402   1.10401
 Alpha virt. eigenvalues --    1.10866   1.11292   1.12746   1.12837   1.14277
 Alpha virt. eigenvalues --    1.15503   1.16676   1.17628   1.18111   1.18479
 Alpha virt. eigenvalues --    1.18998   1.20858   1.21375   1.23687   1.23693
 Alpha virt. eigenvalues --    1.24738   1.24848   1.24886   1.27258   1.28330
 Alpha virt. eigenvalues --    1.29487   1.30216   1.32111   1.34748   1.35722
 Alpha virt. eigenvalues --    1.36971   1.37996   1.39307   1.39357   1.40558
 Alpha virt. eigenvalues --    1.42673   1.45406   1.46013   1.46859   1.47514
 Alpha virt. eigenvalues --    1.49737   1.49793   1.50480   1.51300   1.53629
 Alpha virt. eigenvalues --    1.53787   1.54142   1.54374   1.55764   1.56635
 Alpha virt. eigenvalues --    1.57026   1.57056   1.57963   1.58254   1.58747
 Alpha virt. eigenvalues --    1.59178   1.60544   1.61093   1.61646   1.61926
 Alpha virt. eigenvalues --    1.65111   1.65369   1.66305   1.67704   1.68307
 Alpha virt. eigenvalues --    1.68311   1.69345   1.71288   1.72506   1.73150
 Alpha virt. eigenvalues --    1.74654   1.76281   1.76589   1.77593   1.79419
 Alpha virt. eigenvalues --    1.82955   1.83799   1.84123   1.85872   1.86385
 Alpha virt. eigenvalues --    1.87465   1.89790   1.90647   1.91220   1.94278
 Alpha virt. eigenvalues --    1.96369   1.97970   2.00161   2.00764   2.00877
 Alpha virt. eigenvalues --    2.06943   2.10146   2.10525   2.10854   2.11066
 Alpha virt. eigenvalues --    2.11360   2.13603   2.13651   2.14048   2.15518
 Alpha virt. eigenvalues --    2.15990   2.18761   2.23579   2.23827   2.24636
 Alpha virt. eigenvalues --    2.27552   2.28314   2.32315   2.34620   2.35460
 Alpha virt. eigenvalues --    2.37747   2.39487   2.39573   2.45305   2.51119
 Alpha virt. eigenvalues --    2.57386   2.61528   2.65439   2.66739   2.70237
 Alpha virt. eigenvalues --    2.75574   2.76666   2.81460   2.84179   2.89968
 Alpha virt. eigenvalues --    2.94218   2.94796   2.96324   3.02182   3.06838
 Alpha virt. eigenvalues --    3.09708   3.12469   3.16307   3.18365   3.18630
 Alpha virt. eigenvalues --    3.19756   3.22268   3.22703   3.22786   3.30711
 Alpha virt. eigenvalues --    3.32454   3.36420   3.36530   3.39715   3.41515
 Alpha virt. eigenvalues --    3.44442   3.45594   3.45880   3.45906   3.46556
 Alpha virt. eigenvalues --    3.48081   3.48867   3.49021   3.50144   3.52760
 Alpha virt. eigenvalues --    3.53942   3.55298   3.55310   3.56275   3.60196
 Alpha virt. eigenvalues --    3.62481   3.63260   3.65107   3.67079   3.67380
 Alpha virt. eigenvalues --    3.69534   3.70227   3.71858   3.72820   3.73328
 Alpha virt. eigenvalues --    3.76355   3.76849   3.79255   3.83539   3.86080
 Alpha virt. eigenvalues --    3.86424   3.88036   3.89366   3.91335   3.92179
 Alpha virt. eigenvalues --    3.95271   3.96753   3.98682   4.00567   4.01081
 Alpha virt. eigenvalues --    4.01707   4.02045   4.05934   4.06945   4.07959
 Alpha virt. eigenvalues --    4.11518   4.12517   4.15447   4.17612   4.20854
 Alpha virt. eigenvalues --    4.23356   4.23698   4.24851   4.25451   4.28827
 Alpha virt. eigenvalues --    4.32492   4.32931   4.37356   4.37852   4.43343
 Alpha virt. eigenvalues --    4.43549   4.43677   4.49507   4.52333   4.52472
 Alpha virt. eigenvalues --    4.53765   4.56104   4.58156   4.59589   4.59715
 Alpha virt. eigenvalues --    4.60294   4.61296   4.62043   4.63325   4.68160
 Alpha virt. eigenvalues --    4.69987   4.72276   4.74879   4.76665   4.79017
 Alpha virt. eigenvalues --    4.83543   4.87756   4.88848   4.89176   4.89990
 Alpha virt. eigenvalues --    4.90131   4.93394   4.95553   4.96635   4.99090
 Alpha virt. eigenvalues --    4.99753   5.00698   5.01044   5.08392   5.09825
 Alpha virt. eigenvalues --    5.12168   5.12509   5.14564   5.16386   5.17379
 Alpha virt. eigenvalues --    5.21103   5.21936   5.23195   5.24967   5.28113
 Alpha virt. eigenvalues --    5.31713   5.34416   5.36453   5.43366   5.48030
 Alpha virt. eigenvalues --    5.49202   5.50435   5.53678   5.54398   5.57067
 Alpha virt. eigenvalues --    5.58081   5.70757   5.72754   5.77011   5.77819
 Alpha virt. eigenvalues --    5.78720   5.79143   5.83977   5.89369   5.94285
 Alpha virt. eigenvalues --    5.94545   5.95994   5.96603   6.09390   6.15236
 Alpha virt. eigenvalues --    6.30383   6.41711   6.46270   6.48812   6.52823
 Alpha virt. eigenvalues --    6.56199   6.59040   6.64836   6.69379   6.89477
 Alpha virt. eigenvalues --    6.94049   7.06664   7.15743   7.28556   7.36052
 Alpha virt. eigenvalues --    7.42718   7.60157   7.96832   8.03093  14.61157
 Alpha virt. eigenvalues --   16.98884  17.25137  17.61636  17.80518
          Condensed to atoms (all electrons):
               1          2          3          4          5          6
     1  O    8.395589   0.123854   0.123852  -0.054144  -0.054165  -0.021513
     2  C    0.123854   5.415832  -0.048607  -0.055664   0.004119   0.389139
     3  C    0.123852  -0.048607   5.415801   0.004113  -0.055594   0.006340
     4  C   -0.054144  -0.055664   0.004113   5.855466  -0.014950  -0.001169
     5  C   -0.054165   0.004119  -0.055594  -0.014950   5.855378  -0.000515
     6  H   -0.021513   0.389139   0.006340  -0.001169  -0.000515   0.339772
     7  H   -0.021512   0.389140   0.006339  -0.001169  -0.000515  -0.001677
     8  H   -0.021488   0.006338   0.389134  -0.000515  -0.001167  -0.004216
     9  H   -0.021488   0.006339   0.389133  -0.000515  -0.001167   0.007641
    10  H    0.000690  -0.043506   0.001040   0.401904   0.000020   0.000091
    11  H   -0.009784   0.013888  -0.000485   0.402680  -0.001459   0.004095
    12  H   -0.009784   0.013888  -0.000485   0.402681  -0.001459  -0.004322
    13  H    0.000693   0.001040  -0.043506   0.000021   0.401893  -0.000070
    14  H   -0.009788  -0.000485   0.013887  -0.001460   0.402690  -0.001081
    15  H   -0.009788  -0.000484   0.013887  -0.001460   0.402690   0.000697
               7          8          9         10         11         12
     1  O   -0.021512  -0.021488  -0.021488   0.000690  -0.009784  -0.009784
     2  C    0.389140   0.006338   0.006339  -0.043506   0.013888   0.013888
     3  C    0.006339   0.389134   0.389133   0.001040  -0.000485  -0.000485
     4  C   -0.001169  -0.000515  -0.000515   0.401904   0.402680   0.402681
     5  C   -0.000515  -0.001167  -0.001167   0.000020  -0.001459  -0.001459
     6  H   -0.001677  -0.004216   0.007641   0.000091   0.004095  -0.004322
     7  H    0.339773   0.007641  -0.004216   0.000091  -0.004322   0.004095
     8  H    0.007641   0.339775  -0.001683  -0.000070  -0.001081   0.000697
     9  H   -0.004216  -0.001683   0.339774  -0.000070   0.000697  -0.001081
    10  H    0.000091  -0.000070  -0.000070   0.332338   0.005002   0.005002
    11  H   -0.004322  -0.001081   0.000697   0.005002   0.343770   0.004451
    12  H    0.004095   0.000697  -0.001081   0.005002   0.004451   0.343770
    13  H   -0.000070   0.000090   0.000091  -0.000027  -0.000040  -0.000040
    14  H    0.000697   0.004095  -0.004324  -0.000040  -0.000236   0.000257
    15  H   -0.001081  -0.004324   0.004095  -0.000040   0.000257  -0.000236
              13         14         15
     1  O    0.000693  -0.009788  -0.009788
     2  C    0.001040  -0.000485  -0.000484
     3  C   -0.043506   0.013887   0.013887
     4  C    0.000021  -0.001460  -0.001460
     5  C    0.401893   0.402690   0.402690
     6  H   -0.000070  -0.001081   0.000697
     7  H   -0.000070   0.000697  -0.001081
     8  H    0.000090   0.004095  -0.004324
     9  H    0.000091  -0.004324   0.004095
    10  H   -0.000027  -0.000040  -0.000040
    11  H   -0.000040  -0.000236   0.000257
    12  H   -0.000040   0.000257  -0.000236
    13  H    0.332347   0.005001   0.005001
    14  H    0.005001   0.343774   0.004451
    15  H    0.005001   0.004451   0.343773
 Mulliken charges:
               1
     1  O   -0.411225
     2  C   -0.214832
     3  C   -0.214850
     4  C   -0.935821
     5  C   -0.935799
     6  H    0.286787
     7  H    0.286786
     8  H    0.286773
     9  H    0.286774
    10  H    0.297574
    11  H    0.242567
    12  H    0.242566
    13  H    0.297576
    14  H    0.242561
    15  H    0.242562
 Sum of Mulliken charges =  -0.00000
 Mulliken charges with hydrogens summed into heavy atoms:
               1
     1  O   -0.411225
     2  C    0.358741
     3  C    0.358697
     4  C   -0.153113
     5  C   -0.153100
 Electronic spatial extent (au):  <R**2>=            627.8528
 Charge=             -0.0000 electrons
 Dipole moment (field-independent basis, Debye):
    X=             -0.0004    Y=             -1.1566    Z=             -0.0000  Tot=              1.1566
 Quadrupole moment (field-independent basis, Debye-Ang):
   XX=            -30.7534   YY=            -33.7049   ZZ=            -32.8772
   XY=              0.0001   XZ=              0.0000   YZ=             -0.0000
 Traceless Quadrupole moment (field-independent basis, Debye-Ang):
   XX=              1.6918   YY=             -1.2597   ZZ=             -0.4320
   XY=              0.0001   XZ=              0.0000   YZ=             -0.0000
 Octapole moment (field-independent basis, Debye-Ang**2):
  XXX=             -0.0026  YYY=              1.2897  ZZZ=              0.0000  XYY=             -0.0004
  XXY=             -1.1500  XXZ=             -0.0000  XZZ=             -0.0005  YZZ=              0.6058
  YYZ=             -0.0000  XYZ=             -0.0000
 Hexadecapole moment (field-independent basis, Debye-Ang**3):
 XXXX=           -688.7526 YYYY=           -116.1707 ZZZZ=            -62.2043 XXXY=             -0.0012
 XXXZ=             -0.0003 YYYX=              0.0003 YYYZ=             -0.0004 ZZZX=             -0.0003
 ZZZY=             -0.0002 XXYY=           -134.1012 XXZZ=           -126.9259 YYZZ=            -26.6255
 XXYZ=             -0.0001 YYXZ=             -0.0001 ZZXY=              0.0004
 N-N= 1.899292805330D+02 E-N=-9.238546474074D+02  KE= 2.321033461427D+02
  Exact polarizability:      69.041       0.000      55.542       0.000       0.000      51.715
 Approx polarizability:      60.371       0.000      59.010       0.000       0.000      56.496
 No NMR shielding tensors so no spin-rotation constants.
 Leave Link  601 at Wed Jan  8 07:44:38 2020, MaxMem= 13421772800 cpu:               2.4 elap:               0.4
 (Enter /opt/software/Gaussian16/bin/avx/g16/l9999.exe)

 ----------------------------------------------------------------------

 Electric dipole moment (input orientation):
 (Debye = 10**-18 statcoulomb cm , SI units = C m)
                  (au)            (Debye)         (10**-30 SI)
   Tot        0.455050D+00      0.115662D+01      0.385808D+01
   x         -0.139605D-03     -0.354840D-03     -0.118362D-02
   y         -0.455050D+00     -0.115662D+01     -0.385808D+01
   z          0.000000D+00      0.000000D+00      0.000000D+00

 Dipole polarizability, Alpha (input orientation).
 (esu units = cm**3 , SI units = C**2 m**2 J**-1)
 Alpha(0;0):
               (au)            (10**-24 esu)      (10**-40 SI)
   iso        0.587662D+02      0.870825D+01      0.968923D+01
   aniso      0.157650D+02      0.233614D+01      0.259931D+01
   xx         0.690413D+02      0.102309D+02      0.113834D+02
   yx         0.148845D-03      0.220565D-04      0.245411D-04
   yy         0.555422D+02      0.823050D+01      0.915767D+01
   zx         0.138798D-04      0.205677D-05      0.228847D-05
   zy         0.445815D-04      0.660629D-05      0.735049D-05
   zz         0.517150D+02      0.766338D+01      0.852666D+01

 First dipole hyperpolarizability, Beta (input orientation).
 ||, _|_  parallel and perpendicular components, (z) with respect to z axis,
 vector components x,y,z.  Values do not include the 1/n! factor of 1/2.
 (esu units = statvolt**-1 cm**4 , SI units = C**3 m**3 J**-2)
 Beta(0;0,0):
               (au)            (10**-30 esu)      (10**-50 SI)
   || (z)    -0.623054D-03     -0.538270D-05     -0.199774D-05
   _|_(z)    -0.207685D-03     -0.179423D-05     -0.665912D-06
   x          0.490638D-01      0.423873D-03      0.157316D-03
   y         -0.305050D+03     -0.263539D+01     -0.978100D+00
   z         -0.311527D-02     -0.269135D-04     -0.998868D-05
   ||         0.610100D+02      0.527079D+00      0.195620D+00
   xxx        0.722655D-03      0.624318D-05      0.231709D-05
   xxy       -0.429553D+02     -0.371101D+00     -0.137730D+00
   yxy        0.807905D-02      0.697967D-04      0.259044D-04
   yyy       -0.313525D+02     -0.270862D+00     -0.100528D+00
   xxz       -0.511004D-03     -0.441467D-05     -0.163846D-05
   yxz       -0.365948D-04     -0.316150D-06     -0.117336D-06
   yyz        0.132043D-04      0.114075D-06      0.423378D-07
   zxz        0.755288D-02      0.652510D-04      0.242173D-04
   zyz       -0.273754D+02     -0.236502D+00     -0.877755D-01
   zzz       -0.540624D-03     -0.467057D-05     -0.173343D-05

 ----------------------------------------------------------------------

 Dipole orientation:
     8         -0.00012782         -0.00000511         -0.50901472
     6          2.22718207         -0.00069006          0.99167999
     6         -2.22666764          0.00067445          0.99312575
     6          4.47168350         -0.00135697         -0.78227855
     6         -4.47213997          0.00137747         -0.77956113
     1          2.25859396          1.67576479          2.22538131
     1          2.25757663         -1.67718557          2.22535254
     1         -2.25720731         -1.67581181          2.22674519
     1         -2.25616920          1.67716499          2.22676451
     1          6.24217961         -0.00190671          0.28453722
     1          4.42220770         -1.67604875         -1.98701618
     1          4.42322583          1.67338483         -1.98698550
     1         -6.24209651          0.00191012          0.28815751
     1         -4.42330888          1.67608942         -1.98429037
     1         -4.42433268         -1.67334227         -1.98432104

 Electric dipole moment (dipole orientation):
 (Debye = 10**-18 statcoulomb cm , SI units = C m)
                  (au)            (Debye)         (10**-30 SI)
   Tot        0.455050D+00      0.115662D+01      0.385808D+01
   x          0.000000D+00      0.000000D+00      0.000000D+00
   y          0.000000D+00      0.000000D+00      0.000000D+00
   z          0.455050D+00      0.115662D+01      0.385808D+01

 Dipole polarizability, Alpha (dipole orientation).
 (esu units = cm**3 , SI units = C**2 m**2 J**-1)
 Alpha(0;0):
               (au)            (10**-24 esu)      (10**-40 SI)
   iso        0.587662D+02      0.870825D+01      0.968923D+01
   aniso      0.157650D+02      0.233614D+01      0.259931D+01
   xx         0.690413D+02      0.102309D+02      0.113834D+02
   yx        -0.530168D-02     -0.785627D-03     -0.874128D-03
   yy         0.517150D+02      0.766338D+01      0.852666D+01
   zx        -0.429025D-02     -0.635750D-03     -0.707367D-03
   zy        -0.329717D-04     -0.488590D-05     -0.543629D-05
   zz         0.555422D+02      0.823050D+01      0.915767D+01

 First dipole hyperpolarizability, Beta (dipole orientation).
 ||, _|_  parallel and perpendicular components, (z) with respect to z axis,
 vector components x,y,z.  Values do not include the 1/n! factor of 1/2.
 (esu units = statvolt**-1 cm**4 , SI units = C**3 m**3 J**-2)
 Beta(0;0,0):
               (au)            (10**-30 esu)      (10**-50 SI)
   || (z)     0.610100D+02      0.527079D+00      0.195620D+00
   _|_(z)     0.203367D+02      0.175693D+00      0.652067D-01
   x          0.142649D+00      0.123238D-02      0.457385D-03
   y         -0.233822D-02     -0.202004D-04     -0.749719D-05
   z          0.305050D+03      0.263539D+01      0.978100D+00
   ||         0.610100D+02      0.527079D+00      0.195620D+00
   xxx        0.402571D-01      0.347790D-03      0.129079D-03
   xxy       -0.397963D-03     -0.343809D-05     -0.127601D-05
   yxy        0.159515D-01      0.137809D-03      0.511464D-04
   yyy       -0.334324D-03     -0.288830D-05     -0.107196D-05
   xxz        0.429553D+02      0.371101D+00      0.137730D+00
   yxz       -0.474307D-02     -0.409765D-04     -0.152080D-04
   yyz        0.273754D+02      0.236502D+00      0.877755D-01
   zxz       -0.865886D-02     -0.748058D-04     -0.277634D-04
   zyz       -0.471205D-04     -0.407084D-06     -0.151085D-06
   zzz        0.313525D+02      0.270862D+00      0.100528D+00

 ----------------------------------------------------------------------
 Unable to Open any file for archive entry.
 1\1\GINC-NODE73\SP\RwB97XD\Aug-CC-pVTZ\C4H10O1\LIUCHW\08-Jan-2020\0\\#
 p wB97XD/aug-cc-pvtz NoSymm MaxDisk=100GB polar\\polar\\0,1\O,0,0.0000
 15,0.269359,-0.000002\C,0,1.178413,-0.525136,-0.000005\C,0,-1.178463,-
 0.525178,-0.000006\C,0,2.36644,0.413238,0.000009\C,0,-2.366428,0.41325
 2,0.000004\H,0,1.194563,-1.17799,0.88714\H,0,1.194569,-1.17797,-0.8871
 65\H,0,-1.194552,-1.177974,-0.887171\H,0,-1.194547,-1.177989,0.887148\
 H,0,3.303173,-0.151584,0.000004\H,0,2.340726,1.050768,-0.886206\H,0,2.
 340721,1.050747,0.886238\H,0,-3.303222,-0.151473,-0.000003\H,0,-2.3406
 64,1.050757,0.886233\H,0,-2.340662,1.050778,-0.88621\\Version=ES64L-G1
 6RevC.01\HF=-233.6778157\RMSD=3.462e-09\Dipole=-0.0001396,-0.4550502,-
 0.0000012\Polar=69.0413037,0.0001488,55.542178,0.0000139,0.0000446,51.
 7150234\HyperPolar=0.0007227,-42.9553471,0.0080791,-31.3525437,-0.0005
 11,-0.0000366,0.0000132,0.0075529,-27.3754336,-0.0005406\Quadrupole=1.
 2577817,-0.9365833,-0.3211984,0.0000476,0.0000005,-0.0000058\PG=C01 [X
 (C4H10O1)]\\@
 The archive entry for this job was punched.


 BUT 'GLORY' DOESN'T MEAN 'A NICE KNOCK DOWN ARGUMENT', ALICE OBJECTED.
 WHEN I USE A WORD, HUMPTY DUMPTY SAID, IN A RATHER SCORNFUL TONE,
 IT MEANS JUST WHAT I CHOOSE IT TO MEAN....
 NEITHER MORE NOR LESS....
 THE QUESTION IS, SAID ALICE,
 WHETHER YOU CAN MAKE WORDS MEAN SO MANY DIFFERENT THINGS...
 THE QUESTION IS, SAID HUMPTY DUMPTY,
 WHICH IS TO BE MASTER....
 THAT IS ALL.....

 ALICE THROUGH THE LOOKING GLASS
 Job cpu time:       0 days  2 hours 14 minutes 34.0 seconds.
 Elapsed time:       0 days  0 hours 16 minutes 49.7 seconds.
 File lengths (MBytes):  RWF=    112 Int=      0 D2E=      0 Chk=     15 Scr=      1
 Normal termination of Gaussian 16 at Wed Jan  8 07:44:38 2020.
