 Entering Gaussian System, Link 0=g16
 Input=113_DiethylCarbonate.com
 Output=113_DiethylCarbonate.out
 Initial command:
 /opt/software/Gaussian16/bin/avx/g16/l1.exe "/scratch/liuchw/Gau-24912.inp" -scrdir="/scratch/liuchw/"
 Entering Link 1 = /opt/software/Gaussian16/bin/avx/g16/l1.exe PID=     24913.
  
 Copyright (c) 1988-2019, Gaussian, Inc.  All Rights Reserved.
  
 This is part of the Gaussian(R) 16 program.  It is based on
 the Gaussian(R) 09 system (copyright 2009, Gaussian, Inc.),
 the Gaussian(R) 03 system (copyright 2003, Gaussian, Inc.),
 the Gaussian(R) 98 system (copyright 1998, Gaussian, Inc.),
 the Gaussian(R) 94 system (copyright 1995, Gaussian, Inc.),
 the Gaussian 92(TM) system (copyright 1992, Gaussian, Inc.),
 the Gaussian 90(TM) system (copyright 1990, Gaussian, Inc.),
 the Gaussian 88(TM) system (copyright 1988, Gaussian, Inc.),
 the Gaussian 86(TM) system (copyright 1986, Carnegie Mellon
 University), and the Gaussian 82(TM) system (copyright 1983,
 Carnegie Mellon University). Gaussian is a federally registered
 trademark of Gaussian, Inc.
  
 This software contains proprietary and confidential information,
 including trade secrets, belonging to Gaussian, Inc.
  
 This software is provided under written license and may be
 used, copied, transmitted, or stored only in accord with that
 written license.
  
 The following legend is applicable only to US Government
 contracts under FAR:
  
                    RESTRICTED RIGHTS LEGEND
  
 Use, reproduction and disclosure by the US Government is
 subject to restrictions as set forth in subparagraphs (a)
 and (c) of the Commercial Computer Software - Restricted
 Rights clause in FAR 52.227-19.
  
 Gaussian, Inc.
 340 Quinnipiac St., Bldg. 40, Wallingford CT 06492
  
  
 ---------------------------------------------------------------
 Warning -- This program may not be used in any manner that
 competes with the business of Gaussian, Inc. or will provide
 assistance to any competitor of Gaussian, Inc.  The licensee
 of this program is prohibited from giving any competitor of
 Gaussian, Inc. access to this program.  By using this program,
 the user acknowledges that Gaussian, Inc. is engaged in the
 business of creating and licensing software in the field of
 computational chemistry and represents and warrants to the
 licensee that it is not a competitor of Gaussian, Inc. and that
 it will not use this program in any manner prohibited above.
 ---------------------------------------------------------------
  

 Cite this work as:
 Gaussian 16, Revision C.01,
 M. J. Frisch, G. W. Trucks, H. B. Schlegel, G. E. Scuseria, 
 M. A. Robb, J. R. Cheeseman, G. Scalmani, V. Barone, 
 G. A. Petersson, H. Nakatsuji, X. Li, M. Caricato, A. V. Marenich, 
 J. Bloino, B. G. Janesko, R. Gomperts, B. Mennucci, H. P. Hratchian, 
 J. V. Ortiz, A. F. Izmaylov, J. L. Sonnenberg, D. Williams-Young, 
 F. Ding, F. Lipparini, F. Egidi, J. Goings, B. Peng, A. Petrone, 
 T. Henderson, D. Ranasinghe, V. G. Zakrzewski, J. Gao, N. Rega, 
 G. Zheng, W. Liang, M. Hada, M. Ehara, K. Toyota, R. Fukuda, 
 J. Hasegawa, M. Ishida, T. Nakajima, Y. Honda, O. Kitao, H. Nakai, 
 T. Vreven, K. Throssell, J. A. Montgomery, Jr., J. E. Peralta, 
 F. Ogliaro, M. J. Bearpark, J. J. Heyd, E. N. Brothers, K. N. Kudin, 
 V. N. Staroverov, T. A. Keith, R. Kobayashi, J. Normand, 
 K. Raghavachari, A. P. Rendell, J. C. Burant, S. S. Iyengar, 
 J. Tomasi, M. Cossi, J. M. Millam, M. Klene, C. Adamo, R. Cammi, 
 J. W. Ochterski, R. L. Martin, K. Morokuma, O. Farkas, 
 J. B. Foresman, and D. J. Fox, Gaussian, Inc., Wallingford CT, 2019.
 
 ******************************************
 Gaussian 16:  ES64L-G16RevC.01  3-Jul-2019
                25-Apr-2011 
 ******************************************
 %chk=113_DiethylCarbonate.chk
 %nproc=8
 Will use up to    8 processors via shared memory.
 %Mem=20GB
 ------------------------------------------------
 #p wB97XD/aug-cc-pvtz NoSymm MaxDisk=100GB Polar
 ------------------------------------------------
 1/38=1,172=1/1;
 2/12=2,15=1,17=6,18=5,40=1/2;
 3/5=16,6=1,7=10,11=2,25=1,30=1,74=-58/1,2,3;
 4//1;
 5/5=2,38=5,98=1/2;
 8/6=4,10=90,11=11/1;
 10/6=1,13=10,31=1/2;
 6/7=2,8=2,9=2,10=2,28=1/1;
 99/5=1,9=1/99;
 Leave Link    1 at Mon Apr 25 19:59:16 2011, MaxMem=  2684354560 cpu:               0.4 elap:               0.1
 (Enter /opt/software/Gaussian16/bin/avx/g16/l101.exe)
 -----
 Polar
 -----
 Symbolic Z-matrix:
 Charge =  0 Multiplicity = 1
 O                     1.08481  -0.43275  -0.00004 
 O                    -1.08481  -0.43275  -0.00004 
 O                     0.        1.58132   0.00002 
 C                     2.34045   0.29038   0. 
 C                    -2.34045   0.29038   0. 
 C                     3.43303  -0.75341   0.00003 
 C                    -3.43303  -0.75341   0.00003 
 C                     0.        0.36269  -0.00003 
 H                     2.37999   0.93192  -0.88436 
 H                     2.37994   0.93193   0.88436 
 H                    -2.37994   0.93192   0.88437 
 H                    -2.37999   0.93193  -0.88435 
 H                     4.41176  -0.26549   0.00006 
 H                     3.35829  -1.38575   0.88694 
 H                     3.35833  -1.38575  -0.88688 
 H                    -4.41176  -0.26549   0.00005 
 H                    -3.35833  -1.38575  -0.88689 
 H                    -3.35829  -1.38575   0.88694 
 
 ITRead=  0  0  0  0  0  0  0  0  0  0  0  0  0  0  0  0  0  0
 MicOpt= -1 -1 -1 -1 -1 -1 -1 -1 -1 -1 -1 -1 -1 -1 -1 -1 -1 -1
 NAtoms=     18 NQM=       18 NQMF=       0 NMMI=      0 NMMIF=      0
                NMic=       0 NMicF=      0.
                    Isotopes and Nuclear Properties:
 (Nuclear quadrupole moments (NQMom) in fm**2, nuclear magnetic moments (NMagM)
  in nuclear magnetons)

  Atom         1           2           3           4           5           6           7           8           9          10
 IAtWgt=          16          16          16          12          12          12          12          12           1           1
 AtmWgt=  15.9949146  15.9949146  15.9949146  12.0000000  12.0000000  12.0000000  12.0000000  12.0000000   1.0078250   1.0078250
 NucSpn=           0           0           0           0           0           0           0           0           1           1
 AtZEff=  -0.0000000  -0.0000000  -0.0000000  -0.0000000  -0.0000000  -0.0000000  -0.0000000  -0.0000000  -0.0000000  -0.0000000
 NQMom=    0.0000000   0.0000000   0.0000000   0.0000000   0.0000000   0.0000000   0.0000000   0.0000000   0.0000000   0.0000000
 NMagM=    0.0000000   0.0000000   0.0000000   0.0000000   0.0000000   0.0000000   0.0000000   0.0000000   2.7928460   2.7928460
 AtZNuc=   8.0000000   8.0000000   8.0000000   6.0000000   6.0000000   6.0000000   6.0000000   6.0000000   1.0000000   1.0000000

  Atom        11          12          13          14          15          16          17          18
 IAtWgt=           1           1           1           1           1           1           1           1
 AtmWgt=   1.0078250   1.0078250   1.0078250   1.0078250   1.0078250   1.0078250   1.0078250   1.0078250
 NucSpn=           1           1           1           1           1           1           1           1
 AtZEff=  -0.0000000  -0.0000000  -0.0000000  -0.0000000  -0.0000000  -0.0000000  -0.0000000  -0.0000000
 NQMom=    0.0000000   0.0000000   0.0000000   0.0000000   0.0000000   0.0000000   0.0000000   0.0000000
 NMagM=    2.7928460   2.7928460   2.7928460   2.7928460   2.7928460   2.7928460   2.7928460   2.7928460
 AtZNuc=   1.0000000   1.0000000   1.0000000   1.0000000   1.0000000   1.0000000   1.0000000   1.0000000
 Leave Link  101 at Mon Apr 25 19:59:16 2011, MaxMem=  2684354560 cpu:               0.8 elap:               0.1
 (Enter /opt/software/Gaussian16/bin/avx/g16/l202.exe)
                          Input orientation:                          
 ---------------------------------------------------------------------
 Center     Atomic      Atomic             Coordinates (Angstroms)
 Number     Number       Type             X           Y           Z
 ---------------------------------------------------------------------
      1          8           0        1.084812   -0.432750   -0.000038
      2          8           0       -1.084813   -0.432750   -0.000036
      3          8           0        0.000000    1.581320    0.000021
      4          6           0        2.340451    0.290380    0.000000
      5          6           0       -2.340449    0.290379    0.000004
      6          6           0        3.433032   -0.753413    0.000032
      7          6           0       -3.433033   -0.753412    0.000029
      8          6           0        0.000001    0.362689   -0.000034
      9          1           0        2.379991    0.931924   -0.884359
     10          1           0        2.379938    0.931925    0.884360
     11          1           0       -2.379940    0.931920    0.884367
     12          1           0       -2.379989    0.931929   -0.884351
     13          1           0        4.411764   -0.265494    0.000057
     14          1           0        3.358286   -1.385750    0.886944
     15          1           0        3.358334   -1.385754   -0.886881
     16          1           0       -4.411763   -0.265490    0.000054
     17          1           0       -3.358334   -1.385751   -0.886886
     18          1           0       -3.358292   -1.385753    0.886938
 ---------------------------------------------------------------------
                    Distance matrix (angstroms):
                    1          2          3          4          5
     1  O    0.000000
     2  O    2.169625   0.000000
     3  O    2.287640   2.287640   0.000000
     4  C    1.448981   3.500764   2.672871   0.000000
     5  C    3.500761   1.448978   2.672869   4.680900   0.000000
     6  C    2.370013   4.529211   4.151709   1.511038   5.867076
     7  C    4.529210   2.370013   4.151709   5.867079   1.511039
     8  C    1.345191   1.345193   1.218631   2.341567   2.341567
     9  H    2.078905   3.827431   2.620725   1.093267   4.845228
    10  H    2.078906   3.827400   2.620663   1.093267   4.845175
    11  H    3.827402   2.078905   2.620668   4.845180   1.093267
    12  H    3.827428   2.078904   2.620719   4.845226   1.093267
    13  H    3.331154   5.499121   4.782717   2.144606   6.775055
    14  H    2.619853   4.629911   4.568175   2.152224   6.005968
    15  H    2.619849   4.629932   4.568209   2.152224   6.006007
    16  H    5.499119   3.331152   4.782715   6.775056   2.144605
    17  H    4.629931   2.619850   4.568208   6.006008   2.152226
    18  H    4.629915   2.619856   4.568180   6.005976   2.152226
                    6          7          8          9         10
     6  C    0.000000
     7  C    6.866065   0.000000
     8  C    3.609901   3.609904   0.000000
     9  H    2.175179   6.116678   2.602001   0.000000
    10  H    2.175180   6.116619   2.601977   1.768719   0.000000
    11  H    6.116620   2.175179   2.601982   5.077926   4.759878
    12  H    6.116676   2.175179   2.602000   4.759980   5.077917
    13  H    1.093609   7.859956   4.456262   2.518750   2.518754
    14  H    1.091810   6.878116   3.888682   3.076717   2.515708
    15  H    1.091810   6.878163   3.888695   2.515709   3.076717
    16  H    7.859954   1.093609   4.456262   6.952978   6.952913
    17  H    6.878163   1.091811   3.888697   6.188699   6.437134
    18  H    6.878120   1.091810   3.888689   6.437159   6.188612
                   11         12         13         14         15
    11  H    0.000000
    12  H    1.768718   0.000000
    13  H    6.952916   6.952978   0.000000
    14  H    6.188606   6.437152   1.775206   0.000000
    15  H    6.437136   6.188700   1.775206   1.773825   0.000000
    16  H    2.518751   2.518748   8.823527   7.900330   7.900383
    17  H    3.076718   2.515712   7.900384   6.946903   6.716668
    18  H    2.515708   3.076718   7.900336   6.716578   6.946906
                   16         17         18
    16  H    0.000000
    17  H    1.775207   0.000000
    18  H    1.775205   1.773824   0.000000
 Symmetry turned off by external request.
 Stoichiometry    C5H10O3
 Framework group  C1[X(C5H10O3)]
 Deg. of freedom    48
 Full point group                 C1      NOp   1
 Rotational constants (GHZ):           6.2488675           0.8931730           0.7970626
 Leave Link  202 at Mon Apr 25 19:59:16 2011, MaxMem=  2684354560 cpu:               0.1 elap:               0.0
 (Enter /opt/software/Gaussian16/bin/avx/g16/l301.exe)
 Standard basis: Aug-CC-pVTZ (5D, 7F)
 Ernie: Thresh=  0.10000D-02 Tol=  0.10000D-05 Strict=F.
 Ernie:  24 primitive shells out of 350 were deleted.
   598 basis functions,   846 primitive gaussians,   690 cartesian basis functions
    32 alpha electrons       32 beta electrons
       nuclear repulsion energy       391.9152067033 Hartrees.
 IExCor= 4639 DFT=T Ex+Corr=wB97XD ExCW=0 ScaHFX=  1.000000
 ScaDFX=  1.000000  1.000000  1.000000  1.000000 ScalE2=  1.000000  1.000000
 IRadAn=      5 IRanWt=     -1 IRanGd=            0 ICorTp=0 IEmpDi=121
 HFx  wShort=  0.000000 wLong=  0.200000 cFull=  0.222036 cShort=  0.000000 cLong=  0.777964
 DFx  wShort=  0.000000 wLong=  0.200000 cFull=  0.000000 cShort=  0.000000 cLong=  1.000000
 NAtoms=   18 NActive=   18 NUniq=   18 SFac= 1.00D+00 NAtFMM=   60 NAOKFM=F Big=F
 Integral buffers will be    131072 words long.
 Raffenetti 2 integral format.
 Two-electron integral symmetry is turned off.
 R6Disp:  Grimme-D2 Dispersion energy=       -0.0070958797 Hartrees.
 Nuclear repulsion after empirical dispersion term =      391.9081108237 Hartrees.
 Leave Link  301 at Mon Apr 25 19:59:16 2011, MaxMem=  2684354560 cpu:               0.5 elap:               0.1
 (Enter /opt/software/Gaussian16/bin/avx/g16/l302.exe)
 NPDir=0 NMtPBC=     1 NCelOv=     1 NCel=       1 NClECP=     1 NCelD=      1
         NCelK=      1 NCelE2=     1 NClLst=     1 CellRange=     0.0.
 One-electron integrals computed using PRISM.
 NBasis=   598 RedAO= T EigKep=  7.08D-06  NBF=   598
 NBsUse=   598 1.00D-06 EigRej= -1.00D+00 NBFU=   598
 Precomputing XC quadrature grid using
 IXCGrd= 4 IRadAn=           5 IRanWt=          -1 IRanGd=           0 AccXCQ= 0.00D+00.
 Generated NRdTot=       0 NPtTot=           0 NUsed=           0 NTot=          32
 NSgBfM=   690   690   690   690   690 MxSgAt=    18 MxSgA2=    18.
 Leave Link  302 at Mon Apr 25 19:59:17 2011, MaxMem=  2684354560 cpu:               5.2 elap:               0.7
 (Enter /opt/software/Gaussian16/bin/avx/g16/l303.exe)
 DipDrv:  MaxL=1.
 Leave Link  303 at Mon Apr 25 19:59:17 2011, MaxMem=  2684354560 cpu:               0.6 elap:               0.1
 (Enter /opt/software/Gaussian16/bin/avx/g16/l401.exe)
 ExpMin= 2.53D-02 ExpMax= 1.53D+04 ExpMxC= 5.22D+02 IAcc=3 IRadAn=         5 AccDes= 0.00D+00
 Harris functional with IExCor= 4639 and IRadAn=       5 diagonalized for initial guess.
 HarFok:  IExCor= 4639 AccDes= 0.00D+00 IRadAn=         5 IDoV= 1 UseB2=F ITyADJ=14
 ICtDFT=  3500011 ScaDFX=  1.000000  1.000000  1.000000  1.000000
 FoFCou: FMM=F IPFlag=           0 FMFlag=      100000 FMFlg1=           0
         NFxFlg=           0 DoJE=T BraDBF=F KetDBF=T FulRan=T
         wScrn=  0.000000 ICntrl=       500 IOpCl=  0 I1Cent=   200000004 NGrid=           0
         NMat0=    1 NMatS0=      1 NMatT0=    0 NMatD0=    1 NMtDS0=    0 NMtDT0=    0
 Symmetry not used in FoFCou.
 Harris En= -405.014794282923    
 JPrj=0 DoOrth=F DoCkMO=F.
 Leave Link  401 at Mon Apr 25 19:59:22 2011, MaxMem=  2684354560 cpu:              38.7 elap:               4.9
 (Enter /opt/software/Gaussian16/bin/avx/g16/l502.exe)
 Two-electron integral symmetry not used.
 Closed shell SCF:
 Using DIIS extrapolation, IDIIS=  1040.
 NGot=  2684354560 LenX=  2683392252 LenY=  2682915462
 Requested convergence on RMS density matrix=1.00D-08 within 128 cycles.
 Requested convergence on MAX density matrix=1.00D-06.
 Requested convergence on             energy=1.00D-06.
 No special actions if energy rises.
 Fock matrices will be formed incrementally for  20 cycles.

 Cycle   1  Pass 1  IDiag  1:
 FoFJK:  IHMeth= 1 ICntrl=       0 DoSepK=T KAlg= 0 I1Cent=           0 FoldK=F
 IRaf=         1 NMat=       1 IRICut=       1 DoRegI=T DoRafI=F ISym2E= 0 IDoP0=0 IntGTp=1.
 FoFCou: FMM=F IPFlag=           0 FMFlag=      100000 FMFlg1=           0
         NFxFlg=           0 DoJE=T BraDBF=F KetDBF=F FulRan=T
         wScrn=  0.000000 ICntrl=       500 IOpCl=  0 I1Cent=           0 NGrid=           0
         NMat0=    1 NMatS0=      1 NMatT0=    0 NMatD0=    1 NMtDS0=    0 NMtDT0=    0
 Symmetry not used in FoFCou.
 E= -422.087442443333    
 DIIS: error= 5.95D-02 at cycle   1 NSaved=   1.
 NSaved= 1 IEnMin= 1 EnMin= -422.087442443333     IErMin= 1 ErrMin= 5.95D-02
 ErrMax= 5.95D-02  0.00D+00 EMaxC= 1.00D-01 BMatC= 8.14D-01 BMatP= 8.14D-01
 IDIUse=3 WtCom= 4.05D-01 WtEn= 5.95D-01
 Coeff-Com:  0.100D+01
 Coeff-En:   0.100D+01
 Coeff:      0.100D+01
 Gap=     0.561 Goal=   None    Shift=    0.000
 GapD=    0.561 DampG=2.000 DampE=0.500 DampFc=1.0000 IDamp=-1.
 RMSDP=1.66D-03 MaxDP=1.34D-01              OVMax= 1.30D-01

 Cycle   2  Pass 1  IDiag  1:
 RMSU=  1.65D-03    CP:  9.66D-01
 E= -422.137271039215     Delta-E=       -0.049828595882 Rises=F Damp=F
 DIIS: error= 1.83D-02 at cycle   2 NSaved=   2.
 NSaved= 2 IEnMin= 2 EnMin= -422.137271039215     IErMin= 2 ErrMin= 1.83D-02
 ErrMax= 1.83D-02  0.00D+00 EMaxC= 1.00D-01 BMatC= 2.08D-01 BMatP= 8.14D-01
 IDIUse=3 WtCom= 8.17D-01 WtEn= 1.83D-01
 Coeff-Com:  0.289D+00 0.711D+00
 Coeff-En:   0.404D+00 0.596D+00
 Coeff:      0.310D+00 0.690D+00
 Gap=     0.568 Goal=   None    Shift=    0.000
 RMSDP=7.17D-04 MaxDP=3.94D-02 DE=-4.98D-02 OVMax= 1.16D-01

 Cycle   3  Pass 1  IDiag  1:
 RMSU=  5.74D-04    CP:  9.77D-01  7.42D-01
 E= -422.225864341723     Delta-E=       -0.088593302509 Rises=F Damp=F
 DIIS: error= 1.05D-02 at cycle   3 NSaved=   3.
 NSaved= 3 IEnMin= 3 EnMin= -422.225864341723     IErMin= 3 ErrMin= 1.05D-02
 ErrMax= 1.05D-02  0.00D+00 EMaxC= 1.00D-01 BMatC= 7.39D-02 BMatP= 2.08D-01
 IDIUse=3 WtCom= 8.95D-01 WtEn= 1.05D-01
 Coeff-Com:  0.480D-01 0.376D+00 0.576D+00
 Coeff-En:   0.000D+00 0.266D+00 0.734D+00
 Coeff:      0.429D-01 0.364D+00 0.593D+00
 Gap=     0.426 Goal=   None    Shift=    0.000
 RMSDP=2.95D-04 MaxDP=1.83D-02 DE=-8.86D-02 OVMax= 7.46D-02

 Cycle   4  Pass 1  IDiag  1:
 RMSU=  1.90D-04    CP:  9.78D-01  8.01D-01  6.44D-01
 E= -422.271921084678     Delta-E=       -0.046056742954 Rises=F Damp=F
 DIIS: error= 3.30D-03 at cycle   4 NSaved=   4.
 NSaved= 4 IEnMin= 4 EnMin= -422.271921084678     IErMin= 4 ErrMin= 3.30D-03
 ErrMax= 3.30D-03  0.00D+00 EMaxC= 1.00D-01 BMatC= 4.77D-03 BMatP= 7.39D-02
 IDIUse=3 WtCom= 9.67D-01 WtEn= 3.30D-02
 Coeff-Com:  0.813D-02 0.144D+00 0.304D+00 0.544D+00
 Coeff-En:   0.000D+00 0.000D+00 0.000D+00 0.100D+01
 Coeff:      0.786D-02 0.140D+00 0.294D+00 0.559D+00
 Gap=     0.413 Goal=   None    Shift=    0.000
 RMSDP=7.75D-05 MaxDP=8.64D-03 DE=-4.61D-02 OVMax= 1.73D-02

 Cycle   5  Pass 1  IDiag  1:
 RMSU=  5.16D-05    CP:  9.77D-01  8.08D-01  6.90D-01  7.39D-01
 E= -422.275020448574     Delta-E=       -0.003099363896 Rises=F Damp=F
 DIIS: error= 4.35D-04 at cycle   5 NSaved=   5.
 NSaved= 5 IEnMin= 5 EnMin= -422.275020448574     IErMin= 5 ErrMin= 4.35D-04
 ErrMax= 4.35D-04  0.00D+00 EMaxC= 1.00D-01 BMatC= 1.25D-04 BMatP= 4.77D-03
 IDIUse=3 WtCom= 9.96D-01 WtEn= 4.35D-03
 Coeff-Com: -0.250D-03 0.147D-01 0.485D-01 0.184D+00 0.753D+00
 Coeff-En:   0.000D+00 0.000D+00 0.000D+00 0.000D+00 0.100D+01
 Coeff:     -0.249D-03 0.146D-01 0.483D-01 0.183D+00 0.754D+00
 Gap=     0.409 Goal=   None    Shift=    0.000
 RMSDP=2.28D-05 MaxDP=1.51D-03 DE=-3.10D-03 OVMax= 2.85D-03

 Cycle   6  Pass 1  IDiag  1:
 RMSU=  1.44D-05    CP:  9.78D-01  8.07D-01  6.99D-01  8.22D-01  1.06D+00
 E= -422.275096312648     Delta-E=       -0.000075864074 Rises=F Damp=F
 DIIS: error= 2.48D-04 at cycle   6 NSaved=   6.
 NSaved= 6 IEnMin= 6 EnMin= -422.275096312648     IErMin= 6 ErrMin= 2.48D-04
 ErrMax= 2.48D-04  0.00D+00 EMaxC= 1.00D-01 BMatC= 1.80D-05 BMatP= 1.25D-04
 IDIUse=3 WtCom= 9.98D-01 WtEn= 2.48D-03
 Coeff-Com: -0.942D-03-0.975D-02-0.115D-01 0.211D-01 0.343D+00 0.658D+00
 Coeff-En:   0.000D+00 0.000D+00 0.000D+00 0.000D+00 0.000D+00 0.100D+01
 Coeff:     -0.939D-03-0.973D-02-0.115D-01 0.211D-01 0.342D+00 0.659D+00
 Gap=     0.409 Goal=   None    Shift=    0.000
 RMSDP=7.89D-06 MaxDP=4.73D-04 DE=-7.59D-05 OVMax= 9.17D-04

 Cycle   7  Pass 1  IDiag  1:
 RMSU=  5.45D-06    CP:  9.78D-01  8.06D-01  7.02D-01  8.43D-01  1.13D+00
                    CP:  1.03D+00
 E= -422.275110601603     Delta-E=       -0.000014288955 Rises=F Damp=F
 DIIS: error= 3.04D-05 at cycle   7 NSaved=   7.
 NSaved= 7 IEnMin= 7 EnMin= -422.275110601603     IErMin= 7 ErrMin= 3.04D-05
 ErrMax= 3.04D-05  0.00D+00 EMaxC= 1.00D-01 BMatC= 5.29D-07 BMatP= 1.80D-05
 IDIUse=1 WtCom= 1.00D+00 WtEn= 0.00D+00
 Coeff-Com: -0.176D-03-0.376D-02-0.665D-02-0.883D-02 0.318D-01 0.160D+00
 Coeff-Com:  0.827D+00
 Coeff:     -0.176D-03-0.376D-02-0.665D-02-0.883D-02 0.318D-01 0.160D+00
 Coeff:      0.827D+00
 Gap=     0.409 Goal=   None    Shift=    0.000
 RMSDP=3.16D-06 MaxDP=2.25D-04 DE=-1.43D-05 OVMax= 1.95D-04

 Cycle   8  Pass 1  IDiag  1:
 RMSU=  1.54D-06    CP:  9.78D-01  8.06D-01  7.03D-01  8.49D-01  1.15D+00
                    CP:  1.15D+00  1.24D+00
 E= -422.275111150402     Delta-E=       -0.000000548799 Rises=F Damp=F
 DIIS: error= 1.26D-05 at cycle   8 NSaved=   8.
 NSaved= 8 IEnMin= 8 EnMin= -422.275111150402     IErMin= 8 ErrMin= 1.26D-05
 ErrMax= 1.26D-05  0.00D+00 EMaxC= 1.00D-01 BMatC= 5.70D-08 BMatP= 5.29D-07
 IDIUse=1 WtCom= 1.00D+00 WtEn= 0.00D+00
 Coeff-Com:  0.214D-04-0.289D-04-0.499D-03-0.479D-02-0.287D-01-0.217D-01
 Coeff-Com:  0.248D+00 0.807D+00
 Coeff:      0.214D-04-0.289D-04-0.499D-03-0.479D-02-0.287D-01-0.217D-01
 Coeff:      0.248D+00 0.807D+00
 Gap=     0.409 Goal=   None    Shift=    0.000
 RMSDP=1.03D-06 MaxDP=1.06D-04 DE=-5.49D-07 OVMax= 1.08D-04

 Cycle   9  Pass 1  IDiag  1:
 RMSU=  5.25D-07    CP:  9.78D-01  8.06D-01  7.03D-01  8.51D-01  1.16D+00
                    CP:  1.19D+00  1.29D+00  9.41D-01
 E= -422.275111225080     Delta-E=       -0.000000074678 Rises=F Damp=F
 DIIS: error= 2.29D-06 at cycle   9 NSaved=   9.
 NSaved= 9 IEnMin= 9 EnMin= -422.275111225080     IErMin= 9 ErrMin= 2.29D-06
 ErrMax= 2.29D-06  0.00D+00 EMaxC= 1.00D-01 BMatC= 2.55D-09 BMatP= 5.70D-08
 IDIUse=1 WtCom= 1.00D+00 WtEn= 0.00D+00
 Coeff-Com:  0.114D-04 0.180D-03 0.342D-03-0.994D-04-0.498D-02-0.111D-01
 Coeff-Com: -0.279D-01 0.975D-01 0.946D+00
 Coeff:      0.114D-04 0.180D-03 0.342D-03-0.994D-04-0.498D-02-0.111D-01
 Coeff:     -0.279D-01 0.975D-01 0.946D+00
 Gap=     0.409 Goal=   None    Shift=    0.000
 RMSDP=2.45D-07 MaxDP=1.42D-05 DE=-7.47D-08 OVMax= 3.14D-05

 Cycle  10  Pass 1  IDiag  1:
 RMSU=  9.33D-08    CP:  9.78D-01  8.06D-01  7.03D-01  8.52D-01  1.16D+00
                    CP:  1.19D+00  1.31D+00  9.90D-01  1.19D+00
 E= -422.275111229115     Delta-E=       -0.000000004035 Rises=F Damp=F
 DIIS: error= 8.67D-07 at cycle  10 NSaved=  10.
 NSaved=10 IEnMin=10 EnMin= -422.275111229115     IErMin=10 ErrMin= 8.67D-07
 ErrMax= 8.67D-07  0.00D+00 EMaxC= 1.00D-01 BMatC= 2.99D-10 BMatP= 2.55D-09
 IDIUse=1 WtCom= 1.00D+00 WtEn= 0.00D+00
 Coeff-Com:  0.170D-05 0.451D-04 0.135D-03 0.335D-03 0.109D-02-0.113D-02
 Coeff-Com: -0.268D-01-0.340D-01 0.255D+00 0.805D+00
 Coeff:      0.170D-05 0.451D-04 0.135D-03 0.335D-03 0.109D-02-0.113D-02
 Coeff:     -0.268D-01-0.340D-01 0.255D+00 0.805D+00
 Gap=     0.409 Goal=   None    Shift=    0.000
 RMSDP=5.37D-08 MaxDP=2.03D-06 DE=-4.04D-09 OVMax= 1.08D-05

 Cycle  11  Pass 1  IDiag  1:
 RMSU=  3.17D-08    CP:  9.78D-01  8.06D-01  7.03D-01  8.52D-01  1.16D+00
                    CP:  1.20D+00  1.31D+00  1.00D+00  1.25D+00  1.12D+00
 E= -422.275111229537     Delta-E=       -0.000000000422 Rises=F Damp=F
 DIIS: error= 2.51D-07 at cycle  11 NSaved=  11.
 NSaved=11 IEnMin=11 EnMin= -422.275111229537     IErMin=11 ErrMin= 2.51D-07
 ErrMax= 2.51D-07  0.00D+00 EMaxC= 1.00D-01 BMatC= 3.00D-11 BMatP= 2.99D-10
 IDIUse=1 WtCom= 1.00D+00 WtEn= 0.00D+00
 Coeff-Com: -0.771D-06-0.441D-05 0.476D-05 0.997D-04 0.902D-03 0.850D-03
 Coeff-Com: -0.353D-02-0.212D-01-0.548D-01 0.178D+00 0.900D+00
 Coeff:     -0.771D-06-0.441D-05 0.476D-05 0.997D-04 0.902D-03 0.850D-03
 Coeff:     -0.353D-02-0.212D-01-0.548D-01 0.178D+00 0.900D+00
 Gap=     0.409 Goal=   None    Shift=    0.000
 RMSDP=2.06D-08 MaxDP=8.85D-07 DE=-4.22D-10 OVMax= 4.38D-06

 Cycle  12  Pass 1  IDiag  1:
 RMSU=  8.12D-09    CP:  9.78D-01  8.06D-01  7.03D-01  8.52D-01  1.16D+00
                    CP:  1.20D+00  1.31D+00  9.99D-01  1.27D+00  1.24D+00
                    CP:  1.21D+00
 E= -422.275111229587     Delta-E=       -0.000000000050 Rises=F Damp=F
 DIIS: error= 4.48D-08 at cycle  12 NSaved=  12.
 NSaved=12 IEnMin=12 EnMin= -422.275111229587     IErMin=12 ErrMin= 4.48D-08
 ErrMax= 4.48D-08  0.00D+00 EMaxC= 1.00D-01 BMatC= 1.32D-12 BMatP= 3.00D-11
 IDIUse=1 WtCom= 1.00D+00 WtEn= 0.00D+00
 Coeff-Com:  0.589D-07-0.196D-05-0.734D-05-0.316D-04-0.851D-04-0.123D-04
 Coeff-Com:  0.181D-02 0.242D-02-0.104D-01-0.560D-01-0.510D-01 0.111D+01
 Coeff:      0.589D-07-0.196D-05-0.734D-05-0.316D-04-0.851D-04-0.123D-04
 Coeff:      0.181D-02 0.242D-02-0.104D-01-0.560D-01-0.510D-01 0.111D+01
 Gap=     0.409 Goal=   None    Shift=    0.000
 RMSDP=6.09D-09 MaxDP=3.02D-07 DE=-5.01D-11 OVMax= 1.02D-06

 SCF Done:  E(RwB97XD) =  -422.275111230     A.U. after   12 cycles
            NFock= 12  Conv=0.61D-08     -V/T= 2.0064
 KE= 4.195747103354D+02 PE=-1.771711945959D+03 EE= 5.379540135704D+02
 Leave Link  502 at Mon Apr 25 20:10:48 2011, MaxMem=  2684354560 cpu:            5489.3 elap:             686.4
 (Enter /opt/software/Gaussian16/bin/avx/g16/l801.exe)
 DoSCS=F DFT=T ScalE2(SS,OS)=  1.000000  1.000000
 Range of M.O.s used for correlation:     1   598
 NBasis=   598 NAE=    32 NBE=    32 NFC=     0 NFV=     0
 NROrb=    598 NOA=    32 NOB=    32 NVA=   566 NVB=   566

 **** Warning!!: The largest alpha MO coefficient is  0.64235830D+02

 Leave Link  801 at Mon Apr 25 20:10:48 2011, MaxMem=  2684354560 cpu:               0.2 elap:               0.1
 (Enter /opt/software/Gaussian16/bin/avx/g16/l1002.exe)
 Minotr:  Closed shell wavefunction.
          Direct CPHF calculation.
          Differentiating once with respect to electric field.
                with respect to dipole field.
          Electric field/nuclear overlap derivatives assumed to be zero.
          Requested convergence is 1.0D-08 RMS, and 1.0D-07 maximum.
          Secondary convergence is 1.0D-12 RMS, and 1.0D-12 maximum.
          NewPWx=F KeepS1=T KeepF1=T KeepIn=T MapXYZ=F SortEE=F KeepMc=T.
         5610 words used for storage of precomputed grid.
 Two-electron integral symmetry not used.
          MDV=    2684354560 using IRadAn=       1.
          Solving linear equations simultaneously, MaxMat=     384.
          There are     3 degrees of freedom in the 1st order CPHF.  IDoFFX=0 NUNeed=     3.
      3 vectors produced by pass  0 Test12= 6.04D-13 3.33D-08 XBig12= 2.81D+01 1.95D+00.
 AX will form     3 AO Fock derivatives at one time.
 FoFJK:  IHMeth= 1 ICntrl=       0 DoSepK=T KAlg= 0 I1Cent=           0 FoldK=F
 IRaf=         1 NMat=       3 IRICut=       1 DoRegI=T DoRafI=F ISym2E= 0 IDoP0=0 IntGTp=1.
 FoFCou: FMM=F IPFlag=           0 FMFlag=      100000 FMFlg1=           0
         NFxFlg=           0 DoJE=T BraDBF=F KetDBF=F FulRan=T
         wScrn=  0.000000 ICntrl=       500 IOpCl=  0 I1Cent=           0 NGrid=           0
         NMat0=    3 NMatS0=      3 NMatT0=    0 NMatD0=    3 NMtDS0=    0 NMtDT0=    0
 Symmetry not used in FoFCou.
      3 vectors produced by pass  1 Test12= 6.04D-13 3.33D-08 XBig12= 8.74D+00 9.76D-01.
      3 vectors produced by pass  2 Test12= 6.04D-13 3.33D-08 XBig12= 2.00D+00 4.01D-01.
      3 vectors produced by pass  3 Test12= 6.04D-13 3.33D-08 XBig12= 1.40D-01 6.39D-02.
      3 vectors produced by pass  4 Test12= 6.04D-13 3.33D-08 XBig12= 3.46D-02 4.14D-02.
      3 vectors produced by pass  5 Test12= 6.04D-13 3.33D-08 XBig12= 4.41D-03 1.75D-02.
      3 vectors produced by pass  6 Test12= 6.04D-13 3.33D-08 XBig12= 9.51D-04 8.67D-03.
      3 vectors produced by pass  7 Test12= 6.04D-13 3.33D-08 XBig12= 7.14D-05 2.71D-03.
      3 vectors produced by pass  8 Test12= 6.04D-13 3.33D-08 XBig12= 3.27D-06 6.58D-04.
      3 vectors produced by pass  9 Test12= 6.04D-13 3.33D-08 XBig12= 3.60D-07 8.79D-05.
      3 vectors produced by pass 10 Test12= 6.04D-13 3.33D-08 XBig12= 2.78D-08 3.55D-05.
      2 vectors produced by pass 11 Test12= 6.04D-13 3.33D-08 XBig12= 9.92D-10 3.57D-06.
      2 vectors produced by pass 12 Test12= 6.04D-13 3.33D-08 XBig12= 5.43D-11 9.53D-07.
      2 vectors produced by pass 13 Test12= 6.04D-13 3.33D-08 XBig12= 1.95D-12 1.66D-07.
 InvSVY:  IOpt=1 It=  1 EMax= 1.78D-15
 Solved reduced A of dimension    39 with     3 vectors.
 FullF1:  Do perturbations      1 to       3.
 SCF Polarizability for W=    0.000000:
                1             2             3 
      1  0.961856D+02
      2  0.458741D-05  0.715466D+02
      3 -0.141590D-04  0.113935D-03  0.600390D+02
 Isotropic polarizability for W=    0.000000       75.92 Bohr**3.
 SCF Static Hyperpolarizability:
 K=  1 block:
                1 
      1  0.586484D-03
 K=  2 block:
                1             2 
      1  0.669095D+02
      2 -0.309308D-03 -0.292908D+02
 K=  3 block:
                1             2             3 
      1  0.396036D-03
      2 -0.697569D-04 -0.186236D-02
      3 -0.249963D-03 -0.957243D+00  0.800098D-03
 End of Minotr F.D. properties file   721 does not exist.
 End of Minotr F.D. properties file   722 does not exist.
 End of Minotr F.D. properties file   788 does not exist.
 Leave Link 1002 at Mon Apr 25 20:37:07 2011, MaxMem=  2684354560 cpu:           12630.8 elap:            1579.0
 (Enter /opt/software/Gaussian16/bin/avx/g16/l601.exe)
 Copying SCF densities to generalized density rwf, IOpCl= 0 IROHF=0.

 **********************************************************************

            Population analysis using the SCF Density.

 **********************************************************************

 Alpha  occ. eigenvalues --  -19.30274 -19.30273 -19.23929 -10.46008 -10.34704
 Alpha  occ. eigenvalues --  -10.34704 -10.28502 -10.28502  -1.24223  -1.15623
 Alpha  occ. eigenvalues --   -1.11767  -0.89213  -0.86276  -0.76136  -0.71575
 Alpha  occ. eigenvalues --   -0.67034  -0.63953  -0.60562  -0.57716  -0.57204
 Alpha  occ. eigenvalues --   -0.52224  -0.51621  -0.50698  -0.48557  -0.47194
 Alpha  occ. eigenvalues --   -0.46654  -0.45029  -0.44278  -0.44270  -0.39592
 Alpha  occ. eigenvalues --   -0.38761  -0.37763
 Alpha virt. eigenvalues --    0.03144   0.03351   0.04215   0.04334   0.05152
 Alpha virt. eigenvalues --    0.05215   0.05424   0.06590   0.06810   0.07959
 Alpha virt. eigenvalues --    0.09706   0.10011   0.10705   0.11009   0.11566
 Alpha virt. eigenvalues --    0.11857   0.11978   0.12224   0.12507   0.12905
 Alpha virt. eigenvalues --    0.13295   0.13924   0.14295   0.15556   0.15734
 Alpha virt. eigenvalues --    0.16170   0.17050   0.17478   0.18658   0.19833
 Alpha virt. eigenvalues --    0.19841   0.20108   0.20417   0.20666   0.20860
 Alpha virt. eigenvalues --    0.22341   0.22421   0.22768   0.23400   0.24663
 Alpha virt. eigenvalues --    0.25921   0.26061   0.26273   0.26730   0.28184
 Alpha virt. eigenvalues --    0.28364   0.28459   0.29457   0.30360   0.30566
 Alpha virt. eigenvalues --    0.30813   0.32167   0.32318   0.32544   0.33555
 Alpha virt. eigenvalues --    0.33596   0.33690   0.33922   0.34086   0.35264
 Alpha virt. eigenvalues --    0.35644   0.35914   0.35946   0.37225   0.37391
 Alpha virt. eigenvalues --    0.38559   0.38575   0.38706   0.38727   0.38877
 Alpha virt. eigenvalues --    0.38933   0.39681   0.40225   0.41303   0.41839
 Alpha virt. eigenvalues --    0.42185   0.42356   0.42516   0.42609   0.44208
 Alpha virt. eigenvalues --    0.44536   0.44951   0.45031   0.45369   0.45372
 Alpha virt. eigenvalues --    0.45669   0.45994   0.47372   0.47472   0.49174
 Alpha virt. eigenvalues --    0.50229   0.50474   0.50888   0.51248   0.51458
 Alpha virt. eigenvalues --    0.51491   0.53030   0.53682   0.54512   0.54644
 Alpha virt. eigenvalues --    0.55701   0.55706   0.56845   0.57658   0.57977
 Alpha virt. eigenvalues --    0.58879   0.59935   0.60753   0.60993   0.62134
 Alpha virt. eigenvalues --    0.63851   0.63940   0.66211   0.66873   0.67580
 Alpha virt. eigenvalues --    0.68456   0.68971   0.69418   0.70453   0.70574
 Alpha virt. eigenvalues --    0.71204   0.72077   0.73520   0.75242   0.75301
 Alpha virt. eigenvalues --    0.75321   0.76049   0.77523   0.78466   0.78613
 Alpha virt. eigenvalues --    0.79485   0.79951   0.80106   0.80471   0.81632
 Alpha virt. eigenvalues --    0.81813   0.82687   0.82842   0.84286   0.84609
 Alpha virt. eigenvalues --    0.84752   0.84897   0.86547   0.86606   0.87403
 Alpha virt. eigenvalues --    0.87595   0.87619   0.88738   0.89771   0.90051
 Alpha virt. eigenvalues --    0.90233   0.90698   0.90776   0.92775   0.92924
 Alpha virt. eigenvalues --    0.93654   0.94317   0.95317   0.96099   0.96563
 Alpha virt. eigenvalues --    0.97076   0.97494   0.98408   1.00892   1.01299
 Alpha virt. eigenvalues --    1.01663   1.02342   1.03553   1.04230   1.04337
 Alpha virt. eigenvalues --    1.05187   1.05405   1.05913   1.06068   1.08256
 Alpha virt. eigenvalues --    1.08344   1.08958   1.09719   1.10464   1.11087
 Alpha virt. eigenvalues --    1.11224   1.11281   1.11970   1.13448   1.13676
 Alpha virt. eigenvalues --    1.14342   1.16978   1.17068   1.18058   1.18232
 Alpha virt. eigenvalues --    1.18629   1.18634   1.20384   1.21867   1.22062
 Alpha virt. eigenvalues --    1.22297   1.23488   1.23779   1.24322   1.25012
 Alpha virt. eigenvalues --    1.26525   1.27447   1.28656   1.30166   1.30523
 Alpha virt. eigenvalues --    1.30988   1.31419   1.32681   1.33259   1.36144
 Alpha virt. eigenvalues --    1.36334   1.37199   1.37609   1.37880   1.38764
 Alpha virt. eigenvalues --    1.40812   1.42226   1.43770   1.44358   1.45319
 Alpha virt. eigenvalues --    1.46955   1.47571   1.49238   1.50811   1.50857
 Alpha virt. eigenvalues --    1.51381   1.51463   1.52062   1.52565   1.52908
 Alpha virt. eigenvalues --    1.54256   1.54772   1.54863   1.55467   1.55643
 Alpha virt. eigenvalues --    1.56479   1.57335   1.57974   1.58344   1.59166
 Alpha virt. eigenvalues --    1.59706   1.60862   1.61449   1.61473   1.62247
 Alpha virt. eigenvalues --    1.62381   1.64639   1.65171   1.65615   1.65926
 Alpha virt. eigenvalues --    1.66427   1.67404   1.67452   1.68991   1.70506
 Alpha virt. eigenvalues --    1.71880   1.71945   1.72510   1.72718   1.73009
 Alpha virt. eigenvalues --    1.75954   1.76608   1.77046   1.78857   1.80335
 Alpha virt. eigenvalues --    1.80756   1.81830   1.84327   1.84413   1.85558
 Alpha virt. eigenvalues --    1.87688   1.89218   1.90010   1.90850   1.91623
 Alpha virt. eigenvalues --    1.93298   1.93560   1.96635   1.97163   1.99372
 Alpha virt. eigenvalues --    1.99750   2.02464   2.05417   2.06168   2.07206
 Alpha virt. eigenvalues --    2.07730   2.09703   2.10909   2.10935   2.10947
 Alpha virt. eigenvalues --    2.14050   2.15257   2.16900   2.18675   2.19358
 Alpha virt. eigenvalues --    2.19642   2.20520   2.22210   2.23916   2.25013
 Alpha virt. eigenvalues --    2.25988   2.27429   2.28403   2.28725   2.31161
 Alpha virt. eigenvalues --    2.32037   2.32482   2.34184   2.37551   2.40960
 Alpha virt. eigenvalues --    2.42888   2.45776   2.47567   2.47567   2.49187
 Alpha virt. eigenvalues --    2.49595   2.50753   2.51695   2.52661   2.54274
 Alpha virt. eigenvalues --    2.54741   2.54785   2.61079   2.61835   2.62977
 Alpha virt. eigenvalues --    2.65143   2.70468   2.72342   2.74999   2.75037
 Alpha virt. eigenvalues --    2.75444   2.76027   2.80494   2.82269   2.84389
 Alpha virt. eigenvalues --    2.85236   2.90322   2.91165   2.94263   2.95416
 Alpha virt. eigenvalues --    2.97176   3.00971   3.02485   3.05599   3.05977
 Alpha virt. eigenvalues --    3.07650   3.13280   3.16358   3.17304   3.19309
 Alpha virt. eigenvalues --    3.20838   3.21527   3.22510   3.23802   3.24749
 Alpha virt. eigenvalues --    3.26424   3.29069   3.31464   3.32653   3.36713
 Alpha virt. eigenvalues --    3.37141   3.37202   3.38010   3.40271   3.41384
 Alpha virt. eigenvalues --    3.43826   3.43843   3.45473   3.45572   3.46948
 Alpha virt. eigenvalues --    3.47591   3.49792   3.50018   3.51188   3.53936
 Alpha virt. eigenvalues --    3.55249   3.55267   3.58162   3.58403   3.59876
 Alpha virt. eigenvalues --    3.60382   3.60495   3.61777   3.63070   3.63382
 Alpha virt. eigenvalues --    3.65021   3.65579   3.66433   3.68725   3.70408
 Alpha virt. eigenvalues --    3.71875   3.72207   3.74409   3.74752   3.75854
 Alpha virt. eigenvalues --    3.77796   3.77996   3.79867   3.80218   3.82045
 Alpha virt. eigenvalues --    3.83866   3.87744   3.91363   3.92162   3.92946
 Alpha virt. eigenvalues --    3.93188   3.95215   3.95770   3.96375   3.97650
 Alpha virt. eigenvalues --    3.97732   3.98857   4.00523   4.02799   4.04436
 Alpha virt. eigenvalues --    4.04733   4.05651   4.07958   4.08780   4.13231
 Alpha virt. eigenvalues --    4.13606   4.14075   4.17985   4.18320   4.19690
 Alpha virt. eigenvalues --    4.20625   4.23345   4.23747   4.26213   4.28560
 Alpha virt. eigenvalues --    4.29154   4.33267   4.34009   4.37941   4.39964
 Alpha virt. eigenvalues --    4.40493   4.43446   4.43548   4.46916   4.47698
 Alpha virt. eigenvalues --    4.47975   4.52466   4.55326   4.56318   4.57642
 Alpha virt. eigenvalues --    4.57729   4.59174   4.60439   4.60811   4.60948
 Alpha virt. eigenvalues --    4.63915   4.65959   4.68573   4.69896   4.75772
 Alpha virt. eigenvalues --    4.75961   4.76070   4.76921   4.78391   4.82386
 Alpha virt. eigenvalues --    4.83716   4.84260   4.85454   4.87723   4.87863
 Alpha virt. eigenvalues --    4.90043   4.92600   4.92833   4.92935   4.94187
 Alpha virt. eigenvalues --    4.94594   4.97236   5.00895   5.05423   5.07129
 Alpha virt. eigenvalues --    5.07810   5.13193   5.13225   5.13502   5.15223
 Alpha virt. eigenvalues --    5.15992   5.18593   5.18760   5.21300   5.23730
 Alpha virt. eigenvalues --    5.24557   5.28791   5.31616   5.32117   5.36905
 Alpha virt. eigenvalues --    5.38226   5.47574   5.48129   5.48387   5.50620
 Alpha virt. eigenvalues --    5.51710   5.53583   5.54106   5.64544   5.69081
 Alpha virt. eigenvalues --    5.72185   5.72718   5.73835   5.74323   5.82028
 Alpha virt. eigenvalues --    5.86148   5.87226   5.90344   5.93412   5.94176
 Alpha virt. eigenvalues --    5.96230   5.96787   6.08331   6.11873   6.18693
 Alpha virt. eigenvalues --    6.23734   6.40300   6.41740   6.44146   6.49062
 Alpha virt. eigenvalues --    6.49167   6.51281   6.52829   6.53098   6.53265
 Alpha virt. eigenvalues --    6.54731   6.57640   6.59220   6.64066   6.66452
 Alpha virt. eigenvalues --    6.68026   6.74372   6.82713   6.85834   6.87111
 Alpha virt. eigenvalues --    6.89093   6.92032   6.97173   6.97288   6.99553
 Alpha virt. eigenvalues --    7.07732   7.09357   7.16929   7.20397   7.20516
 Alpha virt. eigenvalues --    7.24462   7.29773   7.30552   7.43065   7.50040
 Alpha virt. eigenvalues --    7.50346   7.54027   7.68503   7.82375   7.82573
 Alpha virt. eigenvalues --    8.04612   8.15252   8.22342  14.09891  14.33987
 Alpha virt. eigenvalues --   15.61106  16.98507  17.14494  17.59332  17.91367
 Alpha virt. eigenvalues --   19.12051
          Condensed to atoms (all electrons):
               1          2          3          4          5          6
     1  O    8.564407  -0.361016  -0.135344   0.079538  -0.028285   0.004674
     2  O   -0.361016   8.564408  -0.135343  -0.028284   0.079539  -0.034750
     3  O   -0.135344  -0.135343   8.650436   0.035153   0.035153  -0.036743
     4  C    0.079538  -0.028284   0.035153   5.626014  -0.020657  -0.150902
     5  C   -0.028285   0.079539   0.035153  -0.020657   5.626014   0.000911
     6  C    0.004674  -0.034750  -0.036743  -0.150902   0.000911   5.967830
     7  C   -0.034750   0.004674  -0.036743   0.000912  -0.150903  -0.005549
     8  C    0.239958   0.239956   0.260333  -0.127387  -0.127387   0.001174
     9  H   -0.032843   0.007931   0.019229   0.401645  -0.002828  -0.029241
    10  H   -0.032839   0.007933   0.019221   0.401640  -0.002828  -0.029245
    11  H    0.007933  -0.032839   0.019222  -0.002828   0.401640   0.001726
    12  H    0.007931  -0.032844   0.019228  -0.002828   0.401645   0.001726
    13  H    0.007711  -0.001088  -0.003315  -0.070800   0.000099   0.448991
    14  H   -0.007824  -0.003433   0.001413   0.043364   0.000117   0.369397
    15  H   -0.007821  -0.003432   0.001413   0.043363   0.000117   0.369396
    16  H   -0.001087   0.007711  -0.003315   0.000099  -0.070800  -0.000369
    17  H   -0.003432  -0.007821   0.001413   0.000117   0.043362  -0.000131
    18  H   -0.003433  -0.007824   0.001413   0.000117   0.043365  -0.000131
               7          8          9         10         11         12
     1  O   -0.034750   0.239958  -0.032843  -0.032839   0.007933   0.007931
     2  O    0.004674   0.239956   0.007931   0.007933  -0.032839  -0.032844
     3  O   -0.036743   0.260333   0.019229   0.019221   0.019222   0.019228
     4  C    0.000912  -0.127387   0.401645   0.401640  -0.002828  -0.002828
     5  C   -0.150903  -0.127387  -0.002828  -0.002828   0.401640   0.401645
     6  C   -0.005549   0.001174  -0.029241  -0.029245   0.001726   0.001726
     7  C    5.967833   0.001174   0.001726   0.001726  -0.029245  -0.029241
     8  C    0.001174   4.728070  -0.007391  -0.007390  -0.007390  -0.007391
     9  H    0.001726  -0.007391   0.366857  -0.003505  -0.001024  -0.000458
    10  H    0.001726  -0.007390  -0.003505   0.366859  -0.000458  -0.001024
    11  H   -0.029245  -0.007390  -0.001024  -0.000458   0.366859  -0.003505
    12  H   -0.029241  -0.007391  -0.000458  -0.001024  -0.003505   0.366857
    13  H   -0.000369   0.003794  -0.002666  -0.002664   0.000123   0.000123
    14  H   -0.000131  -0.004950   0.007955  -0.011886  -0.000013   0.000062
    15  H   -0.000131  -0.004949  -0.011884   0.007954   0.000062  -0.000013
    16  H    0.448991   0.003794   0.000123   0.000123  -0.002664  -0.002666
    17  H    0.369395  -0.004949  -0.000013   0.000062   0.007954  -0.011884
    18  H    0.369397  -0.004950   0.000062  -0.000013  -0.011886   0.007955
              13         14         15         16         17         18
     1  O    0.007711  -0.007824  -0.007821  -0.001087  -0.003432  -0.003433
     2  O   -0.001088  -0.003433  -0.003432   0.007711  -0.007821  -0.007824
     3  O   -0.003315   0.001413   0.001413  -0.003315   0.001413   0.001413
     4  C   -0.070800   0.043364   0.043363   0.000099   0.000117   0.000117
     5  C    0.000099   0.000117   0.000117  -0.070800   0.043362   0.043365
     6  C    0.448991   0.369397   0.369396  -0.000369  -0.000131  -0.000131
     7  C   -0.000369  -0.000131  -0.000131   0.448991   0.369395   0.369397
     8  C    0.003794  -0.004950  -0.004949   0.003794  -0.004949  -0.004950
     9  H   -0.002666   0.007955  -0.011884   0.000123  -0.000013   0.000062
    10  H   -0.002664  -0.011886   0.007954   0.000123   0.000062  -0.000013
    11  H    0.000123  -0.000013   0.000062  -0.002664   0.007954  -0.011886
    12  H    0.000123   0.000062  -0.000013  -0.002666  -0.011884   0.007955
    13  H    0.352443  -0.002144  -0.002142  -0.000027  -0.000010  -0.000010
    14  H   -0.002144   0.368101   0.005266  -0.000010   0.000008   0.000017
    15  H   -0.002142   0.005266   0.368097  -0.000010   0.000017   0.000008
    16  H   -0.000027  -0.000010  -0.000010   0.352443  -0.002142  -0.002144
    17  H   -0.000010   0.000008   0.000017  -0.002142   0.368097   0.005266
    18  H   -0.000010   0.000017   0.000008  -0.002144   0.005266   0.368101
 Mulliken charges:
               1
     1  O   -0.263478
     2  O   -0.263478
     3  O   -0.712825
     4  C   -0.228275
     5  C   -0.228274
     6  C   -0.878766
     7  C   -0.878766
     8  C    0.825880
     9  H    0.286325
    10  H    0.286334
    11  H    0.286333
    12  H    0.286326
    13  H    0.271950
    14  H    0.234691
    15  H    0.234690
    16  H    0.271950
    17  H    0.234691
    18  H    0.234690
 Sum of Mulliken charges =  -0.00000
 Mulliken charges with hydrogens summed into heavy atoms:
               1
     1  O   -0.263478
     2  O   -0.263478
     3  O   -0.712825
     4  C    0.344384
     5  C    0.344385
     6  C   -0.137434
     7  C   -0.137435
     8  C    0.825880
 Electronic spatial extent (au):  <R**2>=           1466.0728
 Charge=             -0.0000 electrons
 Dipole moment (field-independent basis, Debye):
    X=              0.0000    Y=             -0.6479    Z=              0.0000  Tot=              0.6479
 Quadrupole moment (field-independent basis, Debye-Ang):
   XX=            -36.2359   YY=            -54.4982   ZZ=            -46.9749
   XY=             -0.0000   XZ=             -0.0000   YZ=             -0.0002
 Traceless Quadrupole moment (field-independent basis, Debye-Ang):
   XX=              9.6671   YY=             -8.5952   ZZ=             -1.0719
   XY=             -0.0000   XZ=             -0.0000   YZ=             -0.0002
 Octapole moment (field-independent basis, Debye-Ang**2):
  XXX=              0.0003  YYY=             -7.2876  ZZZ=             -0.0002  XYY=              0.0000
  XXY=              4.4768  XXZ=              0.0001  XZZ=              0.0000  YZZ=              0.7759
  YYZ=             -0.0001  XYZ=              0.0000
 Hexadecapole moment (field-independent basis, Debye-Ang**3):
 XXXX=          -1534.6487 YYYY=           -257.7991 ZZZZ=            -71.3400 XXXY=             -0.0001
 XXXZ=             -0.0002 YYYX=              0.0000 YYYZ=              0.0001 ZZZX=             -0.0000
 ZZZY=              0.0000 XXYY=           -310.6360 XXZZ=           -282.5016 YYZZ=            -48.3727
 XXYZ=              0.0002 YYXZ=             -0.0000 ZZXY=              0.0000
 N-N= 3.919081108237D+02 E-N=-1.771711945378D+03  KE= 4.195747103354D+02
  Exact polarizability:      96.186       0.000      71.547      -0.000       0.000      60.039
 Approx polarizability:      81.397       0.000      81.634      -0.000       0.000      67.952
 No NMR shielding tensors so no spin-rotation constants.
 Leave Link  601 at Mon Apr 25 20:37:08 2011, MaxMem=  2684354560 cpu:               3.7 elap:               0.6
 (Enter /opt/software/Gaussian16/bin/avx/g16/l9999.exe)

 ----------------------------------------------------------------------

 Electric dipole moment (input orientation):
 (Debye = 10**-18 statcoulomb cm , SI units = C m)
                  (au)            (Debye)         (10**-30 SI)
   Tot        0.254885D+00      0.647852D+00      0.216100D+01
   x          0.126898D-04      0.322543D-04      0.107589D-03
   y         -0.254885D+00     -0.647852D+00     -0.216100D+01
   z          0.000000D+00      0.000000D+00      0.000000D+00

 Dipole polarizability, Alpha (input orientation).
 (esu units = cm**3 , SI units = C**2 m**2 J**-1)
 Alpha(0;0):
               (au)            (10**-24 esu)      (10**-40 SI)
   iso        0.759237D+02      0.112507D+02      0.125181D+02
   aniso      0.319850D+02      0.473968D+01      0.527361D+01
   xx         0.961856D+02      0.142532D+02      0.158589D+02
   yx         0.000000D+00      0.000000D+00      0.000000D+00
   yy         0.715466D+02      0.106021D+02      0.117964D+02
   zx        -0.141590D-04     -0.209815D-05     -0.233451D-05
   zy         0.113935D-03      0.168834D-04      0.187853D-04
   zz         0.600390D+02      0.889687D+01      0.989910D+01

 First dipole hyperpolarizability, Beta (input orientation).
 ||, _|_  parallel and perpendicular components, (z) with respect to z axis,
 vector components x,y,z.  Values do not include the 1/n! factor of 1/2.
 (esu units = statvolt**-1 cm**4 , SI units = C**3 m**3 J**-2)
 Beta(0;0,0):
               (au)            (10**-30 esu)      (10**-50 SI)
   || (z)    -0.399736D-03     -0.345341D-05     -0.128170D-05
   _|_(z)    -0.133245D-03     -0.115114D-05     -0.427233D-06
   x          0.816394D-04      0.705301D-06      0.261766D-06
   y          0.109984D+03      0.950179D+00      0.352649D+00
   z         -0.199868D-02     -0.172670D-04     -0.640849D-05
   ||         0.219969D+02      0.190036D+00      0.705299D-01
   xxx        0.586484D-03      0.506677D-05      0.188048D-05
   xxy        0.669095D+02      0.578046D+00      0.214536D+00
   yxy       -0.309308D-03     -0.267218D-05     -0.991752D-06
   yyy       -0.292908D+02     -0.253050D+00     -0.939169D-01
   xxz        0.396036D-03      0.342144D-05      0.126983D-05
   yxz       -0.697569D-04     -0.602645D-06     -0.223666D-06
   yyz       -0.186236D-02     -0.160893D-04     -0.597140D-05
   zxz       -0.249963D-03     -0.215949D-05     -0.801473D-06
   zyz       -0.957243D+00     -0.826984D-02     -0.306927D-02
   zzz        0.800098D-03      0.691222D-05      0.256540D-05

 ----------------------------------------------------------------------

 Dipole orientation:
     8          2.04995686          0.00001879          0.81788104
     8         -2.05004017         -0.00018155          0.81767692
     8          0.00014877          0.00008157         -2.98826171
     6          4.42283871          0.00022788         -0.54851847
     6         -4.42278029         -0.00020494         -0.54895698
     6          6.48741936          0.00036350          1.42406722
     6         -6.48756302         -0.00028814          1.42341935
     6          0.00003602         -0.00005464         -0.68538288
     1          4.49770204         -1.67094771         -1.76088063
     1          4.49743548          1.67144679         -1.76083569
     1         -4.49743031          1.67101220         -1.76127406
     1         -4.49735650         -1.67138042         -1.76133791
     1          8.33700068          0.00051575          0.50212602
     1          6.34602695          1.67636049          2.61902742
     1          6.34628455         -1.67568294          2.61898801
     1         -8.33704876         -0.00032005          0.50128832
     1         -6.34637841         -1.67632430          2.61835042
     1         -6.34646593          1.67571725          2.61840117

 Electric dipole moment (dipole orientation):
 (Debye = 10**-18 statcoulomb cm , SI units = C m)
                  (au)            (Debye)         (10**-30 SI)
   Tot        0.254885D+00      0.647852D+00      0.216100D+01
   x          0.000000D+00      0.000000D+00      0.000000D+00
   y          0.000000D+00      0.000000D+00      0.000000D+00
   z          0.254885D+00      0.647852D+00      0.216100D+01

 Dipole polarizability, Alpha (dipole orientation).
 (esu units = cm**3 , SI units = C**2 m**2 J**-1)
 Alpha(0;0):
               (au)            (10**-24 esu)      (10**-40 SI)
   iso        0.759237D+02      0.112507D+02      0.125181D+02
   aniso      0.319850D+02      0.473968D+01      0.527361D+01
   xx         0.961856D+02      0.142532D+02      0.158589D+02
   yx         0.178544D-02      0.264575D-03      0.294379D-03
   yy         0.600390D+02      0.889687D+01      0.989910D+01
   zx         0.122211D-02      0.181099D-03      0.201499D-03
   zy        -0.275138D-03     -0.407712D-04     -0.453641D-04
   zz         0.715466D+02      0.106021D+02      0.117964D+02

 First dipole hyperpolarizability, Beta (dipole orientation).
 ||, _|_  parallel and perpendicular components, (z) with respect to z axis,
 vector components x,y,z.  Values do not include the 1/n! factor of 1/2.
 (esu units = statvolt**-1 cm**4 , SI units = C**3 m**3 J**-2)
 Beta(0;0,0):
               (au)            (10**-30 esu)      (10**-50 SI)
   || (z)    -0.219969D+02     -0.190036D+00     -0.705299D-01
   _|_(z)    -0.733229D+01     -0.633452D-01     -0.235100D-01
   x          0.555740D-02      0.480116D-04      0.178190D-04
   y         -0.457122D-03     -0.394918D-05     -0.146570D-05
   z         -0.109984D+03     -0.950179D+00     -0.352649D+00
   ||         0.219969D+02      0.190036D+00      0.705299D-01
   xxx        0.105799D-01      0.914017D-04      0.339228D-04
   xxy        0.133423D-02      0.115267D-04      0.427803D-05
   yxy       -0.297528D-03     -0.257041D-05     -0.953983D-06
   yyy        0.759810D-03      0.656417D-05      0.243623D-05
   xxz       -0.669095D+02     -0.578046D+00     -0.214536D+00
   yxz       -0.330886D-02     -0.285860D-04     -0.106094D-04
   yyz        0.957243D+00      0.826984D-02      0.306927D-02
   zxz       -0.842986D-02     -0.728274D-04     -0.270292D-04
   zyz       -0.224642D-02     -0.194073D-04     -0.720282D-05
   zzz        0.292908D+02      0.253050D+00      0.939169D-01

 ----------------------------------------------------------------------
 Unable to Open any file for archive entry.
 1\1\GINC-NODE142\SP\RwB97XD\Aug-CC-pVTZ\C5H10O3\LIUCHW\25-Apr-2011\0\\
 #p wB97XD/aug-cc-pvtz NoSymm MaxDisk=100GB Polar\\Polar\\0,1\O,0,1.084
 812,-0.43275,-0.000038\O,0,-1.084813,-0.43275,-0.000036\O,0,0.,1.58132
 ,0.000021\C,0,2.340451,0.29038,0.\C,0,-2.340449,0.290379,0.000004\C,0,
 3.433032,-0.753413,0.000032\C,0,-3.433033,-0.753412,0.000029\C,0,0.000
 001,0.362689,-0.000034\H,0,2.379991,0.931924,-0.884359\H,0,2.379938,0.
 931925,0.88436\H,0,-2.37994,0.93192,0.884367\H,0,-2.379989,0.931929,-0
 .884351\H,0,4.411764,-0.265494,0.000057\H,0,3.358286,-1.38575,0.886944
 \H,0,3.358334,-1.385754,-0.886881\H,0,-4.411763,-0.26549,0.000054\H,0,
 -3.358334,-1.385751,-0.886886\H,0,-3.358292,-1.385753,0.886938\\Versio
 n=ES64L-G16RevC.01\HF=-422.2751112\RMSD=6.094e-09\Dipole=0.0000127,-0.
 2548848,0.0000036\Polar=96.1855695,0.0000046,71.5466019,-0.0000142,0.0
 001139,60.03903\HyperPolar=0.0005865,66.9094749,-0.0003093,-29.2908047
 ,0.000396,-0.0000698,-0.0018624,-0.00025,-0.9572435,0.0008001\Quadrupo
 le=7.1872261,-6.3903245,-0.7969016,-0.0000019,-0.0000098,-0.0001377\PG
 =C01 [X(C5H10O3)]\\@
 The archive entry for this job was punched.


 The theorems and results in mathematical physics are
 not theorems and results about Nature, but about our
 description of it.
                   --Gerard 't Hooft
 Job cpu time:       0 days  5 hours  2 minutes 50.8 seconds.
 Elapsed time:       0 days  0 hours 37 minutes 52.1 seconds.
 File lengths (MBytes):  RWF=    188 Int=      0 D2E=      0 Chk=     24 Scr=      1
 Normal termination of Gaussian 16 at Mon Apr 25 20:37:08 2011.
