 Entering Gaussian System, Link 0=g16
 Input=114_Ethyl-HCO3.com
 Output=114_Ethyl-HCO3.out
 Initial command:
 /opt/software/Gaussian16/bin/avx/g16/l1.exe "/scratch/liuchw/Gau-84067.inp" -scrdir="/scratch/liuchw/"
 Entering Link 1 = /opt/software/Gaussian16/bin/avx/g16/l1.exe PID=     84073.
  
 Copyright (c) 1988-2019, Gaussian, Inc.  All Rights Reserved.
  
 This is part of the Gaussian(R) 16 program.  It is based on
 the Gaussian(R) 09 system (copyright 2009, Gaussian, Inc.),
 the Gaussian(R) 03 system (copyright 2003, Gaussian, Inc.),
 the Gaussian(R) 98 system (copyright 1998, Gaussian, Inc.),
 the Gaussian(R) 94 system (copyright 1995, Gaussian, Inc.),
 the Gaussian 92(TM) system (copyright 1992, Gaussian, Inc.),
 the Gaussian 90(TM) system (copyright 1990, Gaussian, Inc.),
 the Gaussian 88(TM) system (copyright 1988, Gaussian, Inc.),
 the Gaussian 86(TM) system (copyright 1986, Carnegie Mellon
 University), and the Gaussian 82(TM) system (copyright 1983,
 Carnegie Mellon University). Gaussian is a federally registered
 trademark of Gaussian, Inc.
  
 This software contains proprietary and confidential information,
 including trade secrets, belonging to Gaussian, Inc.
  
 This software is provided under written license and may be
 used, copied, transmitted, or stored only in accord with that
 written license.
  
 The following legend is applicable only to US Government
 contracts under FAR:
  
                    RESTRICTED RIGHTS LEGEND
  
 Use, reproduction and disclosure by the US Government is
 subject to restrictions as set forth in subparagraphs (a)
 and (c) of the Commercial Computer Software - Restricted
 Rights clause in FAR 52.227-19.
  
 Gaussian, Inc.
 340 Quinnipiac St., Bldg. 40, Wallingford CT 06492
  
  
 ---------------------------------------------------------------
 Warning -- This program may not be used in any manner that
 competes with the business of Gaussian, Inc. or will provide
 assistance to any competitor of Gaussian, Inc.  The licensee
 of this program is prohibited from giving any competitor of
 Gaussian, Inc. access to this program.  By using this program,
 the user acknowledges that Gaussian, Inc. is engaged in the
 business of creating and licensing software in the field of
 computational chemistry and represents and warrants to the
 licensee that it is not a competitor of Gaussian, Inc. and that
 it will not use this program in any manner prohibited above.
 ---------------------------------------------------------------
  

 Cite this work as:
 Gaussian 16, Revision C.01,
 M. J. Frisch, G. W. Trucks, H. B. Schlegel, G. E. Scuseria, 
 M. A. Robb, J. R. Cheeseman, G. Scalmani, V. Barone, 
 G. A. Petersson, H. Nakatsuji, X. Li, M. Caricato, A. V. Marenich, 
 J. Bloino, B. G. Janesko, R. Gomperts, B. Mennucci, H. P. Hratchian, 
 J. V. Ortiz, A. F. Izmaylov, J. L. Sonnenberg, D. Williams-Young, 
 F. Ding, F. Lipparini, F. Egidi, J. Goings, B. Peng, A. Petrone, 
 T. Henderson, D. Ranasinghe, V. G. Zakrzewski, J. Gao, N. Rega, 
 G. Zheng, W. Liang, M. Hada, M. Ehara, K. Toyota, R. Fukuda, 
 J. Hasegawa, M. Ishida, T. Nakajima, Y. Honda, O. Kitao, H. Nakai, 
 T. Vreven, K. Throssell, J. A. Montgomery, Jr., J. E. Peralta, 
 F. Ogliaro, M. J. Bearpark, J. J. Heyd, E. N. Brothers, K. N. Kudin, 
 V. N. Staroverov, T. A. Keith, R. Kobayashi, J. Normand, 
 K. Raghavachari, A. P. Rendell, J. C. Burant, S. S. Iyengar, 
 J. Tomasi, M. Cossi, J. M. Millam, M. Klene, C. Adamo, R. Cammi, 
 J. W. Ochterski, R. L. Martin, K. Morokuma, O. Farkas, 
 J. B. Foresman, and D. J. Fox, Gaussian, Inc., Wallingford CT, 2019.
 
 ******************************************
 Gaussian 16:  ES64L-G16RevC.01  3-Jul-2019
                10-Feb-2020 
 ******************************************
 %chk=114_Ethyl-HCO3.chk
 %nproc=8
 Will use up to    8 processors via shared memory.
 %Mem=20GB
 ------------------------------------------------
 #p wB97XD/aug-cc-pvtz NoSymm MaxDisk=100GB Polar
 ------------------------------------------------
 1/38=1,172=1/1;
 2/12=2,15=1,17=6,18=5,40=1/2;
 3/5=16,6=1,7=10,11=2,25=1,30=1,74=-58/1,2,3;
 4//1;
 5/5=2,38=5,98=1/2;
 8/6=4,10=90,11=11/1;
 10/6=1,13=10,31=1/2;
 6/7=2,8=2,9=2,10=2,28=1/1;
 99/5=1,9=1/99;
 Leave Link    1 at Mon Feb 10 12:15:59 2020, MaxMem=  2684354560 cpu:               0.4 elap:               0.1
 (Enter /opt/software/Gaussian16/bin/avx/g16/l101.exe)
 -----
 Polar
 -----
 Symbolic Z-matrix:
 Charge =  0 Multiplicity = 1
 O                     0.17948  -0.4898    0.00004 
 O                    -1.94645  -0.95055   0.0001 
 O                    -1.31358   1.24254  -0.00013 
 C                     1.25645   0.48201  -0.00005 
 C                     2.54359  -0.30886   0.00006 
 C                    -1.04319   0.05524  -0.00002 
 H                     1.15789   1.11597  -0.8849 
 H                     1.15785   1.11618   0.88464 
 H                     3.39702   0.37479  0. 
 H                     2.60408  -0.94244   0.88713 
 H                     2.60411  -0.94264  -0.88686 
 H                    -2.81759  -0.50971   0.00006 
 
 ITRead=  0  0  0  0  0  0  0  0  0  0  0  0
 MicOpt= -1 -1 -1 -1 -1 -1 -1 -1 -1 -1 -1 -1
 NAtoms=     12 NQM=       12 NQMF=       0 NMMI=      0 NMMIF=      0
                NMic=       0 NMicF=      0.
                    Isotopes and Nuclear Properties:
 (Nuclear quadrupole moments (NQMom) in fm**2, nuclear magnetic moments (NMagM)
  in nuclear magnetons)

  Atom         1           2           3           4           5           6           7           8           9          10
 IAtWgt=          16          16          16          12          12          12           1           1           1           1
 AtmWgt=  15.9949146  15.9949146  15.9949146  12.0000000  12.0000000  12.0000000   1.0078250   1.0078250   1.0078250   1.0078250
 NucSpn=           0           0           0           0           0           0           1           1           1           1
 AtZEff=  -0.0000000  -0.0000000  -0.0000000  -0.0000000  -0.0000000  -0.0000000  -0.0000000  -0.0000000  -0.0000000  -0.0000000
 NQMom=    0.0000000   0.0000000   0.0000000   0.0000000   0.0000000   0.0000000   0.0000000   0.0000000   0.0000000   0.0000000
 NMagM=    0.0000000   0.0000000   0.0000000   0.0000000   0.0000000   0.0000000   2.7928460   2.7928460   2.7928460   2.7928460
 AtZNuc=   8.0000000   8.0000000   8.0000000   6.0000000   6.0000000   6.0000000   1.0000000   1.0000000   1.0000000   1.0000000

  Atom        11          12
 IAtWgt=           1           1
 AtmWgt=   1.0078250   1.0078250
 NucSpn=           1           1
 AtZEff=  -0.0000000  -0.0000000
 NQMom=    0.0000000   0.0000000
 NMagM=    2.7928460   2.7928460
 AtZNuc=   1.0000000   1.0000000
 Leave Link  101 at Mon Feb 10 12:16:00 2020, MaxMem=  2684354560 cpu:               0.8 elap:               0.1
 (Enter /opt/software/Gaussian16/bin/avx/g16/l202.exe)
                          Input orientation:                          
 ---------------------------------------------------------------------
 Center     Atomic      Atomic             Coordinates (Angstroms)
 Number     Number       Type             X           Y           Z
 ---------------------------------------------------------------------
      1          8           0        0.179481   -0.489803    0.000035
      2          8           0       -1.946453   -0.950549    0.000096
      3          8           0       -1.313582    1.242543   -0.000127
      4          6           0        1.256447    0.482005   -0.000054
      5          6           0        2.543592   -0.308861    0.000060
      6          6           0       -1.043193    0.055241   -0.000024
      7          1           0        1.157885    1.115971   -0.884897
      8          1           0        1.157852    1.116175    0.884638
      9          1           0        3.397020    0.374791   -0.000003
     10          1           0        2.604077   -0.942436    0.887128
     11          1           0        2.604109   -0.942642   -0.886857
     12          1           0       -2.817592   -0.509707    0.000063
 ---------------------------------------------------------------------
                    Distance matrix (angstroms):
                    1          2          3          4          5
     1  O    0.000000
     2  O    2.175289   0.000000
     3  O    2.286976   2.282581   0.000000
     4  C    1.450609   3.508672   2.680199   0.000000
     5  C    2.371025   4.535666   4.157481   1.510699   0.000000
     6  C    1.338658   1.351848   1.217701   2.338904   3.605218
     7  H    2.078194   3.832836   2.628115   1.092966   2.175656
     8  H    2.078196   3.832815   2.628072   1.092965   2.175656
     9  H    3.331678   5.505382   4.789861   2.143256   1.093490
    10  H    2.621159   4.636185   4.572680   2.152262   1.091772
    11  H    2.621157   4.636201   4.572704   2.152262   1.091770
    12  H    2.997139   0.976332   2.309205   4.193004   5.364945
                    6          7          8          9         10
     6  C    0.000000
     7  H    2.598633   0.000000
     8  H    2.598616   1.769535   0.000000
     9  H    4.451697   2.519149   2.519149   0.000000
    10  H    3.883938   3.077106   2.515840   1.775063   0.000000
    11  H    3.883948   2.515841   3.077106   1.775063   1.773985
    12  H    1.862165   4.385248   4.385216   6.277240   5.510774
                   11         12
    11  H    0.000000
    12  H    5.510799   0.000000
 Symmetry turned off by external request.
 Stoichiometry    C3H6O3
 Framework group  C1[X(C3H6O3)]
 Deg. of freedom    30
 Full point group                 C1      NOp   1
 Rotational constants (GHZ):           9.2187821           2.1341414           1.7713957
 Leave Link  202 at Mon Feb 10 12:16:00 2020, MaxMem=  2684354560 cpu:               0.1 elap:               0.0
 (Enter /opt/software/Gaussian16/bin/avx/g16/l301.exe)
 Standard basis: Aug-CC-pVTZ (5D, 7F)
 Ernie: Thresh=  0.10000D-02 Tol=  0.10000D-05 Strict=F.
 Ernie:  18 primitive shells out of 246 were deleted.
   414 basis functions,   594 primitive gaussians,   480 cartesian basis functions
    24 alpha electrons       24 beta electrons
       nuclear repulsion energy       246.0680418790 Hartrees.
 IExCor= 4639 DFT=T Ex+Corr=wB97XD ExCW=0 ScaHFX=  1.000000
 ScaDFX=  1.000000  1.000000  1.000000  1.000000 ScalE2=  1.000000  1.000000
 IRadAn=      5 IRanWt=     -1 IRanGd=            0 ICorTp=0 IEmpDi=121
 HFx  wShort=  0.000000 wLong=  0.200000 cFull=  0.222036 cShort=  0.000000 cLong=  0.777964
 DFx  wShort=  0.000000 wLong=  0.200000 cFull=  0.000000 cShort=  0.000000 cLong=  1.000000
 NAtoms=   12 NActive=   12 NUniq=   12 SFac= 1.00D+00 NAtFMM=   60 NAOKFM=F Big=F
 Integral buffers will be    131072 words long.
 Raffenetti 2 integral format.
 Two-electron integral symmetry is turned off.
 R6Disp:  Grimme-D2 Dispersion energy=       -0.0038074098 Hartrees.
 Nuclear repulsion after empirical dispersion term =      246.0642344693 Hartrees.
 Leave Link  301 at Mon Feb 10 12:16:00 2020, MaxMem=  2684354560 cpu:               0.4 elap:               0.1
 (Enter /opt/software/Gaussian16/bin/avx/g16/l302.exe)
 NPDir=0 NMtPBC=     1 NCelOv=     1 NCel=       1 NClECP=     1 NCelD=      1
         NCelK=      1 NCelE2=     1 NClLst=     1 CellRange=     0.0.
 One-electron integrals computed using PRISM.
 NBasis=   414 RedAO= T EigKep=  1.36D-05  NBF=   414
 NBsUse=   414 1.00D-06 EigRej= -1.00D+00 NBFU=   414
 Precomputing XC quadrature grid using
 IXCGrd= 4 IRadAn=           5 IRanWt=          -1 IRanGd=           0 AccXCQ= 0.00D+00.
 Generated NRdTot=       0 NPtTot=           0 NUsed=           0 NTot=          32
 NSgBfM=   480   480   480   480   480 MxSgAt=    12 MxSgA2=    12.
 Leave Link  302 at Mon Feb 10 12:16:01 2020, MaxMem=  2684354560 cpu:               4.4 elap:               0.8
 (Enter /opt/software/Gaussian16/bin/avx/g16/l303.exe)
 DipDrv:  MaxL=1.
 Leave Link  303 at Mon Feb 10 12:16:01 2020, MaxMem=  2684354560 cpu:               0.7 elap:               0.1
 (Enter /opt/software/Gaussian16/bin/avx/g16/l401.exe)
 ExpMin= 2.53D-02 ExpMax= 1.53D+04 ExpMxC= 5.22D+02 IAcc=3 IRadAn=         5 AccDes= 0.00D+00
 Harris functional with IExCor= 4639 and IRadAn=       5 diagonalized for initial guess.
 HarFok:  IExCor= 4639 AccDes= 0.00D+00 IRadAn=         5 IDoV= 1 UseB2=F ITyADJ=14
 ICtDFT=  3500011 ScaDFX=  1.000000  1.000000  1.000000  1.000000
 FoFCou: FMM=F IPFlag=           0 FMFlag=      100000 FMFlg1=           0
         NFxFlg=           0 DoJE=T BraDBF=F KetDBF=T FulRan=T
         wScrn=  0.000000 ICntrl=       500 IOpCl=  0 I1Cent=   200000004 NGrid=           0
         NMat0=    1 NMatS0=      1 NMatT0=    0 NMatD0=    1 NMtDS0=    0 NMtDT0=    0
 Symmetry not used in FoFCou.
 Harris En= -330.301521212173    
 JPrj=0 DoOrth=F DoCkMO=F.
 Leave Link  401 at Mon Feb 10 12:16:07 2020, MaxMem=  2684354560 cpu:              38.4 elap:               5.8
 (Enter /opt/software/Gaussian16/bin/avx/g16/l502.exe)
 Two-electron integral symmetry not used.
 Closed shell SCF:
 Using DIIS extrapolation, IDIIS=  1040.
 NGot=  2684354560 LenX=  2683886706 LenY=  2683655826
 Requested convergence on RMS density matrix=1.00D-08 within 128 cycles.
 Requested convergence on MAX density matrix=1.00D-06.
 Requested convergence on             energy=1.00D-06.
 No special actions if energy rises.
 Fock matrices will be formed incrementally for  20 cycles.

 Cycle   1  Pass 1  IDiag  1:
 FoFJK:  IHMeth= 1 ICntrl=       0 DoSepK=T KAlg= 0 I1Cent=           0 FoldK=F
 IRaf=         1 NMat=       1 IRICut=       1 DoRegI=T DoRafI=F ISym2E= 0 IDoP0=0 IntGTp=1.
 FoFCou: FMM=F IPFlag=           0 FMFlag=      100000 FMFlg1=           0
         NFxFlg=           0 DoJE=T BraDBF=F KetDBF=F FulRan=T
         wScrn=  0.000000 ICntrl=       500 IOpCl=  0 I1Cent=           0 NGrid=           0
         NMat0=    1 NMatS0=      1 NMatT0=    0 NMatD0=    1 NMtDS0=    0 NMtDT0=    0
 Symmetry not used in FoFCou.
 E= -343.517632716701    
 DIIS: error= 4.81D-02 at cycle   1 NSaved=   1.
 NSaved= 1 IEnMin= 1 EnMin= -343.517632716701     IErMin= 1 ErrMin= 4.81D-02
 ErrMax= 4.81D-02  0.00D+00 EMaxC= 1.00D-01 BMatC= 6.21D-01 BMatP= 6.21D-01
 IDIUse=3 WtCom= 5.19D-01 WtEn= 4.81D-01
 Coeff-Com:  0.100D+01
 Coeff-En:   0.100D+01
 Coeff:      0.100D+01
 Gap=     0.477 Goal=   None    Shift=    0.000
 GapD=    0.477 DampG=2.000 DampE=0.500 DampFc=1.0000 IDamp=-1.
 RMSDP=1.79D-03 MaxDP=1.28D-01              OVMax= 1.23D-01

 Cycle   2  Pass 1  IDiag  1:
 RMSU=  1.78D-03    CP:  9.72D-01
 E= -343.564262318664     Delta-E=       -0.046629601963 Rises=F Damp=F
 DIIS: error= 1.39D-02 at cycle   2 NSaved=   2.
 NSaved= 2 IEnMin= 2 EnMin= -343.564262318664     IErMin= 2 ErrMin= 1.39D-02
 ErrMax= 1.39D-02  0.00D+00 EMaxC= 1.00D-01 BMatC= 1.40D-01 BMatP= 6.21D-01
 IDIUse=3 WtCom= 8.61D-01 WtEn= 1.39D-01
 Coeff-Com:  0.272D+00 0.728D+00
 Coeff-En:   0.365D+00 0.635D+00
 Coeff:      0.285D+00 0.715D+00
 Gap=     0.567 Goal=   None    Shift=    0.000
 RMSDP=7.17D-04 MaxDP=3.97D-02 DE=-4.66D-02 OVMax= 9.49D-02

 Cycle   3  Pass 1  IDiag  1:
 RMSU=  6.00D-04    CP:  9.79D-01  7.81D-01
 E= -343.617016102037     Delta-E=       -0.052753783373 Rises=F Damp=F
 DIIS: error= 8.98D-03 at cycle   3 NSaved=   3.
 NSaved= 3 IEnMin= 3 EnMin= -343.617016102037     IErMin= 3 ErrMin= 8.98D-03
 ErrMax= 8.98D-03  0.00D+00 EMaxC= 1.00D-01 BMatC= 5.76D-02 BMatP= 1.40D-01
 IDIUse=3 WtCom= 9.10D-01 WtEn= 8.98D-02
 Coeff-Com:  0.490D-01 0.394D+00 0.557D+00
 Coeff-En:   0.000D+00 0.300D+00 0.700D+00
 Coeff:      0.446D-01 0.385D+00 0.570D+00
 Gap=     0.442 Goal=   None    Shift=    0.000
 RMSDP=3.14D-04 MaxDP=1.64D-02 DE=-5.28D-02 OVMax= 6.64D-02

 Cycle   4  Pass 1  IDiag  1:
 RMSU=  1.89D-04    CP:  9.79D-01  8.33D-01  6.12D-01
 E= -343.653215611560     Delta-E=       -0.036199509523 Rises=F Damp=F
 DIIS: error= 2.43D-03 at cycle   4 NSaved=   4.
 NSaved= 4 IEnMin= 4 EnMin= -343.653215611560     IErMin= 4 ErrMin= 2.43D-03
 ErrMax= 2.43D-03  0.00D+00 EMaxC= 1.00D-01 BMatC= 2.93D-03 BMatP= 5.76D-02
 IDIUse=3 WtCom= 9.76D-01 WtEn= 2.43D-02
 Coeff-Com:  0.719D-02 0.145D+00 0.281D+00 0.567D+00
 Coeff-En:   0.000D+00 0.000D+00 0.000D+00 0.100D+01
 Coeff:      0.702D-02 0.141D+00 0.275D+00 0.577D+00
 Gap=     0.419 Goal=   None    Shift=    0.000
 RMSDP=7.79D-05 MaxDP=6.65D-03 DE=-3.62D-02 OVMax= 1.21D-02

 Cycle   5  Pass 1  IDiag  1:
 RMSU=  5.36D-05    CP:  9.79D-01  8.43D-01  6.59D-01  7.63D-01
 E= -343.655106421696     Delta-E=       -0.001890810136 Rises=F Damp=F
 DIIS: error= 4.69D-04 at cycle   5 NSaved=   5.
 NSaved= 5 IEnMin= 5 EnMin= -343.655106421696     IErMin= 5 ErrMin= 4.69D-04
 ErrMax= 4.69D-04  0.00D+00 EMaxC= 1.00D-01 BMatC= 7.73D-05 BMatP= 2.93D-03
 IDIUse=3 WtCom= 9.95D-01 WtEn= 4.69D-03
 Coeff-Com: -0.174D-03 0.182D-01 0.514D-01 0.190D+00 0.740D+00
 Coeff-En:   0.000D+00 0.000D+00 0.000D+00 0.000D+00 0.100D+01
 Coeff:     -0.174D-03 0.181D-01 0.511D-01 0.189D+00 0.742D+00
 Gap=     0.416 Goal=   None    Shift=    0.000
 RMSDP=2.11D-05 MaxDP=1.12D-03 DE=-1.89D-03 OVMax= 2.11D-03

 Cycle   6  Pass 1  IDiag  1:
 RMSU=  1.36D-05    CP:  9.79D-01  8.43D-01  6.66D-01  8.42D-01  1.05D+00
 E= -343.655152645887     Delta-E=       -0.000046224191 Rises=F Damp=F
 DIIS: error= 1.86D-04 at cycle   6 NSaved=   6.
 NSaved= 6 IEnMin= 6 EnMin= -343.655152645887     IErMin= 6 ErrMin= 1.86D-04
 ErrMax= 1.86D-04  0.00D+00 EMaxC= 1.00D-01 BMatC= 1.36D-05 BMatP= 7.73D-05
 IDIUse=3 WtCom= 9.98D-01 WtEn= 1.86D-03
 Coeff-Com: -0.869D-03-0.888D-02-0.879D-02 0.201D-01 0.347D+00 0.652D+00
 Coeff-En:   0.000D+00 0.000D+00 0.000D+00 0.000D+00 0.000D+00 0.100D+01
 Coeff:     -0.867D-03-0.887D-02-0.877D-02 0.201D-01 0.346D+00 0.652D+00
 Gap=     0.416 Goal=   None    Shift=    0.000
 RMSDP=8.10D-06 MaxDP=4.55D-04 DE=-4.62D-05 OVMax= 7.32D-04

 Cycle   7  Pass 1  IDiag  1:
 RMSU=  5.58D-06    CP:  9.79D-01  8.43D-01  6.70D-01  8.63D-01  1.12D+00
                    CP:  9.62D-01
 E= -343.655163038558     Delta-E=       -0.000010392671 Rises=F Damp=F
 DIIS: error= 2.94D-05 at cycle   7 NSaved=   7.
 NSaved= 7 IEnMin= 7 EnMin= -343.655163038558     IErMin= 7 ErrMin= 2.94D-05
 ErrMax= 2.94D-05  0.00D+00 EMaxC= 1.00D-01 BMatC= 5.39D-07 BMatP= 1.36D-05
 IDIUse=1 WtCom= 1.00D+00 WtEn= 0.00D+00
 Coeff-Com: -0.212D-03-0.444D-02-0.721D-02-0.114D-01 0.390D-01 0.185D+00
 Coeff-Com:  0.799D+00
 Coeff:     -0.212D-03-0.444D-02-0.721D-02-0.114D-01 0.390D-01 0.185D+00
 Coeff:      0.799D+00
 Gap=     0.416 Goal=   None    Shift=    0.000
 RMSDP=2.92D-06 MaxDP=1.27D-04 DE=-1.04D-05 OVMax= 2.05D-04

 Cycle   8  Pass 1  IDiag  1:
 RMSU=  1.66D-06    CP:  9.79D-01  8.43D-01  6.70D-01  8.70D-01  1.14D+00
                    CP:  1.06D+00  1.15D+00
 E= -343.655163572083     Delta-E=       -0.000000533525 Rises=F Damp=F
 DIIS: error= 1.07D-05 at cycle   8 NSaved=   8.
 NSaved= 8 IEnMin= 8 EnMin= -343.655163572083     IErMin= 8 ErrMin= 1.07D-05
 ErrMax= 1.07D-05  0.00D+00 EMaxC= 1.00D-01 BMatC= 7.34D-08 BMatP= 5.39D-07
 IDIUse=1 WtCom= 1.00D+00 WtEn= 0.00D+00
 Coeff-Com: -0.191D-05-0.679D-03-0.155D-02-0.636D-02-0.226D-01-0.126D-02
 Coeff-Com:  0.287D+00 0.745D+00
 Coeff:     -0.191D-05-0.679D-03-0.155D-02-0.636D-02-0.226D-01-0.126D-02
 Coeff:      0.287D+00 0.745D+00
 Gap=     0.416 Goal=   None    Shift=    0.000
 RMSDP=1.05D-06 MaxDP=8.70D-05 DE=-5.34D-07 OVMax= 1.19D-04

 Cycle   9  Pass 1  IDiag  1:
 RMSU=  5.98D-07    CP:  9.79D-01  8.43D-01  6.71D-01  8.72D-01  1.14D+00
                    CP:  1.09D+00  1.24D+00  9.28D-01
 E= -343.655163650993     Delta-E=       -0.000000078910 Rises=F Damp=F
 DIIS: error= 5.11D-06 at cycle   9 NSaved=   9.
 NSaved= 9 IEnMin= 9 EnMin= -343.655163650993     IErMin= 9 ErrMin= 5.11D-06
 ErrMax= 5.11D-06  0.00D+00 EMaxC= 1.00D-01 BMatC= 9.77D-09 BMatP= 7.34D-08
 IDIUse=1 WtCom= 1.00D+00 WtEn= 0.00D+00
 Coeff-Com:  0.199D-04 0.243D-03 0.291D-03-0.120D-02-0.129D-01-0.211D-01
 Coeff-Com:  0.135D-01 0.287D+00 0.735D+00
 Coeff:      0.199D-04 0.243D-03 0.291D-03-0.120D-02-0.129D-01-0.211D-01
 Coeff:      0.135D-01 0.287D+00 0.735D+00
 Gap=     0.416 Goal=   None    Shift=    0.000
 RMSDP=2.85D-07 MaxDP=2.38D-05 DE=-7.89D-08 OVMax= 3.41D-05

 Cycle  10  Pass 1  IDiag  1:
 RMSU=  1.98D-07    CP:  9.79D-01  8.43D-01  6.71D-01  8.72D-01  1.14D+00
                    CP:  1.10D+00  1.25D+00  9.69D-01  1.19D+00
 E= -343.655163660892     Delta-E=       -0.000000009899 Rises=F Damp=F
 DIIS: error= 1.56D-06 at cycle  10 NSaved=  10.
 NSaved=10 IEnMin=10 EnMin= -343.655163660892     IErMin=10 ErrMin= 1.56D-06
 ErrMax= 1.56D-06  0.00D+00 EMaxC= 1.00D-01 BMatC= 9.97D-10 BMatP= 9.77D-09
 IDIUse=1 WtCom= 1.00D+00 WtEn= 0.00D+00
 Coeff-Com:  0.808D-05 0.139D-03 0.270D-03 0.306D-03-0.132D-02-0.643D-02
 Coeff-Com: -0.328D-01 0.509D-02 0.232D+00 0.802D+00
 Coeff:      0.808D-05 0.139D-03 0.270D-03 0.306D-03-0.132D-02-0.643D-02
 Coeff:     -0.328D-01 0.509D-02 0.232D+00 0.802D+00
 Gap=     0.416 Goal=   None    Shift=    0.000
 RMSDP=1.06D-07 MaxDP=5.73D-06 DE=-9.90D-09 OVMax= 1.63D-05

 Cycle  11  Pass 1  IDiag  1:
 RMSU=  6.33D-08    CP:  9.79D-01  8.43D-01  6.71D-01  8.72D-01  1.14D+00
                    CP:  1.10D+00  1.26D+00  9.93D-01  1.28D+00  1.03D+00
 E= -343.655163662221     Delta-E=       -0.000000001329 Rises=F Damp=F
 DIIS: error= 3.12D-07 at cycle  11 NSaved=  11.
 NSaved=11 IEnMin=11 EnMin= -343.655163662221     IErMin=11 ErrMin= 3.12D-07
 ErrMax= 3.12D-07  0.00D+00 EMaxC= 1.00D-01 BMatC= 7.85D-11 BMatP= 9.97D-10
 IDIUse=1 WtCom= 1.00D+00 WtEn= 0.00D+00
 Coeff-Com: -0.824D-06 0.112D-04 0.507D-04 0.255D-03 0.142D-02 0.928D-03
 Coeff-Com: -0.941D-02-0.338D-01-0.438D-01 0.176D+00 0.908D+00
 Coeff:     -0.824D-06 0.112D-04 0.507D-04 0.255D-03 0.142D-02 0.928D-03
 Coeff:     -0.941D-02-0.338D-01-0.438D-01 0.176D+00 0.908D+00
 Gap=     0.416 Goal=   None    Shift=    0.000
 RMSDP=4.59D-08 MaxDP=2.24D-06 DE=-1.33D-09 OVMax= 6.79D-06

 Cycle  12  Pass 1  IDiag  1:
 RMSU=  1.81D-08    CP:  9.79D-01  8.43D-01  6.71D-01  8.72D-01  1.14D+00
                    CP:  1.10D+00  1.25D+00  9.91D-01  1.32D+00  1.15D+00
                    CP:  1.21D+00
 E= -343.655163662345     Delta-E=       -0.000000000124 Rises=F Damp=F
 DIIS: error= 7.04D-08 at cycle  12 NSaved=  12.
 NSaved=12 IEnMin=12 EnMin= -343.655163662345     IErMin=12 ErrMin= 7.04D-08
 ErrMax= 7.04D-08  0.00D+00 EMaxC= 1.00D-01 BMatC= 3.91D-12 BMatP= 7.85D-11
 IDIUse=1 WtCom= 1.00D+00 WtEn= 0.00D+00
 Coeff-Com: -0.280D-06-0.339D-05-0.312D-05 0.181D-04 0.300D-03 0.331D-03
 Coeff-Com:  0.278D-03-0.549D-02-0.187D-01-0.138D-01 0.115D+00 0.922D+00
 Coeff:     -0.280D-06-0.339D-05-0.312D-05 0.181D-04 0.300D-03 0.331D-03
 Coeff:      0.278D-03-0.549D-02-0.187D-01-0.138D-01 0.115D+00 0.922D+00
 Gap=     0.416 Goal=   None    Shift=    0.000
 RMSDP=1.03D-08 MaxDP=3.91D-07 DE=-1.24D-10 OVMax= 1.19D-06

 Cycle  13  Pass 1  IDiag  1:
 RMSU=  4.78D-09    CP:  9.79D-01  8.43D-01  6.71D-01  8.72D-01  1.14D+00
                    CP:  1.10D+00  1.25D+00  9.91D-01  1.33D+00  1.17D+00
                    CP:  1.30D+00  1.17D+00
 E= -343.655163662352     Delta-E=       -0.000000000008 Rises=F Damp=F
 DIIS: error= 3.45D-08 at cycle  13 NSaved=  13.
 NSaved=13 IEnMin=13 EnMin= -343.655163662352     IErMin=13 ErrMin= 3.45D-08
 ErrMax= 3.45D-08  0.00D+00 EMaxC= 1.00D-01 BMatC= 6.33D-13 BMatP= 3.91D-12
 IDIUse=1 WtCom= 1.00D+00 WtEn= 0.00D+00
 Coeff-Com:  0.126D-07-0.242D-05-0.651D-05-0.223D-04-0.386D-04 0.663D-05
 Coeff-Com:  0.111D-02 0.163D-02-0.180D-02-0.207D-01-0.544D-01 0.296D+00
 Coeff-Com:  0.778D+00
 Coeff:      0.126D-07-0.242D-05-0.651D-05-0.223D-04-0.386D-04 0.663D-05
 Coeff:      0.111D-02 0.163D-02-0.180D-02-0.207D-01-0.544D-01 0.296D+00
 Coeff:      0.778D+00
 Gap=     0.416 Goal=   None    Shift=    0.000
 RMSDP=3.11D-09 MaxDP=2.23D-07 DE=-7.73D-12 OVMax= 2.82D-07

 SCF Done:  E(RwB97XD) =  -343.655163662     A.U. after   13 cycles
            NFock= 13  Conv=0.31D-08     -V/T= 2.0063
 KE= 3.415017392264D+02 PE=-1.298225557890D+03 EE= 3.670044205324D+02
 Leave Link  502 at Mon Feb 10 12:24:10 2020, MaxMem=  2684354560 cpu:            3451.5 elap:             482.7
 (Enter /opt/software/Gaussian16/bin/avx/g16/l801.exe)
 DoSCS=F DFT=T ScalE2(SS,OS)=  1.000000  1.000000
 Range of M.O.s used for correlation:     1   414
 NBasis=   414 NAE=    24 NBE=    24 NFC=     0 NFV=     0
 NROrb=    414 NOA=    24 NOB=    24 NVA=   390 NVB=   390

 **** Warning!!: The largest alpha MO coefficient is  0.54184403D+02

 Leave Link  801 at Mon Feb 10 12:24:10 2020, MaxMem=  2684354560 cpu:               0.5 elap:               0.1
 (Enter /opt/software/Gaussian16/bin/avx/g16/l1002.exe)
 Minotr:  Closed shell wavefunction.
          Direct CPHF calculation.
          Differentiating once with respect to electric field.
                with respect to dipole field.
          Electric field/nuclear overlap derivatives assumed to be zero.
          Requested convergence is 1.0D-08 RMS, and 1.0D-07 maximum.
          Secondary convergence is 1.0D-12 RMS, and 1.0D-12 maximum.
          NewPWx=F KeepS1=T KeepF1=T KeepIn=T MapXYZ=F SortEE=F KeepMc=T.
         3731 words used for storage of precomputed grid.
 Two-electron integral symmetry not used.
          MDV=    2684354560 using IRadAn=       1.
          Solving linear equations simultaneously, MaxMat=     384.
          There are     3 degrees of freedom in the 1st order CPHF.  IDoFFX=0 NUNeed=     3.
      3 vectors produced by pass  0 Test12= 3.12D-13 3.33D-08 XBig12= 1.98D+01 1.40D+00.
 AX will form     3 AO Fock derivatives at one time.
 FoFJK:  IHMeth= 1 ICntrl=       0 DoSepK=T KAlg= 0 I1Cent=           0 FoldK=F
 IRaf=         1 NMat=       3 IRICut=       1 DoRegI=T DoRafI=F ISym2E= 0 IDoP0=0 IntGTp=1.
 FoFCou: FMM=F IPFlag=           0 FMFlag=      100000 FMFlg1=           0
         NFxFlg=           0 DoJE=T BraDBF=F KetDBF=F FulRan=T
         wScrn=  0.000000 ICntrl=       500 IOpCl=  0 I1Cent=           0 NGrid=           0
         NMat0=    3 NMatS0=      3 NMatT0=    0 NMatD0=    3 NMtDS0=    0 NMtDT0=    0
 Symmetry not used in FoFCou.
      3 vectors produced by pass  1 Test12= 3.12D-13 3.33D-08 XBig12= 5.88D+00 5.06D-01.
      3 vectors produced by pass  2 Test12= 3.12D-13 3.33D-08 XBig12= 1.15D+00 2.45D-01.
      3 vectors produced by pass  3 Test12= 3.12D-13 3.33D-08 XBig12= 8.62D-02 4.18D-02.
      3 vectors produced by pass  4 Test12= 3.12D-13 3.33D-08 XBig12= 2.37D-02 3.37D-02.
      3 vectors produced by pass  5 Test12= 3.12D-13 3.33D-08 XBig12= 2.83D-03 1.27D-02.
      3 vectors produced by pass  6 Test12= 3.12D-13 3.33D-08 XBig12= 3.80D-04 3.82D-03.
      3 vectors produced by pass  7 Test12= 3.12D-13 3.33D-08 XBig12= 2.06D-05 6.16D-04.
      3 vectors produced by pass  8 Test12= 3.12D-13 3.33D-08 XBig12= 1.10D-06 1.97D-04.
      3 vectors produced by pass  9 Test12= 3.12D-13 3.33D-08 XBig12= 3.15D-08 2.31D-05.
      3 vectors produced by pass 10 Test12= 3.12D-13 3.33D-08 XBig12= 7.76D-10 3.31D-06.
      2 vectors produced by pass 11 Test12= 3.12D-13 3.33D-08 XBig12= 3.20D-11 6.93D-07.
      2 vectors produced by pass 12 Test12= 3.12D-13 3.33D-08 XBig12= 9.36D-13 1.41D-07.
 InvSVY:  IOpt=1 It=  1 EMax= 8.88D-16
 Solved reduced A of dimension    37 with     3 vectors.
 FullF1:  Do perturbations      1 to       3.
 SCF Polarizability for W=    0.000000:
                1             2             3 
      1  0.628110D+02
      2 -0.309236D+00  0.502394D+02
      3  0.691071D-04 -0.108921D-02  0.398252D+02
 Isotropic polarizability for W=    0.000000       50.96 Bohr**3.
 SCF Static Hyperpolarizability:
 K=  1 block:
                1 
      1 -0.249851D+02
 K=  2 block:
                1             2 
      1  0.387822D+02
      2  0.323404D+02 -0.469819D+01
 K=  3 block:
                1             2             3 
      1 -0.441720D-02
      2 -0.232659D-02  0.223520D-04
      3  0.114801D+02  0.161494D+01 -0.532152D-03
 End of Minotr F.D. properties file   721 does not exist.
 End of Minotr F.D. properties file   722 does not exist.
 End of Minotr F.D. properties file   788 does not exist.
 Leave Link 1002 at Mon Feb 10 12:40:35 2020, MaxMem=  2684354560 cpu:            7105.0 elap:             985.3
 (Enter /opt/software/Gaussian16/bin/avx/g16/l601.exe)
 Copying SCF densities to generalized density rwf, IOpCl= 0 IROHF=0.

 **********************************************************************

            Population analysis using the SCF Density.

 **********************************************************************

 Alpha  occ. eigenvalues --  -19.31353 -19.31232 -19.24724 -10.47194 -10.35327
 Alpha  occ. eigenvalues --  -10.28939  -1.25239  -1.16454  -1.12552  -0.88544
 Alpha  occ. eigenvalues --   -0.76766  -0.69665  -0.64161  -0.60415  -0.59313
 Alpha  occ. eigenvalues --   -0.54508  -0.53592  -0.50434  -0.48504  -0.46714
 Alpha  occ. eigenvalues --   -0.45284  -0.42008  -0.40104  -0.38581
 Alpha virt. eigenvalues --    0.03019   0.03516   0.04514   0.04533   0.05732
 Alpha virt. eigenvalues --    0.06938   0.09179   0.09553   0.09649   0.10297
 Alpha virt. eigenvalues --    0.11337   0.12021   0.12227   0.13353   0.13430
 Alpha virt. eigenvalues --    0.13537   0.14572   0.15781   0.17249   0.17981
 Alpha virt. eigenvalues --    0.18849   0.19585   0.19616   0.20442   0.21459
 Alpha virt. eigenvalues --    0.21976   0.23078   0.24818   0.25285   0.26093
 Alpha virt. eigenvalues --    0.26258   0.26747   0.28233   0.29135   0.29530
 Alpha virt. eigenvalues --    0.30276   0.30640   0.32787   0.32814   0.33196
 Alpha virt. eigenvalues --    0.33491   0.34495   0.34614   0.35476   0.36327
 Alpha virt. eigenvalues --    0.37484   0.38388   0.38445   0.38695   0.38729
 Alpha virt. eigenvalues --    0.39064   0.40233   0.41877   0.42016   0.43380
 Alpha virt. eigenvalues --    0.44076   0.44586   0.45289   0.45657   0.46164
 Alpha virt. eigenvalues --    0.46671   0.48427   0.50313   0.50564   0.52014
 Alpha virt. eigenvalues --    0.52188   0.53217   0.53335   0.54229   0.55597
 Alpha virt. eigenvalues --    0.55645   0.57087   0.60731   0.61749   0.62075
 Alpha virt. eigenvalues --    0.64605   0.66215   0.66346   0.66713   0.69343
 Alpha virt. eigenvalues --    0.70208   0.70281   0.71809   0.71955   0.74015
 Alpha virt. eigenvalues --    0.75047   0.75058   0.78039   0.78851   0.79744
 Alpha virt. eigenvalues --    0.79797   0.80559   0.81160   0.81700   0.83338
 Alpha virt. eigenvalues --    0.84187   0.85037   0.85178   0.86792   0.87502
 Alpha virt. eigenvalues --    0.88611   0.88734   0.89517   0.90686   0.92168
 Alpha virt. eigenvalues --    0.92463   0.93854   0.94296   0.95778   0.95911
 Alpha virt. eigenvalues --    0.96692   0.99395   1.01216   1.01298   1.02261
 Alpha virt. eigenvalues --    1.02825   1.03568   1.04358   1.05247   1.05601
 Alpha virt. eigenvalues --    1.08608   1.08772   1.10365   1.11035   1.12748
 Alpha virt. eigenvalues --    1.13072   1.14484   1.15954   1.16587   1.18245
 Alpha virt. eigenvalues --    1.18772   1.19827   1.19951   1.20655   1.23024
 Alpha virt. eigenvalues --    1.23382   1.24946   1.26273   1.27688   1.30551
 Alpha virt. eigenvalues --    1.32310   1.32973   1.34571   1.35556   1.35794
 Alpha virt. eigenvalues --    1.38088   1.39190   1.41585   1.41742   1.44038
 Alpha virt. eigenvalues --    1.45185   1.45506   1.45559   1.50944   1.51357
 Alpha virt. eigenvalues --    1.52102   1.53011   1.54261   1.54317   1.55142
 Alpha virt. eigenvalues --    1.56082   1.57034   1.57937   1.59356   1.62329
 Alpha virt. eigenvalues --    1.62962   1.63201   1.63624   1.64617   1.65547
 Alpha virt. eigenvalues --    1.67683   1.68250   1.69141   1.69621   1.72560
 Alpha virt. eigenvalues --    1.73646   1.77379   1.77868   1.80468   1.83309
 Alpha virt. eigenvalues --    1.84239   1.86699   1.87438   1.89458   1.93349
 Alpha virt. eigenvalues --    1.93957   1.95662   2.04296   2.04520   2.05628
 Alpha virt. eigenvalues --    2.07329   2.09380   2.10180   2.13406   2.14704
 Alpha virt. eigenvalues --    2.15734   2.16247   2.20158   2.20824   2.21741
 Alpha virt. eigenvalues --    2.22789   2.24156   2.25570   2.27988   2.28962
 Alpha virt. eigenvalues --    2.31409   2.32776   2.36573   2.37598   2.40256
 Alpha virt. eigenvalues --    2.42418   2.42913   2.46246   2.46284   2.48271
 Alpha virt. eigenvalues --    2.48781   2.51897   2.53226   2.57750   2.60790
 Alpha virt. eigenvalues --    2.62857   2.65472   2.67607   2.69806   2.70202
 Alpha virt. eigenvalues --    2.74775   2.75837   2.76054   2.81085   2.84248
 Alpha virt. eigenvalues --    2.85408   2.87597   2.89969   2.92899   2.96673
 Alpha virt. eigenvalues --    2.98716   3.06424   3.09789   3.10924   3.15994
 Alpha virt. eigenvalues --    3.16420   3.20380   3.22938   3.23703   3.24850
 Alpha virt. eigenvalues --    3.27634   3.35201   3.35807   3.38689   3.39743
 Alpha virt. eigenvalues --    3.42118   3.44497   3.45977   3.47675   3.48502
 Alpha virt. eigenvalues --    3.50638   3.53739   3.55969   3.58033   3.59412
 Alpha virt. eigenvalues --    3.60653   3.62056   3.64474   3.68777   3.69506
 Alpha virt. eigenvalues --    3.70428   3.73116   3.75374   3.76903   3.77189
 Alpha virt. eigenvalues --    3.78869   3.85221   3.86256   3.87107   3.90126
 Alpha virt. eigenvalues --    3.92356   3.95020   3.96861   3.97094   3.99050
 Alpha virt. eigenvalues --    4.01224   4.03373   4.06252   4.10250   4.11356
 Alpha virt. eigenvalues --    4.13134   4.17421   4.18126   4.23361   4.24461
 Alpha virt. eigenvalues --    4.25213   4.25974   4.30513   4.34172   4.37201
 Alpha virt. eigenvalues --    4.39435   4.42941   4.45636   4.47213   4.49142
 Alpha virt. eigenvalues --    4.56091   4.57339   4.59062   4.59403   4.61468
 Alpha virt. eigenvalues --    4.66041   4.69483   4.74196   4.75203   4.76265
 Alpha virt. eigenvalues --    4.82321   4.84147   4.85724   4.88688   4.89531
 Alpha virt. eigenvalues --    4.90975   4.92852   4.96126   5.00270   5.03432
 Alpha virt. eigenvalues --    5.08075   5.12262   5.14318   5.16719   5.18468
 Alpha virt. eigenvalues --    5.19491   5.22547   5.29187   5.33493   5.37274
 Alpha virt. eigenvalues --    5.41687   5.47182   5.50452   5.52815   5.68079
 Alpha virt. eigenvalues --    5.71703   5.73128   5.77078   5.85305   5.88315
 Alpha virt. eigenvalues --    5.93112   5.93738   6.08607   6.15135   6.23253
 Alpha virt. eigenvalues --    6.32944   6.38573   6.40852   6.43424   6.46296
 Alpha virt. eigenvalues --    6.48266   6.49475   6.50979   6.53338   6.55052
 Alpha virt. eigenvalues --    6.62803   6.62888   6.71866   6.78415   6.80081
 Alpha virt. eigenvalues --    6.81362   6.81398   6.86015   6.89114   6.89436
 Alpha virt. eigenvalues --    6.96399   6.97598   7.02650   7.03294   7.07181
 Alpha virt. eigenvalues --    7.13005   7.19150   7.22486   7.23185   7.32045
 Alpha virt. eigenvalues --    7.45894   7.46569   7.50077   7.54355   7.72268
 Alpha virt. eigenvalues --    7.85518   7.89575   8.11679   8.17372  13.92697
 Alpha virt. eigenvalues --   14.57654  15.54749  17.00824  17.54627  18.21880
          Condensed to atoms (all electrons):
               1          2          3          4          5          6
     1  O    8.260737  -0.164204  -0.079076   0.009331   0.006865   0.267476
     2  O   -0.164204   8.173044  -0.133705   0.019708  -0.012424   0.257312
     3  O   -0.079076  -0.133705   8.521440   0.030865  -0.024723   0.340288
     4  C    0.009331   0.019708   0.030865   5.520978  -0.106919  -0.117736
     5  C    0.006865  -0.012424  -0.024723  -0.106919   5.804968   0.013898
     6  C    0.267476   0.257312   0.340288  -0.117736   0.013898   4.634652
     7  H   -0.024046   0.003405   0.008902   0.396754  -0.019607  -0.012773
     8  H   -0.024045   0.003405   0.008899   0.396755  -0.019611  -0.012772
     9  H    0.001034  -0.000227  -0.001729  -0.057991   0.434985   0.003485
    10  H   -0.001703  -0.001392   0.000684   0.018487   0.376966  -0.003672
    11  H   -0.001703  -0.001391   0.000684   0.018489   0.376963  -0.003671
    12  H   -0.003691   0.212984  -0.040971  -0.004444  -0.000241   0.027973
               7          8          9         10         11         12
     1  O   -0.024046  -0.024045   0.001034  -0.001703  -0.001703  -0.003691
     2  O    0.003405   0.003405  -0.000227  -0.001392  -0.001391   0.212984
     3  O    0.008902   0.008899  -0.001729   0.000684   0.000684  -0.040971
     4  C    0.396754   0.396755  -0.057991   0.018487   0.018489  -0.004444
     5  C   -0.019607  -0.019611   0.434985   0.376966   0.376963  -0.000241
     6  C   -0.012773  -0.012772   0.003485  -0.003672  -0.003671   0.027973
     7  H    0.379009  -0.013830  -0.001987   0.009618  -0.015600   0.000441
     8  H   -0.013830   0.379011  -0.001987  -0.015600   0.009618   0.000441
     9  H   -0.001987  -0.001987   0.348958   0.003419   0.003419  -0.000047
    10  H    0.009618  -0.015600   0.003419   0.365856  -0.006944   0.000040
    11  H   -0.015600   0.009618   0.003419  -0.006944   0.365855   0.000040
    12  H    0.000441   0.000441  -0.000047   0.000040   0.000040   0.579150
 Mulliken charges:
               1
     1  O   -0.246973
     2  O   -0.356514
     3  O   -0.631559
     4  C   -0.124276
     5  C   -0.831121
     6  C    0.605540
     7  H    0.289714
     8  H    0.289716
     9  H    0.268668
    10  H    0.254241
    11  H    0.254240
    12  H    0.228324
 Sum of Mulliken charges =  -0.00000
 Mulliken charges with hydrogens summed into heavy atoms:
               1
     1  O   -0.246973
     2  O   -0.128191
     3  O   -0.631559
     4  C    0.455154
     5  C   -0.053971
     6  C    0.605540
 Electronic spatial extent (au):  <R**2>=            670.0196
 Charge=             -0.0000 electrons
 Dipole moment (field-independent basis, Debye):
    X=              0.9504    Y=             -0.2925    Z=              0.0000  Tot=              0.9944
 Quadrupole moment (field-independent basis, Debye-Ang):
   XX=            -27.3036   YY=            -40.9703   ZZ=            -34.6078
   XY=              3.0688   XZ=             -0.0003   YZ=              0.0006
 Traceless Quadrupole moment (field-independent basis, Debye-Ang):
   XX=              6.9903   YY=             -6.6764   ZZ=             -0.3139
   XY=              3.0688   XZ=             -0.0003   YZ=              0.0006
 Octapole moment (field-independent basis, Debye-Ang**2):
  XXX=            -29.9652  YYY=             -3.2187  ZZZ=             -0.0000  XYY=              5.4331
  XXY=             -4.6403  XXZ=              0.0006  XZZ=             -2.7550  YZZ=             -0.1440
  YYZ=              0.0003  XYZ=             -0.0008
 Hexadecapole moment (field-independent basis, Debye-Ang**3):
 XXXX=           -540.4321 YYYY=           -163.7010 ZZZZ=            -44.8735 XXXY=             22.7879
 XXXZ=             -0.0048 YYYX=              6.1480 YYYZ=              0.0072 ZZZX=             -0.0016
 ZZZY=              0.0054 XXYY=           -141.9925 XXZZ=           -114.9700 YYZZ=            -32.2182
 XXYZ=              0.0028 YYXZ=             -0.0014 ZZXY=             -0.4007
 N-N= 2.460642344693D+02 E-N=-1.298225557156D+03  KE= 3.415017392264D+02
  Exact polarizability:      62.811      -0.309      50.239       0.000      -0.001      39.825
 Approx polarizability:      56.247      -0.704      57.533       0.000      -0.001      44.117
 No NMR shielding tensors so no spin-rotation constants.
 Leave Link  601 at Mon Feb 10 12:40:36 2020, MaxMem=  2684354560 cpu:               5.1 elap:               0.9
 (Enter /opt/software/Gaussian16/bin/avx/g16/l9999.exe)

 ----------------------------------------------------------------------

 Electric dipole moment (input orientation):
 (Debye = 10**-18 statcoulomb cm , SI units = C m)
                  (au)            (Debye)         (10**-30 SI)
   Tot        0.391222D+00      0.994386D+00      0.331692D+01
   x          0.373917D+00      0.950403D+00      0.317020D+01
   y         -0.115067D+00     -0.292471D+00     -0.975577D+00
   z          0.128823D-04      0.327436D-04      0.109221D-03

 Dipole polarizability, Alpha (input orientation).
 (esu units = cm**3 , SI units = C**2 m**2 J**-1)
 Alpha(0;0):
               (au)            (10**-24 esu)      (10**-40 SI)
   iso        0.509585D+02      0.755128D+01      0.840193D+01
   aniso      0.199427D+02      0.295520D+01      0.328810D+01
   xx         0.628110D+02      0.930763D+01      0.103561D+02
   yx        -0.309236D+00     -0.458240D-01     -0.509861D-01
   yy         0.502394D+02      0.744471D+01      0.828336D+01
   zx         0.691071D-04      0.102406D-04      0.113942D-04
   zy        -0.108921D-02     -0.161405D-03     -0.179587D-03
   zz         0.398252D+02      0.590149D+01      0.656629D+01

 First dipole hyperpolarizability, Beta (input orientation).
 ||, _|_  parallel and perpendicular components, (z) with respect to z axis,
 vector components x,y,z.  Values do not include the 1/n! factor of 1/2.
 (esu units = statvolt**-1 cm**4 , SI units = C**3 m**3 J**-2)
 Beta(0;0,0):
               (au)            (10**-30 esu)      (10**-50 SI)
   || (z)    -0.295620D-02     -0.255393D-04     -0.947865D-05
   _|_(z)    -0.985401D-03     -0.851310D-05     -0.315955D-05
   x          0.565062D+02      0.488169D+00      0.181179D+00
   y          0.107097D+03      0.925233D+00      0.343391D+00
   z         -0.147810D-01     -0.127696D-03     -0.473933D-04
   ||         0.242179D+02      0.209224D+00      0.776514D-01
   xxx       -0.249851D+02     -0.215852D+00     -0.801112D-01
   xxy        0.387822D+02      0.335048D+00      0.124350D+00
   yxy        0.323404D+02      0.279396D+00      0.103695D+00
   yyy       -0.469819D+01     -0.405887D-01     -0.150641D-01
   xxz       -0.441720D-02     -0.381612D-04     -0.141632D-04
   yxz       -0.232659D-02     -0.201000D-04     -0.745990D-05
   yyz        0.223520D-04      0.193104D-06      0.716686D-07
   zxz        0.114801D+02      0.991789D-01      0.368093D-01
   zyz        0.161494D+01      0.139518D-01      0.517807D-02
   zzz       -0.532152D-03     -0.459738D-05     -0.170627D-05

 ----------------------------------------------------------------------

 Dipole orientation:
     8         -0.23089925         -0.75016418          0.59640495
     8         -0.82342049         -2.67480778         -2.98724178
     8          0.44546413          1.44709193         -3.06312986
     6          0.46161214          1.49946796          2.00141580
     6          0.25178238          0.81803533          4.76575035
     6         -0.14120820         -0.45880516         -1.91485575
     1          2.38041158          2.04969440          1.47097964
     1         -0.81551284          3.03355349          1.47091676
     1          0.75462045          2.45150590          5.92718021
     1         -1.67705485          0.24949375          5.22719695
     1          1.52690566         -0.73684268          5.22725885
     1         -0.73164188         -2.37657559         -4.80566470

 Electric dipole moment (dipole orientation):
 (Debye = 10**-18 statcoulomb cm , SI units = C m)
                  (au)            (Debye)         (10**-30 SI)
   Tot        0.391222D+00      0.994386D+00      0.331692D+01
   x          0.000000D+00      0.000000D+00      0.000000D+00
   y          0.000000D+00      0.000000D+00      0.000000D+00
   z          0.391222D+00      0.994386D+00      0.331692D+01

 Dipole polarizability, Alpha (dipole orientation).
 (esu units = cm**3 , SI units = C**2 m**2 J**-1)
 Alpha(0;0):
               (au)            (10**-24 esu)      (10**-40 SI)
   iso        0.509585D+02      0.755128D+01      0.840193D+01
   aniso      0.199427D+02      0.295520D+01      0.328810D+01
   xx         0.408058D+02      0.604679D+01      0.672797D+01
   yx         0.318534D+01      0.472019D+00      0.525192D+00
   yy         0.501725D+02      0.743480D+01      0.827233D+01
   zx         0.964540D+00      0.142930D+00      0.159031D+00
   zy         0.313318D+01      0.464289D+00      0.516591D+00
   zz         0.618973D+02      0.917223D+01      0.102055D+02

 First dipole hyperpolarizability, Beta (dipole orientation).
 ||, _|_  parallel and perpendicular components, (z) with respect to z axis,
 vector components x,y,z.  Values do not include the 1/n! factor of 1/2.
 (esu units = statvolt**-1 cm**4 , SI units = C**3 m**3 J**-2)
 Beta(0;0,0):
               (au)            (10**-30 esu)      (10**-50 SI)
   || (z)     0.450146D+01      0.388891D-01      0.144333D-01
   _|_(z)     0.150049D+01      0.129630D-01      0.481110D-02
   x          0.350093D+02      0.302453D+00      0.112252D+00
   y          0.113712D+03      0.982384D+00      0.364602D+00
   z          0.225073D+02      0.194445D+00      0.721665D-01
   ||         0.242179D+02      0.209224D+00      0.776514D-01
   xxx        0.475532D+01      0.410823D-01      0.152473D-01
   xxy        0.604212D+01      0.521992D-01      0.193732D-01
   yxy        0.579910D+01      0.500997D-01      0.185940D-01
   yyy        0.282395D+02      0.243967D+00      0.905460D-01
   xxz        0.132189D+02      0.114201D+00      0.423846D-01
   yxz        0.884086D+01      0.763782D-01      0.283470D-01
   yyz        0.392161D+02      0.338796D+00      0.125741D+00
   zxz        0.111533D+01      0.963559D-02      0.357615D-02
   zyz        0.362246D+01      0.312952D-01      0.116149D-01
   zzz       -0.449325D+02     -0.388182D+00     -0.144070D+00

 ----------------------------------------------------------------------
 Unable to Open any file for archive entry.
 1\1\GINC-NODE144\SP\RwB97XD\Aug-CC-pVTZ\C3H6O3\LIUCHW\10-Feb-2020\0\\#
 p wB97XD/aug-cc-pvtz NoSymm MaxDisk=100GB Polar\\Polar\\0,1\O,0,0.1794
 81,-0.489803,0.000035\O,0,-1.946453,-0.950549,0.000096\O,0,-1.313582,1
 .242543,-0.000127\C,0,1.256447,0.482005,-0.000054\C,0,2.543592,-0.3088
 61,0.00006\C,0,-1.043193,0.055241,-0.000024\H,0,1.157885,1.115971,-0.8
 84897\H,0,1.157852,1.116175,0.884638\H,0,3.39702,0.374791,-0.000003\H,
 0,2.604077,-0.942436,0.887128\H,0,2.604109,-0.942642,-0.886857\H,0,-2.
 817592,-0.509707,0.000063\\Version=ES64L-G16RevC.01\HF=-343.6551637\RM
 SD=3.111e-09\Dipole=0.3739172,-0.1150668,0.0000129\Polar=62.810971,-0.
 3092356,50.2394164,0.0000691,-0.0010892,39.8252034\HyperPolar=-24.9850
 808,38.7821974,32.3403942,-4.6981943,-0.0044172,-0.0023266,0.0000224,1
 1.4800763,1.6149375,-0.0005322\Quadrupole=5.1971043,-4.9637152,-0.2333
 892,2.2815757,-0.0002492,0.0004699\PG=C01 [X(C3H6O3)]\\@
 The archive entry for this job was punched.


 CURIOUSER AND CURIOUSER

                  -- ALICE, IN WONDERLAND
 Job cpu time:       0 days  2 hours 56 minutes 48.3 seconds.
 Elapsed time:       0 days  0 hours 24 minutes 36.4 seconds.
 File lengths (MBytes):  RWF=     92 Int=      0 D2E=      0 Chk=     12 Scr=      1
 Normal termination of Gaussian 16 at Mon Feb 10 12:40:37 2020.
