 Entering Gaussian System, Link 0=g16
 Input=119_Propionaldehyde.com
 Output=119_Propionaldehyde.out
 Initial command:
 /opt/software/Gaussian16/bin/avx/g16/l1.exe "/scratch/liuchw/Gau-1966.inp" -scrdir="/scratch/liuchw/"
 Entering Link 1 = /opt/software/Gaussian16/bin/avx/g16/l1.exe PID=      1967.
  
 Copyright (c) 1988-2019, Gaussian, Inc.  All Rights Reserved.
  
 This is part of the Gaussian(R) 16 program.  It is based on
 the Gaussian(R) 09 system (copyright 2009, Gaussian, Inc.),
 the Gaussian(R) 03 system (copyright 2003, Gaussian, Inc.),
 the Gaussian(R) 98 system (copyright 1998, Gaussian, Inc.),
 the Gaussian(R) 94 system (copyright 1995, Gaussian, Inc.),
 the Gaussian 92(TM) system (copyright 1992, Gaussian, Inc.),
 the Gaussian 90(TM) system (copyright 1990, Gaussian, Inc.),
 the Gaussian 88(TM) system (copyright 1988, Gaussian, Inc.),
 the Gaussian 86(TM) system (copyright 1986, Carnegie Mellon
 University), and the Gaussian 82(TM) system (copyright 1983,
 Carnegie Mellon University). Gaussian is a federally registered
 trademark of Gaussian, Inc.
  
 This software contains proprietary and confidential information,
 including trade secrets, belonging to Gaussian, Inc.
  
 This software is provided under written license and may be
 used, copied, transmitted, or stored only in accord with that
 written license.
  
 The following legend is applicable only to US Government
 contracts under FAR:
  
                    RESTRICTED RIGHTS LEGEND
  
 Use, reproduction and disclosure by the US Government is
 subject to restrictions as set forth in subparagraphs (a)
 and (c) of the Commercial Computer Software - Restricted
 Rights clause in FAR 52.227-19.
  
 Gaussian, Inc.
 340 Quinnipiac St., Bldg. 40, Wallingford CT 06492
  
  
 ---------------------------------------------------------------
 Warning -- This program may not be used in any manner that
 competes with the business of Gaussian, Inc. or will provide
 assistance to any competitor of Gaussian, Inc.  The licensee
 of this program is prohibited from giving any competitor of
 Gaussian, Inc. access to this program.  By using this program,
 the user acknowledges that Gaussian, Inc. is engaged in the
 business of creating and licensing software in the field of
 computational chemistry and represents and warrants to the
 licensee that it is not a competitor of Gaussian, Inc. and that
 it will not use this program in any manner prohibited above.
 ---------------------------------------------------------------
  

 Cite this work as:
 Gaussian 16, Revision C.01,
 M. J. Frisch, G. W. Trucks, H. B. Schlegel, G. E. Scuseria, 
 M. A. Robb, J. R. Cheeseman, G. Scalmani, V. Barone, 
 G. A. Petersson, H. Nakatsuji, X. Li, M. Caricato, A. V. Marenich, 
 J. Bloino, B. G. Janesko, R. Gomperts, B. Mennucci, H. P. Hratchian, 
 J. V. Ortiz, A. F. Izmaylov, J. L. Sonnenberg, D. Williams-Young, 
 F. Ding, F. Lipparini, F. Egidi, J. Goings, B. Peng, A. Petrone, 
 T. Henderson, D. Ranasinghe, V. G. Zakrzewski, J. Gao, N. Rega, 
 G. Zheng, W. Liang, M. Hada, M. Ehara, K. Toyota, R. Fukuda, 
 J. Hasegawa, M. Ishida, T. Nakajima, Y. Honda, O. Kitao, H. Nakai, 
 T. Vreven, K. Throssell, J. A. Montgomery, Jr., J. E. Peralta, 
 F. Ogliaro, M. J. Bearpark, J. J. Heyd, E. N. Brothers, K. N. Kudin, 
 V. N. Staroverov, T. A. Keith, R. Kobayashi, J. Normand, 
 K. Raghavachari, A. P. Rendell, J. C. Burant, S. S. Iyengar, 
 J. Tomasi, M. Cossi, J. M. Millam, M. Klene, C. Adamo, R. Cammi, 
 J. W. Ochterski, R. L. Martin, K. Morokuma, O. Farkas, 
 J. B. Foresman, and D. J. Fox, Gaussian, Inc., Wallingford CT, 2019.
 
 ******************************************
 Gaussian 16:  ES64L-G16RevC.01  3-Jul-2019
                10-Feb-2020 
 ******************************************
 %chk=119_Propionaldehyde.chk
 %nproc=8
 Will use up to    8 processors via shared memory.
 %Mem=20GB
 ------------------------------------------------
 #p wB97XD/aug-cc-pvtz NoSymm MaxDisk=100GB Polar
 ------------------------------------------------
 1/38=1,172=1/1;
 2/12=2,15=1,17=6,18=5,40=1/2;
 3/5=16,6=1,7=10,11=2,25=1,30=1,74=-58/1,2,3;
 4//1;
 5/5=2,38=5,98=1/2;
 8/6=4,10=90,11=11/1;
 10/6=1,13=10,31=1/2;
 6/7=2,8=2,9=2,10=2,28=1/1;
 99/5=1,9=1/99;
 Leave Link    1 at Mon Feb 10 12:21:26 2020, MaxMem=  2684354560 cpu:               0.5 elap:               0.1
 (Enter /opt/software/Gaussian16/bin/avx/g16/l101.exe)
 -----
 Polar
 -----
 Symbolic Z-matrix:
 Charge =  0 Multiplicity = 1
 O                    -1.39425  -0.69129   0.00007 
 C                     0.55515   0.73775   0.0001 
 C                     1.41883  -0.51456  -0.00007 
 C                    -0.92117   0.43783  -0.0001 
 H                     0.76194   1.37198   0.87331 
 H                     0.76218   1.37243  -0.87271 
 H                     1.21129  -1.12575  -0.88065 
 H                     1.21103  -1.12616   0.88017 
 H                     2.47963  -0.25286   0.00014 
 H                    -1.58896   1.32451  -0.00042 
 
 ITRead=  0  0  0  0  0  0  0  0  0  0
 MicOpt= -1 -1 -1 -1 -1 -1 -1 -1 -1 -1
 NAtoms=     10 NQM=       10 NQMF=       0 NMMI=      0 NMMIF=      0
                NMic=       0 NMicF=      0.
                    Isotopes and Nuclear Properties:
 (Nuclear quadrupole moments (NQMom) in fm**2, nuclear magnetic moments (NMagM)
  in nuclear magnetons)

  Atom         1           2           3           4           5           6           7           8           9          10
 IAtWgt=          16          12          12          12           1           1           1           1           1           1
 AtmWgt=  15.9949146  12.0000000  12.0000000  12.0000000   1.0078250   1.0078250   1.0078250   1.0078250   1.0078250   1.0078250
 NucSpn=           0           0           0           0           1           1           1           1           1           1
 AtZEff=  -0.0000000  -0.0000000  -0.0000000  -0.0000000  -0.0000000  -0.0000000  -0.0000000  -0.0000000  -0.0000000  -0.0000000
 NQMom=    0.0000000   0.0000000   0.0000000   0.0000000   0.0000000   0.0000000   0.0000000   0.0000000   0.0000000   0.0000000
 NMagM=    0.0000000   0.0000000   0.0000000   0.0000000   2.7928460   2.7928460   2.7928460   2.7928460   2.7928460   2.7928460
 AtZNuc=   8.0000000   6.0000000   6.0000000   6.0000000   1.0000000   1.0000000   1.0000000   1.0000000   1.0000000   1.0000000
 Leave Link  101 at Mon Feb 10 12:21:27 2020, MaxMem=  2684354560 cpu:               1.1 elap:               0.2
 (Enter /opt/software/Gaussian16/bin/avx/g16/l202.exe)
                          Input orientation:                          
 ---------------------------------------------------------------------
 Center     Atomic      Atomic             Coordinates (Angstroms)
 Number     Number       Type             X           Y           Z
 ---------------------------------------------------------------------
      1          8           0       -1.394247   -0.691285    0.000071
      2          6           0        0.555145    0.737753    0.000099
      3          6           0        1.418832   -0.514560   -0.000066
      4          6           0       -0.921166    0.437828   -0.000101
      5          1           0        0.761942    1.371975    0.873306
      6          1           0        0.762178    1.372434   -0.872706
      7          1           0        1.211293   -1.125750   -0.880653
      8          1           0        1.211031   -1.126157    0.880173
      9          1           0        2.479634   -0.252861    0.000144
     10          1           0       -1.588962    1.324514   -0.000416
 ---------------------------------------------------------------------
                    Distance matrix (angstroms):
                    1          2          3          4          5
     1  O    0.000000
     2  C    2.417081   0.000000
     3  C    2.818625   1.521264   0.000000
     4  C    1.224215   1.506469   2.526387   0.000000
     5  H    3.109459   1.098860   2.180206   2.113841   0.000000
     6  H    3.109798   1.098850   2.180239   2.113900   1.746012
     7  H    2.784470   2.163076   1.091815   2.787029   3.084950
     8  H    2.784092   2.163071   1.091812   2.786969   2.538187
     9  H    3.898611   2.164480   1.092606   3.470229   2.520510
    10  H    2.025181   2.222945   3.525481   1.110029   2.508464
                    6          7          8          9         10
     6  H    0.000000
     7  H    2.538246   0.000000
     8  H    3.084965   1.760826   0.000000
     9  H    2.520537   1.773817   1.773824   0.000000
    10  H    2.508196   3.823616   3.823766   4.363667   0.000000
 Symmetry turned off by external request.
 Stoichiometry    C3H6O
 Framework group  C1[X(C3H6O)]
 Deg. of freedom    24
 Full point group                 C1      NOp   1
 Rotational constants (GHZ):          16.4605712           5.9531374           4.6196325
 Leave Link  202 at Mon Feb 10 12:21:27 2020, MaxMem=  2684354560 cpu:               0.1 elap:               0.0
 (Enter /opt/software/Gaussian16/bin/avx/g16/l301.exe)
 Standard basis: Aug-CC-pVTZ (5D, 7F)
 Ernie: Thresh=  0.10000D-02 Tol=  0.10000D-05 Strict=F.
 Ernie:  12 primitive shells out of 186 were deleted.
   322 basis functions,   450 primitive gaussians,   370 cartesian basis functions
    16 alpha electrons       16 beta electrons
       nuclear repulsion energy       118.3208637057 Hartrees.
 IExCor= 4639 DFT=T Ex+Corr=wB97XD ExCW=0 ScaHFX=  1.000000
 ScaDFX=  1.000000  1.000000  1.000000  1.000000 ScalE2=  1.000000  1.000000
 IRadAn=      5 IRanWt=     -1 IRanGd=            0 ICorTp=0 IEmpDi=121
 HFx  wShort=  0.000000 wLong=  0.200000 cFull=  0.222036 cShort=  0.000000 cLong=  0.777964
 DFx  wShort=  0.000000 wLong=  0.200000 cFull=  0.000000 cShort=  0.000000 cLong=  1.000000
 NAtoms=   10 NActive=   10 NUniq=   10 SFac= 1.00D+00 NAtFMM=   60 NAOKFM=F Big=F
 Integral buffers will be    131072 words long.
 Raffenetti 2 integral format.
 Two-electron integral symmetry is turned off.
 R6Disp:  Grimme-D2 Dispersion energy=       -0.0032560255 Hartrees.
 Nuclear repulsion after empirical dispersion term =      118.3176076802 Hartrees.
 Leave Link  301 at Mon Feb 10 12:21:27 2020, MaxMem=  2684354560 cpu:               0.7 elap:               0.1
 (Enter /opt/software/Gaussian16/bin/avx/g16/l302.exe)
 NPDir=0 NMtPBC=     1 NCelOv=     1 NCel=       1 NClECP=     1 NCelD=      1
         NCelK=      1 NCelE2=     1 NClLst=     1 CellRange=     0.0.
 One-electron integrals computed using PRISM.
 NBasis=   322 RedAO= T EigKep=  1.88D-05  NBF=   322
 NBsUse=   322 1.00D-06 EigRej= -1.00D+00 NBFU=   322
 Precomputing XC quadrature grid using
 IXCGrd= 4 IRadAn=           5 IRanWt=          -1 IRanGd=           0 AccXCQ= 0.00D+00.
 Generated NRdTot=       0 NPtTot=           0 NUsed=           0 NTot=          32
 NSgBfM=   370   370   370   370   370 MxSgAt=    10 MxSgA2=    10.
 Leave Link  302 at Mon Feb 10 12:21:27 2020, MaxMem=  2684354560 cpu:               2.8 elap:               0.4
 (Enter /opt/software/Gaussian16/bin/avx/g16/l303.exe)
 DipDrv:  MaxL=1.
 Leave Link  303 at Mon Feb 10 12:21:27 2020, MaxMem=  2684354560 cpu:               0.4 elap:               0.1
 (Enter /opt/software/Gaussian16/bin/avx/g16/l401.exe)
 ExpMin= 2.53D-02 ExpMax= 1.53D+04 ExpMxC= 5.22D+02 IAcc=3 IRadAn=         5 AccDes= 0.00D+00
 Harris functional with IExCor= 4639 and IRadAn=       5 diagonalized for initial guess.
 HarFok:  IExCor= 4639 AccDes= 0.00D+00 IRadAn=         5 IDoV= 1 UseB2=F ITyADJ=14
 ICtDFT=  3500011 ScaDFX=  1.000000  1.000000  1.000000  1.000000
 FoFCou: FMM=F IPFlag=           0 FMFlag=      100000 FMFlg1=           0
         NFxFlg=           0 DoJE=T BraDBF=F KetDBF=T FulRan=T
         wScrn=  0.000000 ICntrl=       500 IOpCl=  0 I1Cent=   200000004 NGrid=           0
         NMat0=    1 NMatS0=      1 NMatT0=    0 NMatD0=    1 NMtDS0=    0 NMtDT0=    0
 Symmetry not used in FoFCou.
 Harris En= -184.808762027660    
 JPrj=0 DoOrth=F DoCkMO=F.
 Leave Link  401 at Mon Feb 10 12:21:29 2020, MaxMem=  2684354560 cpu:              14.1 elap:               1.8
 (Enter /opt/software/Gaussian16/bin/avx/g16/l502.exe)
 Two-electron integral symmetry not used.
 Closed shell SCF:
 Using DIIS extrapolation, IDIIS=  1040.
 NGot=  2684354560 LenX=  2684075244 LenY=  2683937903
 Requested convergence on RMS density matrix=1.00D-08 within 128 cycles.
 Requested convergence on MAX density matrix=1.00D-06.
 Requested convergence on             energy=1.00D-06.
 No special actions if energy rises.
 Fock matrices will be formed incrementally for  20 cycles.

 Cycle   1  Pass 1  IDiag  1:
 FoFJK:  IHMeth= 1 ICntrl=       0 DoSepK=T KAlg= 0 I1Cent=           0 FoldK=F
 IRaf=         1 NMat=       1 IRICut=       1 DoRegI=T DoRafI=F ISym2E= 0 IDoP0=0 IntGTp=1.
 FoFCou: FMM=F IPFlag=           0 FMFlag=      100000 FMFlg1=           0
         NFxFlg=           0 DoJE=T BraDBF=F KetDBF=F FulRan=T
         wScrn=  0.000000 ICntrl=       500 IOpCl=  0 I1Cent=           0 NGrid=           0
         NMat0=    1 NMatS0=      1 NMatT0=    0 NMatD0=    1 NMtDS0=    0 NMtDT0=    0
 Symmetry not used in FoFCou.
 E= -193.090283423506    
 DIIS: error= 4.73D-02 at cycle   1 NSaved=   1.
 NSaved= 1 IEnMin= 1 EnMin= -193.090283423506     IErMin= 1 ErrMin= 4.73D-02
 ErrMax= 4.73D-02  0.00D+00 EMaxC= 1.00D-01 BMatC= 3.48D-01 BMatP= 3.48D-01
 IDIUse=3 WtCom= 5.27D-01 WtEn= 4.73D-01
 Coeff-Com:  0.100D+01
 Coeff-En:   0.100D+01
 Coeff:      0.100D+01
 Gap=     0.434 Goal=   None    Shift=    0.000
 GapD=    0.434 DampG=2.000 DampE=0.500 DampFc=1.0000 IDamp=-1.
 RMSDP=1.99D-03 MaxDP=1.26D-01              OVMax= 8.12D-02

 Cycle   2  Pass 1  IDiag  1:
 RMSU=  1.96D-03    CP:  9.53D-01
 E= -193.126091510891     Delta-E=       -0.035808087385 Rises=F Damp=F
 DIIS: error= 9.14D-03 at cycle   2 NSaved=   2.
 NSaved= 2 IEnMin= 2 EnMin= -193.126091510891     IErMin= 2 ErrMin= 9.14D-03
 ErrMax= 9.14D-03  0.00D+00 EMaxC= 1.00D-01 BMatC= 4.18D-02 BMatP= 3.48D-01
 IDIUse=3 WtCom= 9.09D-01 WtEn= 9.14D-02
 Coeff-Com:  0.192D+00 0.808D+00
 Coeff-En:   0.184D+00 0.816D+00
 Coeff:      0.191D+00 0.809D+00
 Gap=     0.406 Goal=   None    Shift=    0.000
 RMSDP=6.93D-04 MaxDP=3.91D-02 DE=-3.58D-02 OVMax= 9.54D-02

 Cycle   3  Pass 1  IDiag  1:
 RMSU=  5.63D-04    CP:  9.65D-01  7.98D-01
 E= -193.135426114449     Delta-E=       -0.009334603558 Rises=F Damp=F
 DIIS: error= 1.07D-02 at cycle   3 NSaved=   3.
 NSaved= 3 IEnMin= 3 EnMin= -193.135426114449     IErMin= 2 ErrMin= 9.14D-03
 ErrMax= 1.07D-02  0.00D+00 EMaxC= 1.00D-01 BMatC= 2.86D-02 BMatP= 4.18D-02
 IDIUse=3 WtCom= 8.93D-01 WtEn= 1.07D-01
 Coeff-Com:  0.348D-01 0.456D+00 0.509D+00
 Coeff-En:   0.000D+00 0.409D+00 0.591D+00
 Coeff:      0.311D-01 0.451D+00 0.518D+00
 Gap=     0.380 Goal=   None    Shift=    0.000
 RMSDP=3.16D-04 MaxDP=1.84D-02 DE=-9.33D-03 OVMax= 4.26D-02

 Cycle   4  Pass 1  IDiag  1:
 RMSU=  1.91D-04    CP:  9.61D-01  8.82D-01  6.67D-01
 E= -193.154397943520     Delta-E=       -0.018971829072 Rises=F Damp=F
 DIIS: error= 1.53D-03 at cycle   4 NSaved=   4.
 NSaved= 4 IEnMin= 4 EnMin= -193.154397943520     IErMin= 4 ErrMin= 1.53D-03
 ErrMax= 1.53D-03  0.00D+00 EMaxC= 1.00D-01 BMatC= 1.20D-03 BMatP= 2.86D-02
 IDIUse=3 WtCom= 9.85D-01 WtEn= 1.53D-02
 Coeff-Com:  0.104D-01 0.192D+00 0.273D+00 0.525D+00
 Coeff-En:   0.000D+00 0.000D+00 0.000D+00 0.100D+01
 Coeff:      0.102D-01 0.189D+00 0.269D+00 0.532D+00
 Gap=     0.374 Goal=   None    Shift=    0.000
 RMSDP=6.63D-05 MaxDP=3.06D-03 DE=-1.90D-02 OVMax= 8.72D-03

 Cycle   5  Pass 1  IDiag  1:
 RMSU=  6.14D-05    CP:  9.61D-01  8.88D-01  6.73D-01  8.83D-01
 E= -193.155298013703     Delta-E=       -0.000900070183 Rises=F Damp=F
 DIIS: error= 1.95D-04 at cycle   5 NSaved=   5.
 NSaved= 5 IEnMin= 5 EnMin= -193.155298013703     IErMin= 5 ErrMin= 1.95D-04
 ErrMax= 1.95D-04  0.00D+00 EMaxC= 1.00D-01 BMatC= 8.62D-06 BMatP= 1.20D-03
 IDIUse=3 WtCom= 9.98D-01 WtEn= 1.95D-03
 Coeff-Com: -0.165D-02-0.147D-01-0.587D-02 0.465D-01 0.976D+00
 Coeff-En:   0.000D+00 0.000D+00 0.000D+00 0.000D+00 0.100D+01
 Coeff:     -0.165D-02-0.147D-01-0.586D-02 0.464D-01 0.976D+00
 Gap=     0.374 Goal=   None    Shift=    0.000
 RMSDP=3.44D-05 MaxDP=2.10D-03 DE=-9.00D-04 OVMax= 1.48D-03

 Cycle   6  Pass 1  IDiag  1:
 RMSU=  1.47D-05    CP:  9.61D-01  8.91D-01  6.95D-01  9.98D-01  1.28D+00
 E= -193.155311148468     Delta-E=       -0.000013134765 Rises=F Damp=F
 DIIS: error= 8.41D-05 at cycle   6 NSaved=   6.
 NSaved= 6 IEnMin= 6 EnMin= -193.155311148468     IErMin= 6 ErrMin= 8.41D-05
 ErrMax= 8.41D-05  0.00D+00 EMaxC= 1.00D-01 BMatC= 8.55D-07 BMatP= 8.62D-06
 IDIUse=1 WtCom= 1.00D+00 WtEn= 0.00D+00
 Coeff-Com: -0.751D-03-0.141D-01-0.175D-01-0.142D-01 0.216D+00 0.830D+00
 Coeff:     -0.751D-03-0.141D-01-0.175D-01-0.142D-01 0.216D+00 0.830D+00
 Gap=     0.374 Goal=   None    Shift=    0.000
 RMSDP=1.05D-05 MaxDP=6.06D-04 DE=-1.31D-05 OVMax= 4.36D-04

 Cycle   7  Pass 1  IDiag  1:
 RMSU=  4.76D-06    CP:  9.61D-01  8.92D-01  6.98D-01  1.02D+00  1.37D+00
                    CP:  1.35D+00
 E= -193.155312428672     Delta-E=       -0.000001280204 Rises=F Damp=F
 DIIS: error= 1.58D-05 at cycle   7 NSaved=   7.
 NSaved= 7 IEnMin= 7 EnMin= -193.155312428672     IErMin= 7 ErrMin= 1.58D-05
 ErrMax= 1.58D-05  0.00D+00 EMaxC= 1.00D-01 BMatC= 8.79D-08 BMatP= 8.55D-07
 IDIUse=1 WtCom= 1.00D+00 WtEn= 0.00D+00
 Coeff-Com: -0.376D-04-0.146D-02-0.319D-02-0.548D-02-0.566D-01 0.184D+00
 Coeff-Com:  0.883D+00
 Coeff:     -0.376D-04-0.146D-02-0.319D-02-0.548D-02-0.566D-01 0.184D+00
 Coeff:      0.883D+00
 Gap=     0.374 Goal=   None    Shift=    0.000
 RMSDP=4.14D-06 MaxDP=2.47D-04 DE=-1.28D-06 OVMax= 2.09D-04

 Cycle   8  Pass 1  IDiag  1:
 RMSU=  1.18D-06    CP:  9.61D-01  8.92D-01  7.00D-01  1.04D+00  1.41D+00
                    CP:  1.48D+00  1.06D+00
 E= -193.155312580907     Delta-E=       -0.000000152234 Rises=F Damp=F
 DIIS: error= 6.30D-06 at cycle   8 NSaved=   8.
 NSaved= 8 IEnMin= 8 EnMin= -193.155312580907     IErMin= 8 ErrMin= 6.30D-06
 ErrMax= 6.30D-06  0.00D+00 EMaxC= 1.00D-01 BMatC= 3.72D-09 BMatP= 8.79D-08
 IDIUse=1 WtCom= 1.00D+00 WtEn= 0.00D+00
 Coeff-Com:  0.359D-04 0.565D-03 0.564D-03 0.357D-03-0.198D-01-0.338D-01
 Coeff-Com:  0.106D+00 0.946D+00
 Coeff:      0.359D-04 0.565D-03 0.564D-03 0.357D-03-0.198D-01-0.338D-01
 Coeff:      0.106D+00 0.946D+00
 Gap=     0.374 Goal=   None    Shift=    0.000
 RMSDP=1.01D-06 MaxDP=5.12D-05 DE=-1.52D-07 OVMax= 6.75D-05

 Cycle   9  Pass 1  IDiag  1:
 RMSU=  2.77D-07    CP:  9.61D-01  8.92D-01  7.00D-01  1.04D+00  1.41D+00
                    CP:  1.52D+00  1.11D+00  1.29D+00
 E= -193.155312590538     Delta-E=       -0.000000009631 Rises=F Damp=F
 DIIS: error= 1.35D-06 at cycle   9 NSaved=   9.
 NSaved= 9 IEnMin= 9 EnMin= -193.155312590538     IErMin= 9 ErrMin= 1.35D-06
 ErrMax= 1.35D-06  0.00D+00 EMaxC= 1.00D-01 BMatC= 3.51D-10 BMatP= 3.72D-09
 IDIUse=1 WtCom= 1.00D+00 WtEn= 0.00D+00
 Coeff-Com:  0.293D-05 0.109D-03 0.224D-03 0.574D-03 0.410D-02-0.186D-01
 Coeff-Com: -0.625D-01 0.759D-01 0.100D+01
 Coeff:      0.293D-05 0.109D-03 0.224D-03 0.574D-03 0.410D-02-0.186D-01
 Coeff:     -0.625D-01 0.759D-01 0.100D+01
 Gap=     0.374 Goal=   None    Shift=    0.000
 RMSDP=2.39D-07 MaxDP=1.04D-05 DE=-9.63D-09 OVMax= 1.86D-05

 Cycle  10  Pass 1  IDiag  1:
 RMSU=  7.14D-08    CP:  9.61D-01  8.92D-01  7.00D-01  1.04D+00  1.42D+00
                    CP:  1.53D+00  1.12D+00  1.42D+00  1.24D+00
 E= -193.155312591267     Delta-E=       -0.000000000729 Rises=F Damp=F
 DIIS: error= 4.62D-07 at cycle  10 NSaved=  10.
 NSaved=10 IEnMin=10 EnMin= -193.155312591267     IErMin=10 ErrMin= 4.62D-07
 ErrMax= 4.62D-07  0.00D+00 EMaxC= 1.00D-01 BMatC= 5.57D-11 BMatP= 3.51D-10
 IDIUse=1 WtCom= 1.00D+00 WtEn= 0.00D+00
 Coeff-Com: -0.145D-05 0.614D-06 0.259D-04 0.210D-03 0.251D-02-0.369D-02
 Coeff-Com: -0.263D-01-0.362D-01 0.298D+00 0.766D+00
 Coeff:     -0.145D-05 0.614D-06 0.259D-04 0.210D-03 0.251D-02-0.369D-02
 Coeff:     -0.263D-01-0.362D-01 0.298D+00 0.766D+00
 Gap=     0.374 Goal=   None    Shift=    0.000
 RMSDP=3.79D-08 MaxDP=1.30D-06 DE=-7.29D-10 OVMax= 3.12D-06

 Cycle  11  Pass 1  IDiag  1:
 RMSU=  1.98D-08    CP:  9.61D-01  8.92D-01  7.00D-01  1.04D+00  1.42D+00
                    CP:  1.53D+00  1.12D+00  1.44D+00  1.31D+00  1.13D+00
 E= -193.155312591326     Delta-E=       -0.000000000058 Rises=F Damp=F
 DIIS: error= 8.15D-08 at cycle  11 NSaved=  11.
 NSaved=11 IEnMin=11 EnMin= -193.155312591326     IErMin=11 ErrMin= 8.15D-08
 ErrMax= 8.15D-08  0.00D+00 EMaxC= 1.00D-01 BMatC= 4.16D-12 BMatP= 5.57D-11
 IDIUse=1 WtCom= 1.00D+00 WtEn= 0.00D+00
 Coeff-Com: -0.499D-06-0.798D-05-0.158D-04 0.158D-04 0.206D-03 0.771D-03
 Coeff-Com: -0.788D-03-0.133D-01-0.265D-01 0.152D+00 0.888D+00
 Coeff:     -0.499D-06-0.798D-05-0.158D-04 0.158D-04 0.206D-03 0.771D-03
 Coeff:     -0.788D-03-0.133D-01-0.265D-01 0.152D+00 0.888D+00
 Gap=     0.374 Goal=   None    Shift=    0.000
 RMSDP=1.32D-08 MaxDP=4.00D-07 DE=-5.83D-11 OVMax= 9.09D-07

 Cycle  12  Pass 1  IDiag  1:
 RMSU=  5.61D-09    CP:  9.61D-01  8.92D-01  7.00D-01  1.04D+00  1.42D+00
                    CP:  1.53D+00  1.12D+00  1.44D+00  1.33D+00  1.22D+00
                    CP:  1.19D+00
 E= -193.155312591331     Delta-E=       -0.000000000006 Rises=F Damp=F
 DIIS: error= 1.64D-08 at cycle  12 NSaved=  12.
 NSaved=12 IEnMin=12 EnMin= -193.155312591331     IErMin=12 ErrMin= 1.64D-08
 ErrMax= 1.64D-08  0.00D+00 EMaxC= 1.00D-01 BMatC= 1.14D-13 BMatP= 4.16D-12
 IDIUse=1 WtCom= 1.00D+00 WtEn= 0.00D+00
 Coeff-Com:  0.433D-07-0.827D-06-0.362D-05-0.112D-04-0.150D-03 0.302D-03
 Coeff-Com:  0.171D-02 0.180D-02-0.212D-01-0.466D-01 0.396D-01 0.102D+01
 Coeff:      0.433D-07-0.827D-06-0.362D-05-0.112D-04-0.150D-03 0.302D-03
 Coeff:      0.171D-02 0.180D-02-0.212D-01-0.466D-01 0.396D-01 0.102D+01
 Gap=     0.374 Goal=   None    Shift=    0.000
 RMSDP=4.64D-09 MaxDP=1.76D-07 DE=-5.80D-12 OVMax= 2.70D-07

 SCF Done:  E(RwB97XD) =  -193.155312591     A.U. after   12 cycles
            NFock= 12  Conv=0.46D-08     -V/T= 2.0067
 KE= 1.918665136096D+02 PE=-6.871683476479D+02 EE= 1.838289137669D+02
 Leave Link  502 at Mon Feb 10 12:23:25 2020, MaxMem=  2684354560 cpu:             928.4 elap:             116.1
 (Enter /opt/software/Gaussian16/bin/avx/g16/l801.exe)
 DoSCS=F DFT=T ScalE2(SS,OS)=  1.000000  1.000000
 Range of M.O.s used for correlation:     1   322
 NBasis=   322 NAE=    16 NBE=    16 NFC=     0 NFV=     0
 NROrb=    322 NOA=    16 NOB=    16 NVA=   306 NVB=   306

 **** Warning!!: The largest alpha MO coefficient is  0.44648145D+02

 Leave Link  801 at Mon Feb 10 12:23:25 2020, MaxMem=  2684354560 cpu:               0.2 elap:               0.1
 (Enter /opt/software/Gaussian16/bin/avx/g16/l1002.exe)
 Minotr:  Closed shell wavefunction.
          Direct CPHF calculation.
          Differentiating once with respect to electric field.
                with respect to dipole field.
          Electric field/nuclear overlap derivatives assumed to be zero.
          Requested convergence is 1.0D-08 RMS, and 1.0D-07 maximum.
          Secondary convergence is 1.0D-12 RMS, and 1.0D-12 maximum.
          NewPWx=F KeepS1=T KeepF1=T KeepIn=T MapXYZ=F SortEE=F KeepMc=T.
         3100 words used for storage of precomputed grid.
 Two-electron integral symmetry not used.
          MDV=    2684354560 using IRadAn=       1.
          Solving linear equations simultaneously, MaxMat=     384.
          There are     3 degrees of freedom in the 1st order CPHF.  IDoFFX=0 NUNeed=     3.
      3 vectors produced by pass  0 Test12= 1.63D-13 3.33D-08 XBig12= 1.86D+01 1.44D+00.
 AX will form     3 AO Fock derivatives at one time.
 FoFJK:  IHMeth= 1 ICntrl=       0 DoSepK=T KAlg= 0 I1Cent=           0 FoldK=F
 IRaf=         1 NMat=       3 IRICut=       1 DoRegI=T DoRafI=F ISym2E= 0 IDoP0=0 IntGTp=1.
 FoFCou: FMM=F IPFlag=           0 FMFlag=      100000 FMFlg1=           0
         NFxFlg=           0 DoJE=T BraDBF=F KetDBF=F FulRan=T
         wScrn=  0.000000 ICntrl=       500 IOpCl=  0 I1Cent=           0 NGrid=           0
         NMat0=    3 NMatS0=      3 NMatT0=    0 NMatD0=    3 NMtDS0=    0 NMtDT0=    0
 Symmetry not used in FoFCou.
      3 vectors produced by pass  1 Test12= 1.63D-13 3.33D-08 XBig12= 3.33D+00 5.08D-01.
      3 vectors produced by pass  2 Test12= 1.63D-13 3.33D-08 XBig12= 5.92D-01 1.42D-01.
      3 vectors produced by pass  3 Test12= 1.63D-13 3.33D-08 XBig12= 3.14D-02 3.67D-02.
      3 vectors produced by pass  4 Test12= 1.63D-13 3.33D-08 XBig12= 2.23D-03 1.12D-02.
      3 vectors produced by pass  5 Test12= 1.63D-13 3.33D-08 XBig12= 3.87D-04 4.46D-03.
      3 vectors produced by pass  6 Test12= 1.63D-13 3.33D-08 XBig12= 2.42D-05 7.94D-04.
      3 vectors produced by pass  7 Test12= 1.63D-13 3.33D-08 XBig12= 6.91D-07 1.14D-04.
      3 vectors produced by pass  8 Test12= 1.63D-13 3.33D-08 XBig12= 1.92D-08 2.42D-05.
      3 vectors produced by pass  9 Test12= 1.63D-13 3.33D-08 XBig12= 4.37D-10 4.61D-06.
      3 vectors produced by pass 10 Test12= 1.63D-13 3.33D-08 XBig12= 1.35D-11 6.99D-07.
      2 vectors produced by pass 11 Test12= 1.63D-13 3.33D-08 XBig12= 2.45D-13 8.47D-08.
 InvSVY:  IOpt=1 It=  1 EMax= 1.78D-15
 Solved reduced A of dimension    35 with     3 vectors.
 FullF1:  Do perturbations      1 to       3.
 SCF Polarizability for W=    0.000000:
                1             2             3 
      1  0.460727D+02
      2  0.438413D+00  0.456382D+02
      3  0.873946D-03 -0.848598D-03  0.342945D+02
 Isotropic polarizability for W=    0.000000       42.00 Bohr**3.
 SCF Static Hyperpolarizability:
 K=  1 block:
                1 
      1 -0.291452D+01
 K=  2 block:
                1             2 
      1  0.202086D+02
      2 -0.154523D+02  0.831052D+02
 K=  3 block:
                1             2             3 
      1 -0.725297D-02
      2  0.718822D-02 -0.136728D-01
      3  0.764735D+01  0.889832D+01 -0.331435D-02
 End of Minotr F.D. properties file   721 does not exist.
 End of Minotr F.D. properties file   722 does not exist.
 End of Minotr F.D. properties file   788 does not exist.
 Leave Link 1002 at Mon Feb 10 12:27:15 2020, MaxMem=  2684354560 cpu:            1836.0 elap:             229.5
 (Enter /opt/software/Gaussian16/bin/avx/g16/l601.exe)
 Copying SCF densities to generalized density rwf, IOpCl= 0 IROHF=0.

 **********************************************************************

            Population analysis using the SCF Density.

 **********************************************************************

 Alpha  occ. eigenvalues --  -19.25528 -10.38275 -10.30576 -10.28164  -1.14553
 Alpha  occ. eigenvalues --   -0.89025  -0.76846  -0.65526  -0.58231  -0.55952
 Alpha  occ. eigenvalues --   -0.52952  -0.46923  -0.46921  -0.45529  -0.43477
 Alpha  occ. eigenvalues --   -0.34566
 Alpha virt. eigenvalues --    0.02843   0.03854   0.03879   0.04284   0.04871
 Alpha virt. eigenvalues --    0.06150   0.06840   0.09322   0.10475   0.10732
 Alpha virt. eigenvalues --    0.11467   0.11640   0.12687   0.13487   0.13640
 Alpha virt. eigenvalues --    0.14988   0.15086   0.17090   0.19130   0.20021
 Alpha virt. eigenvalues --    0.21155   0.21323   0.23195   0.23306   0.24154
 Alpha virt. eigenvalues --    0.25198   0.26363   0.27088   0.28059   0.29507
 Alpha virt. eigenvalues --    0.29916   0.32223   0.32976   0.33311   0.33498
 Alpha virt. eigenvalues --    0.34281   0.34289   0.35805   0.36159   0.37537
 Alpha virt. eigenvalues --    0.38356   0.38630   0.39149   0.39403   0.40735
 Alpha virt. eigenvalues --    0.40770   0.41309   0.42238   0.42962   0.46288
 Alpha virt. eigenvalues --    0.46607   0.48347   0.48448   0.49687   0.50077
 Alpha virt. eigenvalues --    0.50257   0.50288   0.50911   0.52673   0.54872
 Alpha virt. eigenvalues --    0.55297   0.56209   0.58043   0.59568   0.65140
 Alpha virt. eigenvalues --    0.65207   0.66319   0.68498   0.69683   0.70314
 Alpha virt. eigenvalues --    0.72733   0.75280   0.75903   0.76735   0.76965
 Alpha virt. eigenvalues --    0.78384   0.78611   0.79538   0.80761   0.81016
 Alpha virt. eigenvalues --    0.83247   0.83905   0.84285   0.85578   0.87333
 Alpha virt. eigenvalues --    0.88923   0.90729   0.91198   0.92120   0.94091
 Alpha virt. eigenvalues --    0.94596   0.95655   0.96590   0.97517   0.98192
 Alpha virt. eigenvalues --    0.98495   0.99986   1.00917   1.02571   1.03371
 Alpha virt. eigenvalues --    1.04009   1.05434   1.07073   1.09738   1.10159
 Alpha virt. eigenvalues --    1.11721   1.12407   1.15022   1.16005   1.16492
 Alpha virt. eigenvalues --    1.18211   1.18455   1.21017   1.22132   1.23485
 Alpha virt. eigenvalues --    1.25124   1.28721   1.30350   1.30432   1.32222
 Alpha virt. eigenvalues --    1.34387   1.36628   1.36853   1.37721   1.41544
 Alpha virt. eigenvalues --    1.42626   1.42961   1.45463   1.45839   1.48669
 Alpha virt. eigenvalues --    1.49932   1.52000   1.52747   1.55150   1.56373
 Alpha virt. eigenvalues --    1.57865   1.58233   1.58886   1.60382   1.62546
 Alpha virt. eigenvalues --    1.63969   1.65269   1.66056   1.67779   1.70058
 Alpha virt. eigenvalues --    1.71254   1.71349   1.75366   1.77290   1.77809
 Alpha virt. eigenvalues --    1.77977   1.81116   1.83468   1.83640   1.87177
 Alpha virt. eigenvalues --    1.87478   1.90603   1.93742   1.97446   2.02324
 Alpha virt. eigenvalues --    2.03899   2.07254   2.08385   2.11167   2.11474
 Alpha virt. eigenvalues --    2.14071   2.14573   2.16168   2.21267   2.21312
 Alpha virt. eigenvalues --    2.27398   2.29343   2.32061   2.33226   2.35117
 Alpha virt. eigenvalues --    2.40957   2.41644   2.44882   2.45347   2.47047
 Alpha virt. eigenvalues --    2.53718   2.65207   2.66536   2.71719   2.75990
 Alpha virt. eigenvalues --    2.76794   2.83246   2.94369   2.98758   3.02638
 Alpha virt. eigenvalues --    3.06854   3.10472   3.12652   3.14306   3.15960
 Alpha virt. eigenvalues --    3.21754   3.25271   3.26307   3.27926   3.29437
 Alpha virt. eigenvalues --    3.33084   3.35691   3.36983   3.42678   3.43858
 Alpha virt. eigenvalues --    3.44425   3.47200   3.47470   3.49655   3.55021
 Alpha virt. eigenvalues --    3.56381   3.58254   3.59332   3.62310   3.62498
 Alpha virt. eigenvalues --    3.68717   3.69439   3.71859   3.74723   3.74898
 Alpha virt. eigenvalues --    3.76948   3.79929   3.81730   3.85817   3.89260
 Alpha virt. eigenvalues --    3.92454   3.93413   3.94787   3.95810   3.98206
 Alpha virt. eigenvalues --    3.99415   4.04202   4.05239   4.11739   4.12103
 Alpha virt. eigenvalues --    4.12244   4.22493   4.24591   4.24876   4.32046
 Alpha virt. eigenvalues --    4.34148   4.38028   4.40567   4.46690   4.48852
 Alpha virt. eigenvalues --    4.51301   4.56637   4.56921   4.58073   4.58219
 Alpha virt. eigenvalues --    4.60782   4.62784   4.71800   4.76284   4.77635
 Alpha virt. eigenvalues --    4.81982   4.82039   4.85009   4.87868   4.89533
 Alpha virt. eigenvalues --    4.95987   4.97587   4.98863   5.00239   5.07453
 Alpha virt. eigenvalues --    5.08614   5.15718   5.16398   5.21756   5.22191
 Alpha virt. eigenvalues --    5.30401   5.33364   5.33443   5.44914   5.45415
 Alpha virt. eigenvalues --    5.48652   5.58367   5.64845   5.71698   5.77013
 Alpha virt. eigenvalues --    5.77742   5.84043   5.92056   5.92880   6.03834
 Alpha virt. eigenvalues --    6.09484   6.14145   6.32858   6.37762   6.41365
 Alpha virt. eigenvalues --    6.48604   6.53027   6.61982   6.66490   6.80989
 Alpha virt. eigenvalues --    6.90522   6.91968   7.10383   7.20620   7.24811
 Alpha virt. eigenvalues --    7.36721   7.48447  14.44565  15.91238  17.35952
 Alpha virt. eigenvalues --   17.76497
          Condensed to atoms (all electrons):
               1          2          3          4          5          6
     1  O    8.636719  -0.051373  -0.004284   0.228150  -0.001557  -0.001560
     2  C   -0.051373   5.247028   0.088180   0.130666   0.421139   0.421161
     3  C   -0.004284   0.088180   5.564085   0.022919  -0.026891  -0.026951
     4  C    0.228150   0.130666   0.022919   5.321965  -0.018505  -0.018538
     5  H   -0.001557   0.421139  -0.026891  -0.018505   0.357921   0.017566
     6  H   -0.001560   0.421161  -0.026951  -0.018538   0.017566   0.358058
     7  H    0.014795   0.020869   0.371754  -0.022368  -0.001285  -0.000676
     8  H    0.014774   0.020892   0.371731  -0.022378  -0.000662  -0.001283
     9  H   -0.000824  -0.033707   0.435778   0.001714  -0.003616  -0.003621
    10  H   -0.138566  -0.022950   0.003931   0.328697  -0.005024  -0.005040
               7          8          9         10
     1  O    0.014795   0.014774  -0.000824  -0.138566
     2  C    0.020869   0.020892  -0.033707  -0.022950
     3  C    0.371754   0.371731   0.435778   0.003931
     4  C   -0.022368  -0.022378   0.001714   0.328697
     5  H   -0.001285  -0.000662  -0.003616  -0.005024
     6  H   -0.000676  -0.001283  -0.003621  -0.005040
     7  H    0.331761   0.011820   0.004680   0.001574
     8  H    0.011820   0.331757   0.004671   0.001573
     9  H    0.004680   0.004671   0.356093  -0.000485
    10  H    0.001574   0.001573  -0.000485   0.440831
 Mulliken charges:
               1
     1  O   -0.696274
     2  C   -0.241904
     3  C   -0.800253
     4  C    0.047678
     5  H    0.260915
     6  H    0.260884
     7  H    0.267075
     8  H    0.267105
     9  H    0.239316
    10  H    0.395459
 Sum of Mulliken charges =  -0.00000
 Mulliken charges with hydrogens summed into heavy atoms:
               1
     1  O   -0.696274
     2  C    0.279894
     3  C   -0.026757
     4  C    0.443137
 Electronic spatial extent (au):  <R**2>=            301.3340
 Charge=             -0.0000 electrons
 Dipole moment (field-independent basis, Debye):
    X=              1.6618    Y=              2.3477    Z=             -0.0002  Tot=              2.8764
 Quadrupole moment (field-independent basis, Debye-Ang):
   XX=            -27.3686   YY=            -25.2987   ZZ=            -24.2869
   XY=             -2.7425   XZ=              0.0005   YZ=              0.0001
 Traceless Quadrupole moment (field-independent basis, Debye-Ang):
   XX=             -1.7172   YY=              0.3527   ZZ=              1.3645
   XY=             -2.7425   XZ=              0.0005   YZ=              0.0001
 Octapole moment (field-independent basis, Debye-Ang**2):
  XXX=              0.9895  YYY=             -0.1116  ZZZ=              0.0005  XYY=             -0.4904
  XXY=              4.4491  XXZ=             -0.0003  XZZ=             -1.2957  YZZ=             -0.3401
  YYZ=             -0.0002  XYZ=              0.0002
 Hexadecapole moment (field-independent basis, Debye-Ang**3):
 XXXX=           -252.1260 YYYY=           -110.7549 ZZZZ=            -37.3354 XXXY=             -2.9604
 XXXZ=              0.0018 YYYX=              1.5727 YYYZ=             -0.0022 ZZZX=             -0.0004
 ZZZY=              0.0016 XXYY=            -60.4613 XXZZ=            -48.1223 YYZZ=            -22.2632
 XXYZ=             -0.0006 YYXZ=              0.0000 ZZXY=              1.4863
 N-N= 1.183176076802D+02 E-N=-6.871683488876D+02  KE= 1.918665136096D+02
  Exact polarizability:      46.073       0.438      45.638       0.001      -0.001      34.294
 Approx polarizability:      43.640       3.553      49.873       0.000      -0.001      38.116
 No NMR shielding tensors so no spin-rotation constants.
 Leave Link  601 at Mon Feb 10 12:27:15 2020, MaxMem=  2684354560 cpu:               1.7 elap:               0.3
 (Enter /opt/software/Gaussian16/bin/avx/g16/l9999.exe)

 ----------------------------------------------------------------------

 Electric dipole moment (input orientation):
 (Debye = 10**-18 statcoulomb cm , SI units = C m)
                  (au)            (Debye)         (10**-30 SI)
   Tot        0.113165D+01      0.287637D+01      0.959455D+01
   x          0.653812D+00      0.166182D+01      0.554325D+01
   y          0.923671D+00      0.234774D+01      0.783121D+01
   z         -0.697540D-04     -0.177297D-03     -0.591399D-03

 Dipole polarizability, Alpha (input orientation).
 (esu units = cm**3 , SI units = C**2 m**2 J**-1)
 Alpha(0;0):
               (au)            (10**-24 esu)      (10**-40 SI)
   iso        0.420018D+02      0.622402D+01      0.692516D+01
   aniso      0.115920D+02      0.171776D+01      0.191127D+01
   xx         0.460727D+02      0.682727D+01      0.759637D+01
   yx         0.438413D+00      0.649661D-01      0.722846D-01
   yy         0.456382D+02      0.676289D+01      0.752473D+01
   zx         0.873946D-03      0.129505D-03      0.144094D-03
   zy        -0.848598D-03     -0.125749D-03     -0.139915D-03
   zz         0.342945D+02      0.508192D+01      0.565439D+01

 First dipole hyperpolarizability, Beta (input orientation).
 ||, _|_  parallel and perpendicular components, (z) with respect to z axis,
 vector components x,y,z.  Values do not include the 1/n! factor of 1/2.
 (esu units = statvolt**-1 cm**4 , SI units = C**3 m**3 J**-2)
 Beta(0;0,0):
               (au)            (10**-30 esu)      (10**-50 SI)
   || (z)    -0.145441D-01     -0.125649D-03     -0.466336D-04
   _|_(z)    -0.484803D-02     -0.418832D-04     -0.155445D-04
   x         -0.321584D+02     -0.277823D+00     -0.103111D+00
   y          0.336636D+03      0.290828D+01      0.107938D+01
   z         -0.727204D-01     -0.628247D-03     -0.233168D-03
   ||         0.676338D+02      0.584303D+00      0.216858D+00
   xxx       -0.291452D+01     -0.251792D-01     -0.934501D-02
   xxy        0.202086D+02      0.174586D+00      0.647960D-01
   yxy       -0.154523D+02     -0.133496D+00     -0.495456D-01
   yyy        0.831052D+02      0.717965D+00      0.266465D+00
   xxz       -0.725297D-02     -0.626600D-04     -0.232556D-04
   yxz        0.718822D-02      0.621006D-04      0.230480D-04
   yyz       -0.136728D-01     -0.118122D-03     -0.438400D-04
   zxz        0.764735D+01      0.660671D-01      0.245202D-01
   zyz        0.889832D+01      0.768746D-01      0.285312D-01
   zzz       -0.331435D-02     -0.286334D-04     -0.106270D-04

 ----------------------------------------------------------------------

 Dipole orientation:
     8         -1.13923943          0.80643138         -2.58847552
     6          0.04129096         -0.02958835          1.74402667
     6          2.24481894         -1.58887894          0.75539657
     6         -1.54973890          1.09722739         -0.33040350
     1         -1.21693952         -1.16073046          2.94794087
     1          0.68922462          1.53243418          2.94910988
     1          3.48964686         -0.43116615         -0.41380184
     1          1.56722990         -3.14712424         -0.41492076
     1          3.34681737         -2.36952266          2.31721815
     1         -3.18029188          2.25208059          0.30814749

 Electric dipole moment (dipole orientation):
 (Debye = 10**-18 statcoulomb cm , SI units = C m)
                  (au)            (Debye)         (10**-30 SI)
   Tot        0.113165D+01      0.287637D+01      0.959455D+01
   x          0.000000D+00      0.000000D+00      0.000000D+00
   y          0.000000D+00      0.000000D+00      0.000000D+00
   z          0.113165D+01      0.287637D+01      0.959455D+01

 Dipole polarizability, Alpha (dipole orientation).
 (esu units = cm**3 , SI units = C**2 m**2 J**-1)
 Alpha(0;0):
               (au)            (10**-24 esu)      (10**-40 SI)
   iso        0.420018D+02      0.622402D+01      0.692516D+01
   aniso      0.115920D+02      0.171776D+01      0.191127D+01
   xx         0.417680D+02      0.618937D+01      0.688661D+01
   yx        -0.529127D+01     -0.784085D+00     -0.872413D+00
   yy         0.380407D+02      0.563705D+01      0.627207D+01
   zx         0.285877D+00      0.423626D-01      0.471347D-01
   zy        -0.203024D+00     -0.300851D-01     -0.334742D-01
   zz         0.461967D+02      0.684565D+01      0.761681D+01

 First dipole hyperpolarizability, Beta (dipole orientation).
 ||, _|_  parallel and perpendicular components, (z) with respect to z axis,
 vector components x,y,z.  Values do not include the 1/n! factor of 1/2.
 (esu units = statvolt**-1 cm**4 , SI units = C**3 m**3 J**-2)
 Beta(0;0,0):
               (au)            (10**-30 esu)      (10**-50 SI)
   || (z)     0.512376D+02      0.442653D+00      0.164286D+00
   _|_(z)     0.170792D+02      0.147551D+00      0.547621D-01
   x         -0.180138D+03     -0.155625D+01     -0.577587D+00
   y          0.127579D+03      0.110218D+01      0.409064D+00
   z          0.256188D+03      0.221326D+01      0.821431D+00
   ||         0.676338D+02      0.584303D+00      0.216858D+00
   xxx       -0.282165D+02     -0.243768D+00     -0.904722D-01
   xxy        0.212570D+02      0.183644D+00      0.681575D-01
   yxy       -0.146058D+02     -0.126183D+00     -0.468315D-01
   yyy        0.907332D+01      0.783864D-01      0.290923D-01
   xxz        0.241562D+02      0.208691D+00      0.774536D-01
   yxz       -0.883438D+01     -0.763222D-01     -0.283262D-01
   yyz        0.179374D+02      0.154965D+00      0.575138D-01
   zxz       -0.172237D+02     -0.148800D+00     -0.552255D-01
   zyz        0.121960D+02      0.105364D+00      0.391047D-01
   zzz        0.433024D+02      0.374099D+00      0.138843D+00

 ----------------------------------------------------------------------
 Unable to Open any file for archive entry.
 1\1\GINC-G2-NODE38\SP\RwB97XD\Aug-CC-pVTZ\C3H6O1\LIUCHW\10-Feb-2020\0\
 \#p wB97XD/aug-cc-pvtz NoSymm MaxDisk=100GB Polar\\Polar\\0,1\O,0,-1.3
 94247,-0.691285,0.000071\C,0,0.555145,0.737753,0.000099\C,0,1.418832,-
 0.51456,-0.000066\C,0,-0.921166,0.437828,-0.000101\H,0,0.761942,1.3719
 75,0.873306\H,0,0.762178,1.372434,-0.872706\H,0,1.211293,-1.12575,-0.8
 80653\H,0,1.211031,-1.126157,0.880173\H,0,2.479634,-0.252861,0.000144\
 H,0,-1.588962,1.324514,-0.000416\\Version=ES64L-G16RevC.01\HF=-193.155
 3126\RMSD=4.642e-09\Dipole=0.653812,0.9236708,-0.0000698\Polar=46.0727
 25,0.4384131,45.6382151,0.0008739,-0.0008486,34.2944663\HyperPolar=-2.
 9145206,20.2085758,-15.4522799,83.1052451,-0.007253,0.0071882,-0.01367
 28,7.6473472,8.8983244,-0.0033143\Quadrupole=-1.2767148,0.2622402,1.01
 44747,-2.0389584,0.0003805,0.0000389\PG=C01 [X(C3H6O1)]\\@
 The archive entry for this job was punched.


 BETTER TO HUNT IN FIELDS, FOR HEALTH UNBOUGHT
 THAN FEE THE DOCTOR FOR A NAUSEOUS DRAUGHT.
 THE WISE, FOR CURE, ON EXERCISE DEPEND;
 GOD NEVER MADE HIS WORK FOR MAN TO MEND.
     -- JOHN DRYDEN (1631-1700)
 Job cpu time:       0 days  0 hours 46 minutes 26.4 seconds.
 Elapsed time:       0 days  0 hours  5 minutes 48.7 seconds.
 File lengths (MBytes):  RWF=     58 Int=      0 D2E=      0 Chk=      8 Scr=      1
 Normal termination of Gaussian 16 at Mon Feb 10 12:27:15 2020.
