 Entering Gaussian System, Link 0=g16
 Input=159_PropionaldehydeOxime.com
 Output=159_PropionaldehydeOxime.out
 Initial command:
 /opt/software/Gaussian16/bin/avx/g16/l1.exe "/scratch/liuchw/Gau-13447.inp" -scrdir="/scratch/liuchw/"
 Entering Link 1 = /opt/software/Gaussian16/bin/avx/g16/l1.exe PID=     13448.
  
 Copyright (c) 1988-2019, Gaussian, Inc.  All Rights Reserved.
  
 This is part of the Gaussian(R) 16 program.  It is based on
 the Gaussian(R) 09 system (copyright 2009, Gaussian, Inc.),
 the Gaussian(R) 03 system (copyright 2003, Gaussian, Inc.),
 the Gaussian(R) 98 system (copyright 1998, Gaussian, Inc.),
 the Gaussian(R) 94 system (copyright 1995, Gaussian, Inc.),
 the Gaussian 92(TM) system (copyright 1992, Gaussian, Inc.),
 the Gaussian 90(TM) system (copyright 1990, Gaussian, Inc.),
 the Gaussian 88(TM) system (copyright 1988, Gaussian, Inc.),
 the Gaussian 86(TM) system (copyright 1986, Carnegie Mellon
 University), and the Gaussian 82(TM) system (copyright 1983,
 Carnegie Mellon University). Gaussian is a federally registered
 trademark of Gaussian, Inc.
  
 This software contains proprietary and confidential information,
 including trade secrets, belonging to Gaussian, Inc.
  
 This software is provided under written license and may be
 used, copied, transmitted, or stored only in accord with that
 written license.
  
 The following legend is applicable only to US Government
 contracts under FAR:
  
                    RESTRICTED RIGHTS LEGEND
  
 Use, reproduction and disclosure by the US Government is
 subject to restrictions as set forth in subparagraphs (a)
 and (c) of the Commercial Computer Software - Restricted
 Rights clause in FAR 52.227-19.
  
 Gaussian, Inc.
 340 Quinnipiac St., Bldg. 40, Wallingford CT 06492
  
  
 ---------------------------------------------------------------
 Warning -- This program may not be used in any manner that
 competes with the business of Gaussian, Inc. or will provide
 assistance to any competitor of Gaussian, Inc.  The licensee
 of this program is prohibited from giving any competitor of
 Gaussian, Inc. access to this program.  By using this program,
 the user acknowledges that Gaussian, Inc. is engaged in the
 business of creating and licensing software in the field of
 computational chemistry and represents and warrants to the
 licensee that it is not a competitor of Gaussian, Inc. and that
 it will not use this program in any manner prohibited above.
 ---------------------------------------------------------------
  

 Cite this work as:
 Gaussian 16, Revision C.01,
 M. J. Frisch, G. W. Trucks, H. B. Schlegel, G. E. Scuseria, 
 M. A. Robb, J. R. Cheeseman, G. Scalmani, V. Barone, 
 G. A. Petersson, H. Nakatsuji, X. Li, M. Caricato, A. V. Marenich, 
 J. Bloino, B. G. Janesko, R. Gomperts, B. Mennucci, H. P. Hratchian, 
 J. V. Ortiz, A. F. Izmaylov, J. L. Sonnenberg, D. Williams-Young, 
 F. Ding, F. Lipparini, F. Egidi, J. Goings, B. Peng, A. Petrone, 
 T. Henderson, D. Ranasinghe, V. G. Zakrzewski, J. Gao, N. Rega, 
 G. Zheng, W. Liang, M. Hada, M. Ehara, K. Toyota, R. Fukuda, 
 J. Hasegawa, M. Ishida, T. Nakajima, Y. Honda, O. Kitao, H. Nakai, 
 T. Vreven, K. Throssell, J. A. Montgomery, Jr., J. E. Peralta, 
 F. Ogliaro, M. J. Bearpark, J. J. Heyd, E. N. Brothers, K. N. Kudin, 
 V. N. Staroverov, T. A. Keith, R. Kobayashi, J. Normand, 
 K. Raghavachari, A. P. Rendell, J. C. Burant, S. S. Iyengar, 
 J. Tomasi, M. Cossi, J. M. Millam, M. Klene, C. Adamo, R. Cammi, 
 J. W. Ochterski, R. L. Martin, K. Morokuma, O. Farkas, 
 J. B. Foresman, and D. J. Fox, Gaussian, Inc., Wallingford CT, 2019.
 
 ******************************************
 Gaussian 16:  ES64L-G16RevC.01  3-Jul-2019
                10-Feb-2020 
 ******************************************
 %chk=159_PropionaldehydeOxime.chk
 %nproc=8
 Will use up to    8 processors via shared memory.
 %Mem=20GB
 ------------------------------------------------
 #p wB97XD/aug-cc-pvtz NoSymm MaxDisk=100GB Polar
 ------------------------------------------------
 1/38=1,172=1/1;
 2/12=2,15=1,17=6,18=5,40=1/2;
 3/5=16,6=1,7=10,11=2,25=1,30=1,74=-58/1,2,3;
 4//1;
 5/5=2,38=5,98=1/2;
 8/6=4,10=90,11=11/1;
 10/6=1,13=10,31=1/2;
 6/7=2,8=2,9=2,10=2,28=1/1;
 99/5=1,9=1/99;
 Leave Link    1 at Mon Feb 10 13:53:39 2020, MaxMem=  2684354560 cpu:               0.5 elap:               0.1
 (Enter /opt/software/Gaussian16/bin/avx/g16/l101.exe)
 -----
 Polar
 -----
 Symbolic Z-matrix:
 Charge =  0 Multiplicity = 1
 O                     2.31138  -0.33746   0.05585 
 N                     1.13601   0.33439  -0.36436 
 C                    -1.19879   0.60239   0.13401 
 C                    -2.22298  -0.48476  -0.20389 
 C                     0.15261   0.02453   0.40433 
 H                    -1.53349   1.16123   1.01674 
 H                    -1.10791   1.31618  -0.69023 
 H                    -1.92663  -1.02207  -1.10847 
 H                    -2.30962  -1.21147   0.60929 
 H                    -3.21106  -0.04775  -0.37212 
 H                     0.29805  -0.6713    1.23523 
 H                     2.96262  -0.01888  -0.5934 
 
 ITRead=  0  0  0  0  0  0  0  0  0  0  0  0
 MicOpt= -1 -1 -1 -1 -1 -1 -1 -1 -1 -1 -1 -1
 NAtoms=     12 NQM=       12 NQMF=       0 NMMI=      0 NMMIF=      0
                NMic=       0 NMicF=      0.
                    Isotopes and Nuclear Properties:
 (Nuclear quadrupole moments (NQMom) in fm**2, nuclear magnetic moments (NMagM)
  in nuclear magnetons)

  Atom         1           2           3           4           5           6           7           8           9          10
 IAtWgt=          16          14          12          12          12           1           1           1           1           1
 AtmWgt=  15.9949146  14.0030740  12.0000000  12.0000000  12.0000000   1.0078250   1.0078250   1.0078250   1.0078250   1.0078250
 NucSpn=           0           2           0           0           0           1           1           1           1           1
 AtZEff=  -0.0000000  -0.0000000  -0.0000000  -0.0000000  -0.0000000  -0.0000000  -0.0000000  -0.0000000  -0.0000000  -0.0000000
 NQMom=    0.0000000   2.0440000   0.0000000   0.0000000   0.0000000   0.0000000   0.0000000   0.0000000   0.0000000   0.0000000
 NMagM=    0.0000000   0.4037610   0.0000000   0.0000000   0.0000000   2.7928460   2.7928460   2.7928460   2.7928460   2.7928460
 AtZNuc=   8.0000000   7.0000000   6.0000000   6.0000000   6.0000000   1.0000000   1.0000000   1.0000000   1.0000000   1.0000000

  Atom        11          12
 IAtWgt=           1           1
 AtmWgt=   1.0078250   1.0078250
 NucSpn=           1           1
 AtZEff=  -0.0000000  -0.0000000
 NQMom=    0.0000000   0.0000000
 NMagM=    2.7928460   2.7928460
 AtZNuc=   1.0000000   1.0000000
 Leave Link  101 at Mon Feb 10 13:53:39 2020, MaxMem=  2684354560 cpu:               1.1 elap:               0.2
 (Enter /opt/software/Gaussian16/bin/avx/g16/l202.exe)
                          Input orientation:                          
 ---------------------------------------------------------------------
 Center     Atomic      Atomic             Coordinates (Angstroms)
 Number     Number       Type             X           Y           Z
 ---------------------------------------------------------------------
      1          8           0        2.311377   -0.337458    0.055847
      2          7           0        1.136009    0.334394   -0.364356
      3          6           0       -1.198792    0.602393    0.134009
      4          6           0       -2.222984   -0.484757   -0.203887
      5          6           0        0.152605    0.024526    0.404325
      6          1           0       -1.533492    1.161230    1.016740
      7          1           0       -1.107908    1.316178   -0.690232
      8          1           0       -1.926632   -1.022070   -1.108471
      9          1           0       -2.309621   -1.211471    0.609288
     10          1           0       -3.211064   -0.047754   -0.372117
     11          1           0        0.298047   -0.671298    1.235229
     12          1           0        2.962618   -0.018878   -0.593399
 ---------------------------------------------------------------------
                    Distance matrix (angstroms):
                    1          2          3          4          5
     1  O    0.000000
     2  N    1.417549   0.000000
     3  C    3.634655   2.402392   0.000000
     4  C    4.544182   3.461155   1.531352   0.000000
     5  C    2.216476   1.286068   1.494415   2.504539   0.000000
     6  H    4.237027   3.117262   1.097058   2.162083   2.123693
     7  H    3.870744   2.470882   1.094131   2.173314   2.110761
     8  H    4.448039   3.431249   2.170803   1.093070   2.776174
     9  H    4.735379   3.900006   2.179434   1.094017   2.762654
    10  H    5.546570   4.363845   2.174418   1.093424   3.452876
    11  H    2.357093   2.066947   2.252887   2.908857   1.093493
    12  H    0.973205   1.874503   4.269945   5.221037   2.982199
                    6          7          8          9         10
     6  H    0.000000
     7  H    1.766036   0.000000
     8  H    3.072113   2.512496   0.000000
     9  H    2.529447   3.085754   1.770099   0.000000
    10  H    2.490946   2.526811   1.772364   1.769178   0.000000
    11  H    2.600083   3.103896   3.250410   2.735603   3.909761
    12  H    4.919371   4.284966   5.017615   5.537620   6.177714
                   11         12
    11  H    0.000000
    12  H    3.296888   0.000000
 Symmetry turned off by external request.
 Stoichiometry    C3H7NO
 Framework group  C1[X(C3H7NO)]
 Deg. of freedom    30
 Full point group                 C1      NOp   1
 Rotational constants (GHZ):          19.1435225           2.2812911           2.2123580
 Leave Link  202 at Mon Feb 10 13:53:39 2020, MaxMem=  2684354560 cpu:               0.1 elap:               0.0
 (Enter /opt/software/Gaussian16/bin/avx/g16/l301.exe)
 Standard basis: Aug-CC-pVTZ (5D, 7F)
 Ernie: Thresh=  0.10000D-02 Tol=  0.10000D-05 Strict=F.
 Ernie:  15 primitive shells out of 227 were deleted.
   391 basis functions,   549 primitive gaussians,   450 cartesian basis functions
    20 alpha electrons       20 beta electrons
       nuclear repulsion energy       170.6476057997 Hartrees.
 IExCor= 4639 DFT=T Ex+Corr=wB97XD ExCW=0 ScaHFX=  1.000000
 ScaDFX=  1.000000  1.000000  1.000000  1.000000 ScalE2=  1.000000  1.000000
 IRadAn=      5 IRanWt=     -1 IRanGd=            0 ICorTp=0 IEmpDi=121
 HFx  wShort=  0.000000 wLong=  0.200000 cFull=  0.222036 cShort=  0.000000 cLong=  0.777964
 DFx  wShort=  0.000000 wLong=  0.200000 cFull=  0.000000 cShort=  0.000000 cLong=  1.000000
 NAtoms=   12 NActive=   12 NUniq=   12 SFac= 1.00D+00 NAtFMM=   60 NAOKFM=F Big=F
 Integral buffers will be    131072 words long.
 Raffenetti 2 integral format.
 Two-electron integral symmetry is turned off.
 R6Disp:  Grimme-D2 Dispersion energy=       -0.0040678546 Hartrees.
 Nuclear repulsion after empirical dispersion term =      170.6435379451 Hartrees.
 Leave Link  301 at Mon Feb 10 13:53:39 2020, MaxMem=  2684354560 cpu:               0.7 elap:               0.1
 (Enter /opt/software/Gaussian16/bin/avx/g16/l302.exe)
 NPDir=0 NMtPBC=     1 NCelOv=     1 NCel=       1 NClECP=     1 NCelD=      1
         NCelK=      1 NCelE2=     1 NClLst=     1 CellRange=     0.0.
 One-electron integrals computed using PRISM.
 NBasis=   391 RedAO= T EigKep=  1.13D-05  NBF=   391
 NBsUse=   391 1.00D-06 EigRej= -1.00D+00 NBFU=   391
 Precomputing XC quadrature grid using
 IXCGrd= 4 IRadAn=           5 IRanWt=          -1 IRanGd=           0 AccXCQ= 0.00D+00.
 Generated NRdTot=       0 NPtTot=           0 NUsed=           0 NTot=          32
 NSgBfM=   450   450   450   450   450 MxSgAt=    12 MxSgA2=    12.
 Leave Link  302 at Mon Feb 10 13:53:40 2020, MaxMem=  2684354560 cpu:               3.0 elap:               0.4
 (Enter /opt/software/Gaussian16/bin/avx/g16/l303.exe)
 DipDrv:  MaxL=1.
 Leave Link  303 at Mon Feb 10 13:53:40 2020, MaxMem=  2684354560 cpu:               0.5 elap:               0.1
 (Enter /opt/software/Gaussian16/bin/avx/g16/l401.exe)
 ExpMin= 2.53D-02 ExpMax= 1.53D+04 ExpMxC= 5.22D+02 IAcc=3 IRadAn=         5 AccDes= 0.00D+00
 Harris functional with IExCor= 4639 and IRadAn=       5 diagonalized for initial guess.
 HarFok:  IExCor= 4639 AccDes= 0.00D+00 IRadAn=         5 IDoV= 1 UseB2=F ITyADJ=14
 ICtDFT=  3500011 ScaDFX=  1.000000  1.000000  1.000000  1.000000
 FoFCou: FMM=F IPFlag=           0 FMFlag=      100000 FMFlg1=           0
         NFxFlg=           0 DoJE=T BraDBF=F KetDBF=T FulRan=T
         wScrn=  0.000000 ICntrl=       500 IOpCl=  0 I1Cent=   200000004 NGrid=           0
         NMat0=    1 NMatS0=      1 NMatT0=    0 NMatD0=    1 NMtDS0=    0 NMtDT0=    0
 Symmetry not used in FoFCou.
 Harris En= -237.933230833446    
 JPrj=0 DoOrth=F DoCkMO=F.
 Leave Link  401 at Mon Feb 10 13:53:42 2020, MaxMem=  2684354560 cpu:              19.7 elap:               2.5
 (Enter /opt/software/Gaussian16/bin/avx/g16/l502.exe)
 Two-electron integral symmetry not used.
 Closed shell SCF:
 Using DIIS extrapolation, IDIIS=  1040.
 NGot=  2684354560 LenX=  2683942896 LenY=  2683739946
 Requested convergence on RMS density matrix=1.00D-08 within 128 cycles.
 Requested convergence on MAX density matrix=1.00D-06.
 Requested convergence on             energy=1.00D-06.
 No special actions if energy rises.
 Fock matrices will be formed incrementally for  20 cycles.

 Cycle   1  Pass 1  IDiag  1:
 FoFJK:  IHMeth= 1 ICntrl=       0 DoSepK=T KAlg= 0 I1Cent=           0 FoldK=F
 IRaf=         1 NMat=       1 IRICut=       1 DoRegI=T DoRafI=F ISym2E= 0 IDoP0=0 IntGTp=1.
 FoFCou: FMM=F IPFlag=           0 FMFlag=      100000 FMFlg1=           0
         NFxFlg=           0 DoJE=T BraDBF=F KetDBF=F FulRan=T
         wScrn=  0.000000 ICntrl=       500 IOpCl=  0 I1Cent=           0 NGrid=           0
         NMat0=    1 NMatS0=      1 NMatT0=    0 NMatD0=    1 NMtDS0=    0 NMtDT0=    0
 Symmetry not used in FoFCou.
 E= -248.322820041387    
 DIIS: error= 3.18D-02 at cycle   1 NSaved=   1.
 NSaved= 1 IEnMin= 1 EnMin= -248.322820041387     IErMin= 1 ErrMin= 3.18D-02
 ErrMax= 3.18D-02  0.00D+00 EMaxC= 1.00D-01 BMatC= 5.19D-01 BMatP= 5.19D-01
 IDIUse=3 WtCom= 6.82D-01 WtEn= 3.18D-01
 Coeff-Com:  0.100D+01
 Coeff-En:   0.100D+01
 Coeff:      0.100D+01
 Gap=     0.467 Goal=   None    Shift=    0.000
 GapD=    0.467 DampG=2.000 DampE=0.500 DampFc=1.0000 IDamp=-1.
 RMSDP=2.18D-03 MaxDP=1.21D-01              OVMax= 1.95D-01

 Cycle   2  Pass 1  IDiag  1:
 RMSU=  2.13D-03    CP:  9.38D-01
 E= -248.314539564586     Delta-E=        0.008280476801 Rises=F Damp=F
 DIIS: error= 1.24D-02 at cycle   2 NSaved=   2.
 NSaved= 2 IEnMin= 1 EnMin= -248.322820041387     IErMin= 2 ErrMin= 1.24D-02
 ErrMax= 1.24D-02  0.00D+00 EMaxC= 1.00D-01 BMatC= 1.98D-01 BMatP= 5.19D-01
 IDIUse=3 WtCom= 8.76D-01 WtEn= 1.24D-01
 Coeff-Com:  0.348D+00 0.652D+00
 Coeff-En:   0.516D+00 0.484D+00
 Coeff:      0.369D+00 0.631D+00
 Gap=     0.490 Goal=   None    Shift=    0.000
 RMSDP=1.05D-03 MaxDP=6.20D-02 DE= 8.28D-03 OVMax= 1.92D-01

 Cycle   3  Pass 1  IDiag  1:
 RMSU=  7.53D-04    CP:  9.64D-01  6.69D-01
 E= -248.427940737361     Delta-E=       -0.113401172775 Rises=F Damp=F
 DIIS: error= 6.47D-03 at cycle   3 NSaved=   3.
 NSaved= 3 IEnMin= 3 EnMin= -248.427940737361     IErMin= 3 ErrMin= 6.47D-03
 ErrMax= 6.47D-03  0.00D+00 EMaxC= 1.00D-01 BMatC= 4.31D-02 BMatP= 1.98D-01
 IDIUse=3 WtCom= 9.35D-01 WtEn= 6.47D-02
 Coeff-Com:  0.313D-01 0.321D+00 0.648D+00
 Coeff-En:   0.000D+00 0.189D+00 0.811D+00
 Coeff:      0.293D-01 0.313D+00 0.658D+00
 Gap=     0.370 Goal=   None    Shift=    0.000
 RMSDP=3.61D-04 MaxDP=1.73D-02 DE=-1.13D-01 OVMax= 8.49D-02

 Cycle   4  Pass 1  IDiag  1:
 RMSU=  1.70D-04    CP:  9.56D-01  7.67D-01  6.91D-01
 E= -248.461788572718     Delta-E=       -0.033847835357 Rises=F Damp=F
 DIIS: error= 1.12D-03 at cycle   4 NSaved=   4.
 NSaved= 4 IEnMin= 4 EnMin= -248.461788572718     IErMin= 4 ErrMin= 1.12D-03
 ErrMax= 1.12D-03  0.00D+00 EMaxC= 1.00D-01 BMatC= 9.96D-04 BMatP= 4.31D-02
 IDIUse=3 WtCom= 9.89D-01 WtEn= 1.12D-02
 Coeff-Com:  0.475D-02 0.931D-01 0.253D+00 0.649D+00
 Coeff-En:   0.000D+00 0.000D+00 0.000D+00 0.100D+01
 Coeff:      0.470D-02 0.921D-01 0.250D+00 0.653D+00
 Gap=     0.373 Goal=   None    Shift=    0.000
 RMSDP=7.40D-05 MaxDP=4.53D-03 DE=-3.38D-02 OVMax= 8.67D-03

 Cycle   5  Pass 1  IDiag  1:
 RMSU=  6.26D-05    CP:  9.57D-01  7.66D-01  7.29D-01  8.47D-01
 E= -248.462619981149     Delta-E=       -0.000831408431 Rises=F Damp=F
 DIIS: error= 2.58D-04 at cycle   5 NSaved=   5.
 NSaved= 5 IEnMin= 5 EnMin= -248.462619981149     IErMin= 5 ErrMin= 2.58D-04
 ErrMax= 2.58D-04  0.00D+00 EMaxC= 1.00D-01 BMatC= 6.33D-05 BMatP= 9.96D-04
 IDIUse=3 WtCom= 9.97D-01 WtEn= 2.58D-03
 Coeff-Com: -0.128D-02-0.687D-02 0.126D-01 0.211D+00 0.784D+00
 Coeff-En:   0.000D+00 0.000D+00 0.000D+00 0.000D+00 0.100D+01
 Coeff:     -0.128D-02-0.685D-02 0.126D-01 0.211D+00 0.785D+00
 Gap=     0.372 Goal=   None    Shift=    0.000
 RMSDP=2.48D-05 MaxDP=1.24D-03 DE=-8.31D-04 OVMax= 2.54D-03

 Cycle   6  Pass 1  IDiag  1:
 RMSU=  1.78D-05    CP:  9.57D-01  7.64D-01  7.40D-01  9.33D-01  1.02D+00
 E= -248.462672907909     Delta-E=       -0.000052926759 Rises=F Damp=F
 DIIS: error= 1.29D-04 at cycle   6 NSaved=   6.
 NSaved= 6 IEnMin= 6 EnMin= -248.462672907909     IErMin= 6 ErrMin= 1.29D-04
 ErrMax= 1.29D-04  0.00D+00 EMaxC= 1.00D-01 BMatC= 1.45D-05 BMatP= 6.33D-05
 IDIUse=3 WtCom= 9.99D-01 WtEn= 1.29D-03
 Coeff-Com: -0.101D-02-0.121D-01-0.165D-01 0.405D-01 0.396D+00 0.593D+00
 Coeff-En:   0.000D+00 0.000D+00 0.000D+00 0.000D+00 0.000D+00 0.100D+01
 Coeff:     -0.101D-02-0.121D-01-0.165D-01 0.404D-01 0.395D+00 0.594D+00
 Gap=     0.372 Goal=   None    Shift=    0.000
 RMSDP=1.26D-05 MaxDP=1.41D-03 DE=-5.29D-05 OVMax= 1.08D-03

 Cycle   7  Pass 1  IDiag  1:
 RMSU=  1.02D-05    CP:  9.57D-01  7.63D-01  7.44D-01  9.58D-01  1.09D+00
                    CP:  1.01D+00
 E= -248.462684816181     Delta-E=       -0.000011908272 Rises=F Damp=F
 DIIS: error= 3.18D-05 at cycle   7 NSaved=   7.
 NSaved= 7 IEnMin= 7 EnMin= -248.462684816181     IErMin= 7 ErrMin= 3.18D-05
 ErrMax= 3.18D-05  0.00D+00 EMaxC= 1.00D-01 BMatC= 9.01D-07 BMatP= 1.45D-05
 IDIUse=1 WtCom= 1.00D+00 WtEn= 0.00D+00
 Coeff-Com: -0.127D-03-0.320D-02-0.759D-02-0.268D-01-0.309D-02 0.177D+00
 Coeff-Com:  0.863D+00
 Coeff:     -0.127D-03-0.320D-02-0.759D-02-0.268D-01-0.309D-02 0.177D+00
 Coeff:      0.863D+00
 Gap=     0.372 Goal=   None    Shift=    0.000
 RMSDP=5.59D-06 MaxDP=4.77D-04 DE=-1.19D-05 OVMax= 5.73D-04

 Cycle   8  Pass 1  IDiag  1:
 RMSU=  2.47D-06    CP:  9.57D-01  7.63D-01  7.45D-01  9.67D-01  1.13D+00
                    CP:  1.17D+00  1.22D+00
 E= -248.462686228433     Delta-E=       -0.000001412253 Rises=F Damp=F
 DIIS: error= 1.25D-05 at cycle   8 NSaved=   8.
 NSaved= 8 IEnMin= 8 EnMin= -248.462686228433     IErMin= 8 ErrMin= 1.25D-05
 ErrMax= 1.25D-05  0.00D+00 EMaxC= 1.00D-01 BMatC= 6.71D-08 BMatP= 9.01D-07
 IDIUse=1 WtCom= 1.00D+00 WtEn= 0.00D+00
 Coeff-Com:  0.373D-04 0.529D-03 0.696D-03-0.944D-02-0.343D-01-0.303D-01
 Coeff-Com:  0.128D+00 0.944D+00
 Coeff:      0.373D-04 0.529D-03 0.696D-03-0.944D-02-0.343D-01-0.303D-01
 Coeff:      0.128D+00 0.944D+00
 Gap=     0.372 Goal=   None    Shift=    0.000
 RMSDP=1.80D-06 MaxDP=1.47D-04 DE=-1.41D-06 OVMax= 1.86D-04

 Cycle   9  Pass 1  IDiag  1:
 RMSU=  8.81D-07    CP:  9.57D-01  7.62D-01  7.46D-01  9.69D-01  1.14D+00
                    CP:  1.20D+00  1.32D+00  1.22D+00
 E= -248.462686358389     Delta-E=       -0.000000129956 Rises=F Damp=F
 DIIS: error= 3.19D-06 at cycle   9 NSaved=   9.
 NSaved= 9 IEnMin= 9 EnMin= -248.462686358389     IErMin= 9 ErrMin= 3.19D-06
 ErrMax= 3.19D-06  0.00D+00 EMaxC= 1.00D-01 BMatC= 6.13D-09 BMatP= 6.71D-08
 IDIUse=1 WtCom= 1.00D+00 WtEn= 0.00D+00
 Coeff-Com:  0.249D-04 0.310D-03 0.715D-03-0.610D-03-0.684D-02-0.207D-01
 Coeff-Com: -0.323D-01 0.203D+00 0.856D+00
 Coeff:      0.249D-04 0.310D-03 0.715D-03-0.610D-03-0.684D-02-0.207D-01
 Coeff:     -0.323D-01 0.203D+00 0.856D+00
 Gap=     0.372 Goal=   None    Shift=    0.000
 RMSDP=5.05D-07 MaxDP=3.06D-05 DE=-1.30D-07 OVMax= 5.82D-05

 Cycle  10  Pass 1  IDiag  1:
 RMSU=  2.31D-07    CP:  9.57D-01  7.62D-01  7.46D-01  9.69D-01  1.14D+00
                    CP:  1.20D+00  1.35D+00  1.31D+00  1.13D+00
 E= -248.462686369096     Delta-E=       -0.000000010706 Rises=F Damp=F
 DIIS: error= 9.80D-07 at cycle  10 NSaved=  10.
 NSaved=10 IEnMin=10 EnMin= -248.462686369096     IErMin=10 ErrMin= 9.80D-07
 ErrMax= 9.80D-07  0.00D+00 EMaxC= 1.00D-01 BMatC= 6.22D-10 BMatP= 6.13D-09
 IDIUse=1 WtCom= 1.00D+00 WtEn= 0.00D+00
 Coeff-Com:  0.119D-05 0.412D-04 0.176D-03 0.941D-03 0.230D-02-0.154D-02
 Coeff-Com: -0.211D-01-0.777D-01 0.177D+00 0.920D+00
 Coeff:      0.119D-05 0.412D-04 0.176D-03 0.941D-03 0.230D-02-0.154D-02
 Coeff:     -0.211D-01-0.777D-01 0.177D+00 0.920D+00
 Gap=     0.372 Goal=   None    Shift=    0.000
 RMSDP=1.73D-07 MaxDP=8.24D-06 DE=-1.07D-08 OVMax= 2.18D-05

 Cycle  11  Pass 1  IDiag  1:
 RMSU=  8.56D-08    CP:  9.57D-01  7.62D-01  7.46D-01  9.69D-01  1.14D+00
                    CP:  1.20D+00  1.36D+00  1.33D+00  1.26D+00  1.26D+00
 E= -248.462686370386     Delta-E=       -0.000000001290 Rises=F Damp=F
 DIIS: error= 1.96D-07 at cycle  11 NSaved=  11.
 NSaved=11 IEnMin=11 EnMin= -248.462686370386     IErMin=11 ErrMin= 1.96D-07
 ErrMax= 1.96D-07  0.00D+00 EMaxC= 1.00D-01 BMatC= 2.24D-11 BMatP= 6.22D-10
 IDIUse=1 WtCom= 1.00D+00 WtEn= 0.00D+00
 Coeff-Com:  0.153D-06-0.696D-05-0.296D-04-0.495D-04 0.240D-03 0.919D-03
 Coeff-Com:  0.355D-02-0.117D-01-0.467D-01-0.129D-01 0.107D+01
 Coeff:      0.153D-06-0.696D-05-0.296D-04-0.495D-04 0.240D-03 0.919D-03
 Coeff:      0.355D-02-0.117D-01-0.467D-01-0.129D-01 0.107D+01
 Gap=     0.372 Goal=   None    Shift=    0.000
 RMSDP=5.73D-08 MaxDP=4.43D-06 DE=-1.29D-09 OVMax= 5.57D-06

 Cycle  12  Pass 1  IDiag  1:
 RMSU=  2.19D-08    CP:  9.57D-01  7.62D-01  7.46D-01  9.69D-01  1.14D+00
                    CP:  1.20D+00  1.36D+00  1.33D+00  1.28D+00  1.40D+00
                    CP:  1.26D+00
 E= -248.462686370451     Delta-E=       -0.000000000065 Rises=F Damp=F
 DIIS: error= 6.41D-08 at cycle  12 NSaved=  12.
 NSaved=12 IEnMin=12 EnMin= -248.462686370451     IErMin=12 ErrMin= 6.41D-08
 ErrMax= 6.41D-08  0.00D+00 EMaxC= 1.00D-01 BMatC= 1.82D-12 BMatP= 2.24D-11
 IDIUse=1 WtCom= 1.00D+00 WtEn= 0.00D+00
 Coeff-Com: -0.887D-07-0.320D-05-0.135D-04-0.775D-04-0.114D-03 0.222D-03
 Coeff-Com:  0.207D-02 0.308D-02-0.179D-01-0.610D-01 0.149D+00 0.924D+00
 Coeff:     -0.887D-07-0.320D-05-0.135D-04-0.775D-04-0.114D-03 0.222D-03
 Coeff:      0.207D-02 0.308D-02-0.179D-01-0.610D-01 0.149D+00 0.924D+00
 Gap=     0.372 Goal=   None    Shift=    0.000
 RMSDP=1.54D-08 MaxDP=1.51D-06 DE=-6.51D-11 OVMax= 1.13D-06

 Cycle  13  Pass 1  IDiag  1:
 RMSU=  5.23D-09    CP:  9.57D-01  7.62D-01  7.46D-01  9.69D-01  1.14D+00
                    CP:  1.20D+00  1.36D+00  1.33D+00  1.28D+00  1.42D+00
                    CP:  1.33D+00  1.29D+00
 E= -248.462686370456     Delta-E=       -0.000000000005 Rises=F Damp=F
 DIIS: error= 1.98D-08 at cycle  13 NSaved=  13.
 NSaved=13 IEnMin=13 EnMin= -248.462686370456     IErMin=13 ErrMin= 1.98D-08
 ErrMax= 1.98D-08  0.00D+00 EMaxC= 1.00D-01 BMatC= 2.28D-13 BMatP= 1.82D-12
 IDIUse=1 WtCom= 1.00D+00 WtEn= 0.00D+00
 Coeff-Com: -0.615D-07-0.641D-06-0.543D-06-0.116D-04-0.276D-04-0.258D-04
 Coeff-Com:  0.105D-03 0.101D-02-0.252D-03-0.644D-02-0.504D-01 0.126D+00
 Coeff-Com:  0.930D+00
 Coeff:     -0.615D-07-0.641D-06-0.543D-06-0.116D-04-0.276D-04-0.258D-04
 Coeff:      0.105D-03 0.101D-02-0.252D-03-0.644D-02-0.504D-01 0.126D+00
 Coeff:      0.930D+00
 Gap=     0.372 Goal=   None    Shift=    0.000
 RMSDP=4.29D-09 MaxDP=3.25D-07 DE=-4.77D-12 OVMax= 3.13D-07

 SCF Done:  E(RwB97XD) =  -248.462686370     A.U. after   13 cycles
            NFock= 13  Conv=0.43D-08     -V/T= 2.0067
 KE= 2.468151939592D+02 PE=-9.212638129113D+02 EE= 2.553423946366D+02
 Leave Link  502 at Mon Feb 10 13:57:23 2020, MaxMem=  2684354560 cpu:            1767.2 elap:             221.0
 (Enter /opt/software/Gaussian16/bin/avx/g16/l801.exe)
 DoSCS=F DFT=T ScalE2(SS,OS)=  1.000000  1.000000
 Range of M.O.s used for correlation:     1   391
 NBasis=   391 NAE=    20 NBE=    20 NFC=     0 NFV=     0
 NROrb=    391 NOA=    20 NOB=    20 NVA=   371 NVB=   371

 **** Warning!!: The largest alpha MO coefficient is  0.43684406D+02

 Leave Link  801 at Mon Feb 10 13:57:23 2020, MaxMem=  2684354560 cpu:               0.2 elap:               0.1
 (Enter /opt/software/Gaussian16/bin/avx/g16/l1002.exe)
 Minotr:  Closed shell wavefunction.
          Direct CPHF calculation.
          Differentiating once with respect to electric field.
                with respect to dipole field.
          Electric field/nuclear overlap derivatives assumed to be zero.
          Requested convergence is 1.0D-08 RMS, and 1.0D-07 maximum.
          Secondary convergence is 1.0D-12 RMS, and 1.0D-12 maximum.
          NewPWx=F KeepS1=T KeepF1=T KeepIn=T MapXYZ=F SortEE=F KeepMc=T.
         3724 words used for storage of precomputed grid.
 Two-electron integral symmetry not used.
          MDV=    2684354560 using IRadAn=       1.
          Solving linear equations simultaneously, MaxMat=     384.
          There are     3 degrees of freedom in the 1st order CPHF.  IDoFFX=0 NUNeed=     3.
      3 vectors produced by pass  0 Test12= 2.47D-13 3.33D-08 XBig12= 2.79D+01 2.31D+00.
 AX will form     3 AO Fock derivatives at one time.
 FoFJK:  IHMeth= 1 ICntrl=       0 DoSepK=T KAlg= 0 I1Cent=           0 FoldK=F
 IRaf=         1 NMat=       3 IRICut=       1 DoRegI=T DoRafI=F ISym2E= 0 IDoP0=0 IntGTp=1.
 FoFCou: FMM=F IPFlag=           0 FMFlag=      100000 FMFlg1=           0
         NFxFlg=           0 DoJE=T BraDBF=F KetDBF=F FulRan=T
         wScrn=  0.000000 ICntrl=       500 IOpCl=  0 I1Cent=           0 NGrid=           0
         NMat0=    3 NMatS0=      3 NMatT0=    0 NMatD0=    3 NMtDS0=    0 NMtDT0=    0
 Symmetry not used in FoFCou.
      3 vectors produced by pass  1 Test12= 2.47D-13 3.33D-08 XBig12= 3.82D+00 3.28D-01.
      3 vectors produced by pass  2 Test12= 2.47D-13 3.33D-08 XBig12= 1.05D+00 3.33D-01.
      3 vectors produced by pass  3 Test12= 2.47D-13 3.33D-08 XBig12= 6.44D-02 5.22D-02.
      3 vectors produced by pass  4 Test12= 2.47D-13 3.33D-08 XBig12= 4.57D-03 1.72D-02.
      3 vectors produced by pass  5 Test12= 2.47D-13 3.33D-08 XBig12= 5.47D-04 4.42D-03.
      3 vectors produced by pass  6 Test12= 2.47D-13 3.33D-08 XBig12= 3.85D-05 8.14D-04.
      3 vectors produced by pass  7 Test12= 2.47D-13 3.33D-08 XBig12= 1.86D-06 1.71D-04.
      3 vectors produced by pass  8 Test12= 2.47D-13 3.33D-08 XBig12= 7.34D-08 4.34D-05.
      3 vectors produced by pass  9 Test12= 2.47D-13 3.33D-08 XBig12= 2.77D-09 9.38D-06.
      3 vectors produced by pass 10 Test12= 2.47D-13 3.33D-08 XBig12= 1.38D-10 2.48D-06.
      3 vectors produced by pass 11 Test12= 2.47D-13 3.33D-08 XBig12= 3.99D-12 4.02D-07.
      1 vectors produced by pass 12 Test12= 2.47D-13 3.33D-08 XBig12= 1.07D-13 6.57D-08.
 InvSVY:  IOpt=1 It=  1 EMax= 3.55D-15
 Solved reduced A of dimension    37 with     3 vectors.
 FullF1:  Do perturbations      1 to       3.
 SCF Polarizability for W=    0.000000:
                1             2             3 
      1  0.727105D+02
      2 -0.668873D+00  0.453906D+02
      3 -0.404834D+01 -0.204031D+01  0.460470D+02
 Isotropic polarizability for W=    0.000000       54.72 Bohr**3.
 SCF Static Hyperpolarizability:
 K=  1 block:
                1 
      1 -0.851184D+02
 K=  2 block:
                1             2 
      1  0.905491D+01
      2 -0.146338D+02 -0.581966D+01
 K=  3 block:
                1             2             3 
      1  0.116719D+02
      2 -0.653722D+01  0.544756D+01
      3 -0.108509D+02 -0.100495D+02  0.420376D+01
 End of Minotr F.D. properties file   721 does not exist.
 End of Minotr F.D. properties file   722 does not exist.
 End of Minotr F.D. properties file   788 does not exist.
 Leave Link 1002 at Mon Feb 10 14:04:44 2020, MaxMem=  2684354560 cpu:            3526.0 elap:             440.8
 (Enter /opt/software/Gaussian16/bin/avx/g16/l601.exe)
 Copying SCF densities to generalized density rwf, IOpCl= 0 IROHF=0.

 **********************************************************************

            Population analysis using the SCF Density.

 **********************************************************************

 Alpha  occ. eigenvalues --  -19.29124 -14.49078 -10.32597 -10.29850 -10.28489
 Alpha  occ. eigenvalues --   -1.17610  -0.96761  -0.87006  -0.74495  -0.65760
 Alpha  occ. eigenvalues --   -0.61918  -0.55680  -0.53937  -0.50799  -0.49738
 Alpha  occ. eigenvalues --   -0.46516  -0.44520  -0.43637  -0.37113  -0.33979
 Alpha virt. eigenvalues --    0.03196   0.03921   0.04229   0.04410   0.05847
 Alpha virt. eigenvalues --    0.06087   0.06648   0.06759   0.10152   0.10680
 Alpha virt. eigenvalues --    0.11483   0.12313   0.12331   0.12931   0.13164
 Alpha virt. eigenvalues --    0.13806   0.14293   0.14734   0.16399   0.16489
 Alpha virt. eigenvalues --    0.17298   0.17894   0.20076   0.20858   0.21510
 Alpha virt. eigenvalues --    0.22217   0.23046   0.23434   0.23887   0.24389
 Alpha virt. eigenvalues --    0.26230   0.26837   0.27174   0.27685   0.29491
 Alpha virt. eigenvalues --    0.30517   0.31045   0.32528   0.33341   0.33811
 Alpha virt. eigenvalues --    0.34333   0.35289   0.35575   0.35929   0.36678
 Alpha virt. eigenvalues --    0.37084   0.37773   0.38217   0.38955   0.39348
 Alpha virt. eigenvalues --    0.40062   0.40650   0.41112   0.42032   0.42872
 Alpha virt. eigenvalues --    0.43270   0.45230   0.45494   0.46144   0.46615
 Alpha virt. eigenvalues --    0.47758   0.48423   0.49978   0.50521   0.51579
 Alpha virt. eigenvalues --    0.52034   0.52322   0.52822   0.53813   0.55327
 Alpha virt. eigenvalues --    0.56239   0.56608   0.57646   0.60845   0.62729
 Alpha virt. eigenvalues --    0.63417   0.65033   0.66167   0.67598   0.68404
 Alpha virt. eigenvalues --    0.69539   0.69572   0.71450   0.72408   0.74282
 Alpha virt. eigenvalues --    0.75666   0.76096   0.76996   0.77515   0.77892
 Alpha virt. eigenvalues --    0.78672   0.80442   0.81110   0.81574   0.81954
 Alpha virt. eigenvalues --    0.83187   0.83627   0.85155   0.86495   0.88108
 Alpha virt. eigenvalues --    0.88701   0.89227   0.90647   0.91572   0.92327
 Alpha virt. eigenvalues --    0.93190   0.94158   0.95296   0.96332   0.97245
 Alpha virt. eigenvalues --    0.97976   0.98399   0.99404   1.00125   1.01656
 Alpha virt. eigenvalues --    1.02657   1.03607   1.05244   1.05998   1.07619
 Alpha virt. eigenvalues --    1.07908   1.08925   1.11019   1.11971   1.13199
 Alpha virt. eigenvalues --    1.14132   1.15630   1.16630   1.17802   1.17907
 Alpha virt. eigenvalues --    1.18480   1.18858   1.21199   1.22062   1.23619
 Alpha virt. eigenvalues --    1.25131   1.26272   1.27897   1.28375   1.30442
 Alpha virt. eigenvalues --    1.30822   1.33380   1.34739   1.36498   1.37540
 Alpha virt. eigenvalues --    1.38615   1.40546   1.41223   1.42959   1.43947
 Alpha virt. eigenvalues --    1.44976   1.46641   1.47508   1.47800   1.50566
 Alpha virt. eigenvalues --    1.52285   1.53231   1.53933   1.55351   1.55663
 Alpha virt. eigenvalues --    1.57129   1.57919   1.59208   1.59811   1.61691
 Alpha virt. eigenvalues --    1.62335   1.62954   1.64149   1.65731   1.68391
 Alpha virt. eigenvalues --    1.69145   1.69975   1.70561   1.72054   1.73568
 Alpha virt. eigenvalues --    1.74762   1.75492   1.79400   1.81590   1.82034
 Alpha virt. eigenvalues --    1.84320   1.85809   1.86769   1.87997   1.88791
 Alpha virt. eigenvalues --    1.92425   1.92732   1.93942   1.96119   1.99747
 Alpha virt. eigenvalues --    2.01960   2.03891   2.05497   2.07526   2.09447
 Alpha virt. eigenvalues --    2.10428   2.11683   2.12817   2.16699   2.16966
 Alpha virt. eigenvalues --    2.19243   2.21179   2.22691   2.23125   2.24967
 Alpha virt. eigenvalues --    2.26883   2.27814   2.30417   2.32113   2.33753
 Alpha virt. eigenvalues --    2.37337   2.40878   2.41952   2.46426   2.49822
 Alpha virt. eigenvalues --    2.51687   2.53152   2.60603   2.61676   2.65676
 Alpha virt. eigenvalues --    2.69401   2.74434   2.78235   2.83917   2.93212
 Alpha virt. eigenvalues --    2.94857   2.97891   3.00949   3.04922   3.06665
 Alpha virt. eigenvalues --    3.08037   3.10643   3.12852   3.15341   3.20225
 Alpha virt. eigenvalues --    3.23316   3.27123   3.29054   3.30685   3.32693
 Alpha virt. eigenvalues --    3.36071   3.39044   3.40474   3.42300   3.46078
 Alpha virt. eigenvalues --    3.47430   3.48713   3.49584   3.50990   3.54976
 Alpha virt. eigenvalues --    3.56233   3.57605   3.61285   3.62872   3.63822
 Alpha virt. eigenvalues --    3.64320   3.69257   3.69867   3.71591   3.73827
 Alpha virt. eigenvalues --    3.75155   3.77015   3.78448   3.80718   3.83648
 Alpha virt. eigenvalues --    3.83848   3.86799   3.90179   3.92762   3.94168
 Alpha virt. eigenvalues --    3.96554   3.99059   3.99808   4.01731   4.03048
 Alpha virt. eigenvalues --    4.07168   4.08146   4.12897   4.17031   4.19046
 Alpha virt. eigenvalues --    4.20484   4.21875   4.24663   4.26382   4.28165
 Alpha virt. eigenvalues --    4.28666   4.33268   4.38555   4.42177   4.43453
 Alpha virt. eigenvalues --    4.47687   4.47969   4.49523   4.56172   4.57194
 Alpha virt. eigenvalues --    4.57378   4.59897   4.61189   4.62407   4.65323
 Alpha virt. eigenvalues --    4.68253   4.70984   4.75607   4.78669   4.79659
 Alpha virt. eigenvalues --    4.80892   4.83310   4.85304   4.87435   4.90538
 Alpha virt. eigenvalues --    4.93220   4.95333   4.97867   5.01549   5.05074
 Alpha virt. eigenvalues --    5.05999   5.07805   5.08633   5.11805   5.12442
 Alpha virt. eigenvalues --    5.13645   5.16257   5.20759   5.23418   5.28857
 Alpha virt. eigenvalues --    5.30338   5.32357   5.34261   5.37711   5.40916
 Alpha virt. eigenvalues --    5.43002   5.48853   5.50459   5.52348   5.55608
 Alpha virt. eigenvalues --    5.58746   5.64211   5.71374   5.74847   5.81532
 Alpha virt. eigenvalues --    5.82640   5.86273   5.89170   5.93953   6.02156
 Alpha virt. eigenvalues --    6.05224   6.10127   6.17357   6.25429   6.38955
 Alpha virt. eigenvalues --    6.40266   6.42196   6.47224   6.51007   6.58166
 Alpha virt. eigenvalues --    6.63006   6.63369   6.86617   6.90752   6.94514
 Alpha virt. eigenvalues --    7.06418   7.11031   7.29496   7.63563   7.82706
 Alpha virt. eigenvalues --    8.06832  14.59210  15.49734  16.21688  17.15790
 Alpha virt. eigenvalues --   18.01244
          Condensed to atoms (all electrons):
               1          2          3          4          5          6
     1  O    8.337802  -0.159793  -0.014027  -0.003459  -0.058393   0.001664
     2  N   -0.159793   7.448595  -0.076800   0.033559   0.253668  -0.010454
     3  C   -0.014027  -0.076800   5.253285   0.074949  -0.040965   0.445698
     4  C   -0.003459   0.033559   0.074949   5.628057   0.035407  -0.008094
     5  C   -0.058393   0.253668  -0.040965   0.035407   5.815303  -0.019338
     6  H    0.001664  -0.010454   0.445698  -0.008094  -0.019338   0.388853
     7  H   -0.005441   0.015512   0.408558  -0.012005  -0.025039  -0.012629
     8  H    0.000499  -0.003019   0.005683   0.370634  -0.002628   0.002551
     9  H   -0.001060   0.003035   0.024739   0.368699  -0.026378  -0.000566
    10  H   -0.000248   0.003949  -0.021905   0.434243  -0.003296  -0.000929
    11  H   -0.003311  -0.070240  -0.013763  -0.002933   0.298907  -0.003694
    12  H    0.212846  -0.043412  -0.001643  -0.001371   0.008221  -0.000060
               7          8          9         10         11         12
     1  O   -0.005441   0.000499  -0.001060  -0.000248  -0.003311   0.212846
     2  N    0.015512  -0.003019   0.003035   0.003949  -0.070240  -0.043412
     3  C    0.408558   0.005683   0.024739  -0.021905  -0.013763  -0.001643
     4  C   -0.012005   0.370634   0.368699   0.434243  -0.002933  -0.001371
     5  C   -0.025039  -0.002628  -0.026378  -0.003296   0.298907   0.008221
     6  H   -0.012629   0.002551  -0.000566  -0.000929  -0.003694  -0.000060
     7  H    0.392034  -0.004164   0.003257  -0.001251   0.000550  -0.000574
     8  H   -0.004164   0.344221   0.002809   0.000319  -0.000584  -0.000128
     9  H    0.003257   0.002809   0.362337  -0.008184  -0.001310  -0.000257
    10  H   -0.001251   0.000319  -0.008184   0.364486  -0.000313  -0.000084
    11  H    0.000550  -0.000584  -0.001310  -0.000313   0.311064   0.001081
    12  H   -0.000574  -0.000128  -0.000257  -0.000084   0.001081   0.659371
 Mulliken charges:
               1
     1  O   -0.307080
     2  N   -0.394601
     3  C   -0.043809
     4  C   -0.917687
     5  C   -0.235468
     6  H    0.216999
     7  H    0.241193
     8  H    0.283806
     9  H    0.272879
    10  H    0.233212
    11  H    0.484546
    12  H    0.166010
 Sum of Mulliken charges =  -0.00000
 Mulliken charges with hydrogens summed into heavy atoms:
               1
     1  O   -0.141070
     2  N   -0.394601
     3  C    0.414383
     4  C   -0.127790
     5  C    0.249078
 Electronic spatial extent (au):  <R**2>=            569.7900
 Charge=             -0.0000 electrons
 Dipole moment (field-independent basis, Debye):
    X=             -0.9985    Y=              0.0329    Z=              0.1912  Tot=              1.0172
 Quadrupole moment (field-independent basis, Debye-Ang):
   XX=            -27.2271   YY=            -32.3614   ZZ=            -30.8075
   XY=              0.3224   XZ=             -2.6999   YZ=              0.0855
 Traceless Quadrupole moment (field-independent basis, Debye-Ang):
   XX=              2.9049   YY=             -2.2294   ZZ=             -0.6755
   XY=              0.3224   XZ=             -2.6999   YZ=              0.0855
 Octapole moment (field-independent basis, Debye-Ang**2):
  XXX=             27.4601  YYY=             -0.8960  ZZZ=              1.2510  XYY=              0.6865
  XXY=              4.1716  XXZ=            -10.7435  XZZ=              3.5451  YZZ=             -1.3840
  YYZ=              0.8276  XYZ=              0.5452
 Hexadecapole moment (field-independent basis, Debye-Ang**3):
 XXXX=           -497.9653 YYYY=            -88.8288 ZZZZ=            -65.6488 XXXY=              1.1401
 XXXZ=            -35.0895 YYYX=             -3.4458 YYYZ=             -0.5550 ZZZX=             -2.3469
 ZZZY=              0.3463 XXYY=           -116.2487 XXZZ=           -104.0772 YYZZ=            -23.7935
 XXYZ=             -0.0703 YYXZ=             -0.2227 ZZXY=             -1.9426
 N-N= 1.706435379451D+02 E-N=-9.212638115754D+02  KE= 2.468151939592D+02
  Exact polarizability:      72.711      -0.669      45.391      -4.048      -2.040      46.047
 Approx polarizability:      67.747      -0.971      48.652      -6.161      -3.151      51.937
 No NMR shielding tensors so no spin-rotation constants.
 Leave Link  601 at Mon Feb 10 14:04:45 2020, MaxMem=  2684354560 cpu:               2.2 elap:               0.3
 (Enter /opt/software/Gaussian16/bin/avx/g16/l9999.exe)

 ----------------------------------------------------------------------

 Electric dipole moment (input orientation):
 (Debye = 10**-18 statcoulomb cm , SI units = C m)
                  (au)            (Debye)         (10**-30 SI)
   Tot        0.400186D+00      0.101717D+01      0.339292D+01
   x         -0.392841D+00     -0.998501D+00     -0.333064D+01
   y          0.129610D-01      0.329436D-01      0.109888D+00
   z          0.752132D-01      0.191173D+00      0.637684D+00

 Dipole polarizability, Alpha (input orientation).
 (esu units = cm**3 , SI units = C**2 m**2 J**-1)
 Alpha(0;0):
               (au)            (10**-24 esu)      (10**-40 SI)
   iso        0.547160D+02      0.810808D+01      0.902146D+01
   aniso      0.281402D+02      0.416995D+01      0.463970D+01
   xx         0.727105D+02      0.107746D+02      0.119883D+02
   yx        -0.668873D+00     -0.991167D-01     -0.110282D+00
   yy         0.453906D+02      0.672620D+01      0.748390D+01
   zx        -0.404834D+01     -0.599903D+00     -0.667482D+00
   zy        -0.204031D+01     -0.302342D+00     -0.336401D+00
   zz         0.460470D+02      0.682346D+01      0.759213D+01

 First dipole hyperpolarizability, Beta (input orientation).
 ||, _|_  parallel and perpendicular components, (z) with respect to z axis,
 vector components x,y,z.  Values do not include the 1/n! factor of 1/2.
 (esu units = statvolt**-1 cm**4 , SI units = C**3 m**3 J**-2)
 Beta(0;0,0):
               (au)            (10**-30 esu)      (10**-50 SI)
   || (z)     0.127939D+02      0.110530D+00      0.410220D-01
   _|_(z)     0.426464D+01      0.368432D-01      0.136740D-01
   x         -0.331809D+03     -0.286657D+01     -0.106390D+01
   y         -0.204427D+02     -0.176609D+00     -0.655467D-01
   z          0.639697D+02      0.552648D+00      0.205110D+00
   ||         0.677075D+02      0.584940D+00      0.217095D+00
   xxx       -0.851184D+02     -0.735356D+00     -0.272920D+00
   xxy        0.905491D+01      0.782274D-01      0.290333D-01
   yxy       -0.146338D+02     -0.126425D+00     -0.469214D-01
   yyy       -0.581966D+01     -0.502773D-01     -0.186599D-01
   xxz        0.116719D+02      0.100836D+00      0.374243D-01
   yxz       -0.653722D+01     -0.564765D-01     -0.209607D-01
   yyz        0.544756D+01      0.470627D-01      0.174668D-01
   zxz       -0.108509D+02     -0.937435D-01     -0.347920D-01
   zyz       -0.100495D+02     -0.868197D-01     -0.322223D-01
   zzz        0.420376D+01      0.363172D-01      0.134788D-01

 ----------------------------------------------------------------------

 Dipole orientation:
     8          0.91131007         -0.52366084         -4.28851727
     7         -0.25361644          0.71110830         -2.21628371
     6         -0.14871200          1.06852222          2.30827196
     6         -1.19597197         -1.01519736          4.02164357
     6          0.80573445          0.02927839         -0.13798508
     1          1.39762063          2.05268510          3.27687255
     1         -1.60918266          2.47123215          1.89062244
     1         -2.79543812         -1.95932365          3.11773599
     1          0.24483240         -2.44142592          4.42669317
     1         -1.83852495         -0.22978621          5.82156884
     1          2.36380283         -1.32797581         -0.15526419
     1         -0.04457056          0.15050894         -5.70768757

 Electric dipole moment (dipole orientation):
 (Debye = 10**-18 statcoulomb cm , SI units = C m)
                  (au)            (Debye)         (10**-30 SI)
   Tot        0.400186D+00      0.101717D+01      0.339292D+01
   x          0.000000D+00      0.000000D+00      0.000000D+00
   y          0.000000D+00      0.000000D+00      0.000000D+00
   z          0.400186D+00      0.101717D+01      0.339292D+01

 Dipole polarizability, Alpha (dipole orientation).
 (esu units = cm**3 , SI units = C**2 m**2 J**-1)
 Alpha(0;0):
               (au)            (10**-24 esu)      (10**-40 SI)
   iso        0.547160D+02      0.810808D+01      0.902146D+01
   aniso      0.281402D+02      0.416995D+01      0.463970D+01
   xx         0.453825D+02      0.672499D+01      0.748256D+01
   yx        -0.209039D+01     -0.309765D+00     -0.344659D+00
   yy         0.455142D+02      0.674450D+01      0.750427D+01
   zx        -0.124721D+01     -0.184818D+00     -0.205637D+00
   zy        -0.596361D+00     -0.883716D-01     -0.983267D-01
   zz         0.732515D+02      0.108548D+02      0.120775D+02

 First dipole hyperpolarizability, Beta (dipole orientation).
 ||, _|_  parallel and perpendicular components, (z) with respect to z axis,
 vector components x,y,z.  Values do not include the 1/n! factor of 1/2.
 (esu units = statvolt**-1 cm**4 , SI units = C**3 m**3 J**-2)
 Beta(0;0,0):
               (au)            (10**-30 esu)      (10**-50 SI)
   || (z)     0.674160D+02      0.582422D+00      0.216160D+00
   _|_(z)     0.224720D+02      0.194141D+00      0.720533D-01
   x         -0.406688D+00     -0.351347D-02     -0.130399D-02
   y         -0.313767D+02     -0.271070D+00     -0.100605D+00
   z          0.337080D+03      0.291211D+01      0.108080D+01
   ||         0.677075D+02      0.584940D+00      0.217095D+00
   xxx       -0.223502D+01     -0.193089D-01     -0.716629D-02
   xxy       -0.118877D+02     -0.102701D+00     -0.381163D-01
   yxy        0.287417D+01      0.248305D-01      0.921561D-02
   yyy       -0.748717D+01     -0.646833D-01     -0.240066D-01
   xxz        0.884886D+01      0.764472D-01      0.283726D-01
   yxz        0.281618D+01      0.243296D-01      0.902969D-02
   yyz        0.143999D+02      0.124404D+00      0.461714D-01
   zxz       -0.774704D+00     -0.669284D-02     -0.248398D-02
   zyz        0.891600D+01      0.770273D-01      0.285879D-01
   zzz        0.891112D+02      0.769851D+00      0.285723D+00

 ----------------------------------------------------------------------
 Unable to Open any file for archive entry.
 1\1\GINC-G2-NODE38\SP\RwB97XD\Aug-CC-pVTZ\C3H7N1O1\LIUCHW\10-Feb-2020\
 0\\#p wB97XD/aug-cc-pvtz NoSymm MaxDisk=100GB Polar\\Polar\\0,1\O,0,2.
 311377,-0.337458,0.055847\N,0,1.136009,0.334394,-0.364356\C,0,-1.19879
 2,0.602393,0.134009\C,0,-2.222984,-0.484757,-0.203887\C,0,0.152605,0.0
 24526,0.404325\H,0,-1.533492,1.16123,1.01674\H,0,-1.107908,1.316178,-0
 .690232\H,0,-1.926632,-1.02207,-1.108471\H,0,-2.309621,-1.211471,0.609
 288\H,0,-3.211064,-0.047754,-0.372117\H,0,0.298047,-0.671298,1.235229\
 H,0,2.962618,-0.018878,-0.593399\\Version=ES64L-G16RevC.01\HF=-248.462
 6864\RMSD=4.290e-09\Dipole=-0.3928406,0.012961,0.0752132\Polar=72.7105
 084,-0.6688727,45.3906229,-4.0483432,-2.0403077,46.0470149\HyperPolar=
 -85.1183761,9.0549094,-14.6338398,-5.8196588,11.6718982,-6.5372196,5.4
 47561,-10.8509178,-10.0494835,4.2037576\Quadrupole=2.1597014,-1.657511
 ,-0.5021904,0.2396627,-2.0073285,0.0635511\PG=C01 [X(C3H7N1O1)]\\@
 The archive entry for this job was punched.


 ACCORDING TO HEN3RY, LIFE IS MUCH LIKE A SEWER........
 YOU GET OUT OF IT JUST WHAT YOU PUT INTO IT...........
                         TOM LEHRER - (THE 3 IS SILENT)
 Job cpu time:       0 days  1 hours 28 minutes 41.8 seconds.
 Elapsed time:       0 days  0 hours 11 minutes  5.7 seconds.
 File lengths (MBytes):  RWF=     83 Int=      0 D2E=      0 Chk=     11 Scr=      1
 Normal termination of Gaussian 16 at Mon Feb 10 14:04:45 2020.
