    -----------------------------------------------------------------------
          PSI4: An Open-Source Ab Initio Electronic Structure Package
                              PSI 4.0.0-beta4 Driver

    J. M. Turney, A. C. Simmonett, R. M. Parrish, E. G. Hohenstein,
    F. A. Evangelista, J. T. Fermann, B. J. Mintz, L. A. Burns, J. J. Wilke,
    M. L. Abrams, N. J. Russ, M. L. Leininger, C. L. Janssen, E. T. Seidl,
    W. D. Allen, H. F. Schaefer, R. A. King, E. F. Valeev, C. D. Sherrill,
    and T. D. Crawford, WIREs Comput. Mol. Sci., (2011) (doi: 10.1002/wcms.93)

                         Additional Contributions by
    A. E. DePrince, M. Saitow, U. Bozkaya, A. Yu. Sokolov
    -----------------------------------------------------------------------

    Process ID:  26646
    PSI4DATADIR: /home/xzhu216/psi4/psi4-install/share/psi

    Using LocalCommunicator (Number of processes = 1)

    Memory level set to 256.000 MB

  ==> Input File <==

--------------------------------------------------------------------------
#psi4
#
memory 7 gb

molecule MeOH_Water {
0 1
    O    -0.786562022     0.045168441    -0.007189119
    H     0.177706774     0.012695896    -0.006835389
    C    -1.247990941    -1.290283536     0.001083621
    H    -2.334277443    -1.258897100     0.000221200
    H    -0.925965746    -1.849768096    -0.880445382
    H    -0.927027831    -1.838462882     0.890076520
--
0 1
    O     1.765020494    -0.039395585    -0.005131517
    H     2.204224633     0.348756614    -0.765004199
    H     2.202904788     0.363208694     0.747958015
units angstrom
no_reorient  #important for SAPT in psi4, default
symmetry c1  #important for SAPT in psi4, default
}

set {
basis aug-cc-pVDZ
scf_type DF
freeze_core True
}
energy('sapt2+')
--------------------------------------------------------------------------

  Memory set to   7.000 GiB by Python script.

  //>>>>>>>>>>>>>>>>>>>>>>>>>>>>>>>>>>>//
  //              Dimer HF             //
  //<<<<<<<<<<<<<<<<<<<<<<<<<<<<<<<<<<<//


  No DF_BASIS_SCF auxiliary basis selected, defaulting to aug-cc-pvdz-jkfit


*** tstart() called on node105.bme.utexas.edu
*** at Fri Feb 14 12:16:54 2014


         ---------------------------------------------------------
                                   SCF
            by Justin Turney, Rob Parrish, and Andy Simmonett
                              RHF Reference
                        4 Threads,   7000 MiB Core
         ---------------------------------------------------------

  ==> Geometry <==

    Molecular point group: c1
    Full point group: C1

    Geometry (in Angstrom), charge = 0, multiplicity = 1:

       Center              X                  Y                   Z       
    ------------   -----------------  -----------------  -----------------
           O         -0.808049107578     0.437811095645    -0.003227971114
           H          0.156219688422     0.405338550645    -0.002874241114
           C         -1.269478026578    -0.897640881355     0.005044768886
           H         -2.355764528578    -0.866254445355     0.004182347886
           H         -0.947452831578    -1.457125441355    -0.876484234114
           H         -0.948514916578    -1.445820227355     0.894037667886
           O          1.743533408422     0.353247069645    -0.001170369114
           H          2.182737547422     0.741399268645    -0.761043051114
           H          2.181417702422     0.755851348645     0.751919162886

  Running in c1 symmetry.

  Nuclear repulsion =   82.414549737073102

  Charge       = 0
  Multiplicity = 1
  Electrons    = 28
  Nalpha       = 14
  Nbeta        = 14

  ==> Algorithm <==

  SCF Algorithm Type is DF.
  DIIS enabled.
  MOM disabled.
  Fractional occupation disabled.
  Guess Type is CORE.
  Energy threshold   = 1.00e-08
  Density threshold  = 1.00e-08
  Integral threshold = 0.00e+00

  ==> Primary Basis <==

  Basis Set: AUG-CC-PVDZ
    Number of shells: 57
    Number of basis function: 123
    Number of Cartesian functions: 129
    Spherical Harmonics?: true
    Max angular momentum: 2

  ==> Pre-Iterations <==

   -------------------------------------------------------
    Irrep   Nso     Nmo     Nalpha   Nbeta   Ndocc  Nsocc
   -------------------------------------------------------
     A        123     123       0       0       0       0
   -------------------------------------------------------
    Total     123     123      14      14      14       0
   -------------------------------------------------------

 OEINTS: Wrapper to libmints.
   by Justin Turney

   Calculation information:
      Number of atoms:                   9
      Number of AO shells:              57
      Number of SO shells:              57
      Number of primitives:            117
      Number of atomic orbitals:       129
      Number of basis functions:       123

      Number of irreps:                  1
      Number of functions per irrep: [ 123 ]

      Overlap, kinetic, potential, dipole, and quadrupole integrals
        stored in file 35.

  ==> Integral Setup <==

  ==> DFJK: Density-Fitted J/K Matrices <==

    J tasked:                  Yes
    K tasked:                  Yes
    wK tasked:                  No
    OpenMP threads:              4
    Integrals threads:           4
    Memory (MB):              5006
    Algorithm:                Core
    Integral Cache:           SAVE
    Schwarz Cutoff:          0E+00
    Fitting Condition:       1E-12

   => Auxiliary Basis Set <=

  Basis Set: aug-cc-pvdz-jkfit
    Number of shells: 156
    Number of basis function: 450
    Number of Cartesian functions: 513
    Spherical Harmonics?: true
    Max angular momentum: 3

  Minimum eigenvalue in the overlap matrix is 4.8826953379E-04.
  Using Symmetric Orthogonalization.
  SCF Guess: Core (One-Electron) Hamiltonian.

  Guess energy:  -149.38863711292720

  ==> Iterations <==

                        Total Energy        Delta E     RMS |[F,P]|

   @RHF iter   1:  -167.54402480703095   -1.67544e+02   4.59414e-02 
   @RHF iter   2:  -152.42631551585822    1.51177e+01   3.45437e-02 DIIS
   @RHF iter   3:  -183.14053777167516   -3.07142e+01   2.85110e-02 DIIS
   @RHF iter   4:  -189.55572368781117   -6.41519e+00   1.48459e-02 DIIS
   @RHF iter   5:  -190.52660288331373   -9.70879e-01   9.10079e-03 DIIS
   @RHF iter   6:  -190.98316099917002   -4.56558e-01   3.72497e-03 DIIS
   @RHF iter   7:  -191.09238975449432   -1.09229e-01   1.02647e-03 DIIS
   @RHF iter   8:  -191.10046932541155   -8.07957e-03   3.81140e-04 DIIS
   @RHF iter   9:  -191.10132751043096   -8.58185e-04   6.71538e-05 DIIS
   @RHF iter  10:  -191.10138955235971   -6.20419e-05   2.09267e-05 DIIS
   @RHF iter  11:  -191.10139622163712   -6.66928e-06   4.93459e-06 DIIS
   @RHF iter  12:  -191.10139663369068   -4.12054e-07   9.42072e-07 DIIS
   @RHF iter  13:  -191.10139664741251   -1.37218e-08   1.90295e-07 DIIS
   @RHF iter  14:  -191.10139664816660   -7.54085e-10   4.02624e-08 DIIS
   @RHF iter  15:  -191.10139664820264   -3.60387e-11   7.56988e-09 DIIS

  ==> Post-Iterations <==

	Orbital Energies (a.u.)
	-----------------------

	Doubly Occupied:                                                      

	   1A    -20.613427     2A    -20.520329     3A    -11.252230  
	   4A     -1.401125     5A     -1.323136     6A     -0.900035  
	   7A     -0.756058     8A     -0.698366     9A     -0.609884  
	  10A     -0.590204    11A     -0.569116    12A     -0.543894  
	  13A     -0.463691    14A     -0.413773  

	Virtual:                                                              

	  15A      0.025256    16A      0.050248    17A      0.050832  
	  18A      0.069581    19A      0.074824    20A      0.083429  
	  21A      0.130534    22A      0.162044    23A      0.162781  
	  24A      0.178826    25A      0.189925    26A      0.210894  
	  27A      0.213529    28A      0.230441    29A      0.260934  
	  30A      0.264332    31A      0.283357    32A      0.284088  
	  33A      0.324491    34A      0.333267    35A      0.351598  
	  36A      0.371817    37A      0.392147    38A      0.409668  
	  39A      0.423227    40A      0.423994    41A      0.443068  
	  42A      0.483373    43A      0.485639    44A      0.504574  
	  45A      0.524827    46A      0.538304    47A      0.563884  
	  48A      0.566732    49A      0.570424    50A      0.595600  
	  51A      0.617087    52A      0.641274    53A      0.649894  
	  54A      0.650832    55A      0.666473    56A      0.687443  
	  57A      0.705843    58A      0.713476    59A      0.755171  
	  60A      0.785705    61A      0.802108    62A      0.843962  
	  63A      0.923764    64A      0.940004    65A      0.999433  
	  66A      1.018117    67A      1.020155    68A      1.098856  
	  69A      1.152428    70A      1.153359    71A      1.191678  
	  72A      1.227325    73A      1.265571    74A      1.285317  
	  75A      1.352750    76A      1.421175    77A      1.459673  
	  78A      1.474040    79A      1.530635    80A      1.566623  
	  81A      1.622670    82A      1.693762    83A      1.753451  
	  84A      1.829281    85A      1.835732    86A      1.844392  
	  87A      1.914474    88A      1.930929    89A      1.979507  
	  90A      2.040086    91A      2.126118    92A      2.134357  
	  93A      2.163578    94A      2.196502    95A      2.211122  
	  96A      2.259484    97A      2.281584    98A      2.345589  
	  99A      2.434875   100A      2.462318   101A      2.463549  
	 102A      2.494281   103A      2.620764   104A      2.657734  
	 105A      2.740529   106A      2.762001   107A      2.829362  
	 108A      2.919841   109A      2.951857   110A      3.059302  
	 111A      3.129387   112A      3.207370   113A      3.290819  
	 114A      3.694867   115A      3.713747   116A      3.743254  
	 117A      3.794687   118A      3.826201   119A      3.883535  
	 120A      3.966154   121A      4.076179   122A      4.308689  
	 123A      4.563325  

	Final Occupation by Irrep:
	          A 
	DOCC [    14 ]

  Energy converged.

  @RHF Final Energy:  -191.10139664820264

   => Energetics <=

    Nuclear Repulsion Energy =             82.4145497370731022
    One-Electron Energy =                -425.7213589324830423
    Two-Electron Energy =                 152.2054125472069472
    DFT Exchange-Correlation Energy =       0.0000000000000000
    Empirical Dispersion Energy =           0.0000000000000000
    Total Energy =                       -191.1013966482029787



Properties will be evaluated at   0.000000,   0.000000,   0.000000 Bohr
  ==> Properties <==


Properties computed using the SCF density density matrix
  Nuclear Dipole Moment: (a.u.)
     X:     0.2563      Y:    -1.7461      Z:     0.0091

  Electronic Dipole Moment: (a.u.)
     X:     1.1409      Y:     1.7866      Z:    -0.0103

  Dipole Moment: (a.u.)
     X:     1.3973      Y:     0.0405      Z:    -0.0012     Total:     1.3979

  Dipole Moment: (Debye)
     X:     3.5515      Y:     0.1030      Z:    -0.0029     Total:     3.5530


  Saving occupied orbitals to File 180.

  Saving SAPT 2-DIMER file.

*** tstop() called on node105.bme.utexas.edu at Fri Feb 14 12:16:57 2014
Module time:
	user time   =       8.18 seconds =       0.14 minutes
	system time =       0.15 seconds =       0.00 minutes
	total time  =          3 seconds =       0.05 minutes
Total time:
	user time   =       8.18 seconds =       0.14 minutes
	system time =       0.15 seconds =       0.00 minutes
	total time  =          3 seconds =       0.05 minutes

  //>>>>>>>>>>>>>>>>>>>>>>>>>>>>>>>>>>>//
  //            Monomer A HF           //
  //<<<<<<<<<<<<<<<<<<<<<<<<<<<<<<<<<<<//


  No DF_BASIS_SCF auxiliary basis selected, defaulting to aug-cc-pvdz-jkfit


*** tstart() called on node105.bme.utexas.edu
*** at Fri Feb 14 12:16:57 2014


         ---------------------------------------------------------
                                   SCF
            by Justin Turney, Rob Parrish, and Andy Simmonett
                              RHF Reference
                        4 Threads,   7000 MiB Core
         ---------------------------------------------------------

  ==> Geometry <==

    Molecular point group: c1
    Full point group: C1

    Geometry (in Angstrom), charge = 0, multiplicity = 1:

       Center              X                  Y                   Z       
    ------------   -----------------  -----------------  -----------------
           O         -0.808049107578     0.437811095645    -0.003227971114
           H          0.156219688422     0.405338550645    -0.002874241114
           C         -1.269478026578    -0.897640881355     0.005044768886
           H         -2.355764528578    -0.866254445355     0.004182347886
           H         -0.947452831578    -1.457125441355    -0.876484234114
           H         -0.948514916578    -1.445820227355     0.894037667886
           O(Gh)      1.743533408422     0.353247069645    -0.001170369114
           H(Gh)      2.182737547422     0.741399268645    -0.761043051114
           H(Gh)      2.181417702422     0.755851348645     0.751919162886

  Running in c1 symmetry.

  Nuclear repulsion =   40.423263430201359

  Charge       = 0
  Multiplicity = 1
  Electrons    = 18
  Nalpha       = 9
  Nbeta        = 9

  ==> Algorithm <==

  SCF Algorithm Type is DF.
  DIIS enabled.
  MOM disabled.
  Fractional occupation disabled.
  Guess Type is CORE.
  Energy threshold   = 1.00e-08
  Density threshold  = 1.00e-08
  Integral threshold = 0.00e+00

  ==> Primary Basis <==

  Basis Set: AUG-CC-PVDZ
    Number of shells: 57
    Number of basis function: 123
    Number of Cartesian functions: 129
    Spherical Harmonics?: true
    Max angular momentum: 2

  ==> Pre-Iterations <==

   -------------------------------------------------------
    Irrep   Nso     Nmo     Nalpha   Nbeta   Ndocc  Nsocc
   -------------------------------------------------------
     A        123     123       0       0       0       0
   -------------------------------------------------------
    Total     123     123       9       9       9       0
   -------------------------------------------------------

 OEINTS: Wrapper to libmints.
   by Justin Turney

   Calculation information:
      Number of atoms:                   9
      Number of AO shells:              57
      Number of SO shells:              57
      Number of primitives:            117
      Number of atomic orbitals:       129
      Number of basis functions:       123

      Number of irreps:                  1
      Number of functions per irrep: [ 123 ]

      Overlap, kinetic, potential, dipole, and quadrupole integrals
        stored in file 35.

  ==> Integral Setup <==

  ==> DFJK: Density-Fitted J/K Matrices <==

    J tasked:                  Yes
    K tasked:                  Yes
    wK tasked:                  No
    OpenMP threads:              4
    Integrals threads:           4
    Memory (MB):              5006
    Algorithm:                Core
    Integral Cache:           LOAD
    Schwarz Cutoff:          0E+00
    Fitting Condition:       1E-12

   => Auxiliary Basis Set <=

  Basis Set: aug-cc-pvdz-jkfit
    Number of shells: 156
    Number of basis function: 450
    Number of Cartesian functions: 513
    Spherical Harmonics?: true
    Max angular momentum: 3

  Minimum eigenvalue in the overlap matrix is 4.8826953379E-04.
  Using Symmetric Orthogonalization.
  SCF Guess: Core (One-Electron) Hamiltonian.

  Guess energy:   -90.00837861675848

  ==> Iterations <==

                        Total Energy        Delta E     RMS |[F,P]|

   @RHF iter   1:   -99.28172195042990   -9.92817e+01   3.60360e-02 
   @RHF iter   2:   -90.57713730763888    8.70458e+00   2.28863e-02 DIIS
   @RHF iter   3:  -110.33538564922580   -1.97582e+01   2.55287e-02 DIIS
   @RHF iter   4:  -112.39845638591402   -2.06307e+00   1.95416e-02 DIIS
   @RHF iter   5:  -114.05452045275385   -1.65606e+00   1.21065e-02 DIIS
   @RHF iter   6:  -114.95815493183761   -9.03634e-01   3.50362e-03 DIIS
   @RHF iter   7:  -115.04302542665539   -8.48705e-02   1.61476e-03 DIIS
   @RHF iter   8:  -115.06105566963484   -1.80302e-02   2.16043e-04 DIIS
   @RHF iter   9:  -115.06136338510746   -3.07715e-04   2.06193e-05 DIIS
   @RHF iter  10:  -115.06137048031920   -7.09521e-06   7.25633e-06 DIIS
   @RHF iter  11:  -115.06137100371680   -5.23398e-07   1.28448e-06 DIIS
   @RHF iter  12:  -115.06137103002555   -2.63088e-08   2.62789e-07 DIIS
   @RHF iter  13:  -115.06137103077006   -7.44507e-10   5.64447e-08 DIIS
   @RHF iter  14:  -115.06137103080317   -3.31113e-11   8.53580e-09 DIIS

  ==> Post-Iterations <==

	Orbital Energies (a.u.)
	-----------------------

	Doubly Occupied:                                                      

	   1A    -20.570100     2A    -11.278166     3A     -1.363912  
	   4A     -0.926815     5A     -0.693469     6A     -0.620329  
	   7A     -0.595790     8A     -0.504204     9A     -0.449984  

	Virtual:                                                              

	  10A      0.028510    11A      0.045306    12A      0.052707  
	  13A      0.062853    14A      0.076848    15A      0.081754  
	  16A      0.116849    17A      0.130232    18A      0.152981  
	  19A      0.163008    20A      0.175797    21A      0.191866  
	  22A      0.192816    23A      0.219608    24A      0.235612  
	  25A      0.266993    26A      0.280123    27A      0.297126  
	  28A      0.324589    29A      0.336978    30A      0.370785  
	  31A      0.379697    32A      0.400608    33A      0.410046  
	  34A      0.418362    35A      0.426596    36A      0.437569  
	  37A      0.440268    38A      0.464875    39A      0.476620  
	  40A      0.499205    41A      0.506139    42A      0.506949  
	  43A      0.528777    44A      0.565595    45A      0.596624  
	  46A      0.599468    47A      0.615379    48A      0.624381  
	  49A      0.629176    50A      0.654754    51A      0.660966  
	  52A      0.683080    53A      0.712238    54A      0.733330  
	  55A      0.761792    56A      0.786202    57A      0.866599  
	  58A      0.934795    59A      0.977814    60A      0.990330  
	  61A      1.030792    62A      1.070868    63A      1.129188  
	  64A      1.136136    65A      1.182616    66A      1.198293  
	  67A      1.225688    68A      1.276739    69A      1.285130  
	  70A      1.328089    71A      1.358358    72A      1.362331  
	  73A      1.370714    74A      1.473680    75A      1.513910  
	  76A      1.521157    77A      1.584526    78A      1.717238  
	  79A      1.730830    80A      1.808274    81A      1.813892  
	  82A      1.860741    83A      1.890622    84A      1.932816  
	  85A      2.098773    86A      2.112878    87A      2.135245  
	  88A      2.158619    89A      2.183959    90A      2.265261  
	  91A      2.270735    92A      2.305568    93A      2.339191  
	  94A      2.436025    95A      2.535025    96A      2.560497  
	  97A      2.592031    98A      2.688446    99A      2.696572  
	 100A      2.716029   101A      2.843243   102A      2.893522  
	 103A      2.927243   104A      3.024855   105A      3.108583  
	 106A      3.205821   107A      3.649820   108A      3.755244  
	 109A      3.769245   110A      3.845008   111A      3.928144  
	 112A      3.940624   113A      4.135373   114A      4.436331  
	 115A      4.961375   116A      4.992173   117A      5.073284  
	 118A      5.246987   119A      5.382603   120A      5.983591  
	 121A      6.766057   122A      7.023898   123A     33.549838  

	Final Occupation by Irrep:
	          A 
	DOCC [     9 ]

  Energy converged.

  @RHF Final Energy:  -115.06137103080317

   => Energetics <=

    Nuclear Repulsion Energy =             40.4232634302013594
    One-Electron Energy =                -236.9637331069461084
    Two-Electron Energy =                  81.4790986459415763
    DFT Exchange-Correlation Energy =       0.0000000000000000
    Empirical Dispersion Energy =           0.0000000000000000
    Total Energy =                       -115.0613710308031727



Properties will be evaluated at   0.000000,   0.000000,   0.000000 Bohr
  ==> Properties <==


Properties computed using the SCF density density matrix
  Nuclear Dipole Moment: (a.u.)
     X:   -34.3491      Y:    -9.9158      Z:     0.0440

  Electronic Dipole Moment: (a.u.)
     X:    34.7522      Y:     9.3284      Z:    -0.0403

  Dipole Moment: (a.u.)
     X:     0.4031      Y:    -0.5874      Z:     0.0037     Total:     0.7124

  Dipole Moment: (Debye)
     X:     1.0245      Y:    -1.4931      Z:     0.0094     Total:     1.8108


  Saving occupied orbitals to File 180.

  Saving SAPT 2-MONOMER_A file.

*** tstop() called on node105.bme.utexas.edu at Fri Feb 14 12:16:59 2014
Module time:
	user time   =       5.62 seconds =       0.09 minutes
	system time =       0.11 seconds =       0.00 minutes
	total time  =          2 seconds =       0.03 minutes
Total time:
	user time   =      13.87 seconds =       0.23 minutes
	system time =       0.26 seconds =       0.00 minutes
	total time  =          5 seconds =       0.08 minutes

  //>>>>>>>>>>>>>>>>>>>>>>>>>>>>>>>>>>>//
  //            Monomer B HF           //
  //<<<<<<<<<<<<<<<<<<<<<<<<<<<<<<<<<<<//


  No DF_BASIS_SCF auxiliary basis selected, defaulting to aug-cc-pvdz-jkfit


*** tstart() called on node105.bme.utexas.edu
*** at Fri Feb 14 12:16:59 2014


         ---------------------------------------------------------
                                   SCF
            by Justin Turney, Rob Parrish, and Andy Simmonett
                              RHF Reference
                        4 Threads,   7000 MiB Core
         ---------------------------------------------------------

  ==> Geometry <==

    Molecular point group: c1
    Full point group: C1

    Geometry (in Angstrom), charge = 0, multiplicity = 1:

       Center              X                  Y                   Z       
    ------------   -----------------  -----------------  -----------------
           O(Gh)     -0.808049107578     0.437811095645    -0.003227971114
           H(Gh)      0.156219688422     0.405338550645    -0.002874241114
           C(Gh)     -1.269478026578    -0.897640881355     0.005044768886
           H(Gh)     -2.355764528578    -0.866254445355     0.004182347886
           H(Gh)     -0.947452831578    -1.457125441355    -0.876484234114
           H(Gh)     -0.948514916578    -1.445820227355     0.894037667886
           O          1.743533408422     0.353247069645    -0.001170369114
           H          2.182737547422     0.741399268645    -0.761043051114
           H          2.181417702422     0.755851348645     0.751919162886

  Running in c1 symmetry.

  Nuclear repulsion =    9.172369046433637

  Charge       = 0
  Multiplicity = 1
  Electrons    = 10
  Nalpha       = 5
  Nbeta        = 5

  ==> Algorithm <==

  SCF Algorithm Type is DF.
  DIIS enabled.
  MOM disabled.
  Fractional occupation disabled.
  Guess Type is CORE.
  Energy threshold   = 1.00e-08
  Density threshold  = 1.00e-08
  Integral threshold = 0.00e+00

  ==> Primary Basis <==

  Basis Set: AUG-CC-PVDZ
    Number of shells: 57
    Number of basis function: 123
    Number of Cartesian functions: 129
    Spherical Harmonics?: true
    Max angular momentum: 2

  ==> Pre-Iterations <==

   -------------------------------------------------------
    Irrep   Nso     Nmo     Nalpha   Nbeta   Ndocc  Nsocc
   -------------------------------------------------------
     A        123     123       0       0       0       0
   -------------------------------------------------------
    Total     123     123       5       5       5       0
   -------------------------------------------------------

 OEINTS: Wrapper to libmints.
   by Justin Turney

   Calculation information:
      Number of atoms:                   9
      Number of AO shells:              57
      Number of SO shells:              57
      Number of primitives:            117
      Number of atomic orbitals:       129
      Number of basis functions:       123

      Number of irreps:                  1
      Number of functions per irrep: [ 123 ]

      Overlap, kinetic, potential, dipole, and quadrupole integrals
        stored in file 35.

  ==> Integral Setup <==

  ==> DFJK: Density-Fitted J/K Matrices <==

    J tasked:                  Yes
    K tasked:                  Yes
    wK tasked:                  No
    OpenMP threads:              4
    Integrals threads:           4
    Memory (MB):              5006
    Algorithm:                Core
    Integral Cache:           LOAD
    Schwarz Cutoff:          0E+00
    Fitting Condition:       1E-12

   => Auxiliary Basis Set <=

  Basis Set: aug-cc-pvdz-jkfit
    Number of shells: 156
    Number of basis function: 450
    Number of Cartesian functions: 513
    Spherical Harmonics?: true
    Max angular momentum: 3

  Minimum eigenvalue in the overlap matrix is 4.8826953379E-04.
  Using Symmetric Orthogonalization.
  SCF Guess: Core (One-Electron) Hamiltonian.

  Guess energy:   -58.69568800430107

  ==> Iterations <==

                        Total Energy        Delta E     RMS |[F,P]|

   @RHF iter   1:   -68.29905336397030   -6.82991e+01   2.82758e-02 
   @RHF iter   2:   -65.07318309735879    3.22587e+00   2.11204e-02 DIIS
   @RHF iter   3:   -74.98223829975436   -9.90906e+00   1.33303e-02 DIIS
   @RHF iter   4:   -75.82190178035370   -8.39663e-01   5.83622e-03 DIIS
   @RHF iter   5:   -76.04033150429100   -2.18430e-01   4.86980e-04 DIIS
   @RHF iter   6:   -76.04150595508276   -1.17445e-03   2.25777e-04 DIIS
   @RHF iter   7:   -76.04176945009547   -2.63495e-04   2.59493e-05 DIIS
   @RHF iter   8:   -76.04177448433461   -5.03424e-06   4.38105e-06 DIIS
   @RHF iter   9:   -76.04177471879140   -2.34457e-07   9.44334e-07 DIIS
   @RHF iter  10:   -76.04177472699004   -8.19864e-09   1.87700e-07 DIIS
   @RHF iter  11:   -76.04177472731595   -3.25912e-10   1.46999e-08 DIIS
   @RHF iter  12:   -76.04177472731973   -3.78009e-12   3.52134e-09 DIIS

  ==> Post-Iterations <==

	Orbital Energies (a.u.)
	-----------------------

	Doubly Occupied:                                                      

	   1A    -20.578214     2A     -1.355573     3A     -0.716768  
	   4A     -0.585798     5A     -0.509160  

	Virtual:                                                              

	   6A      0.030393     7A      0.043350     8A      0.054071  
	   9A      0.063723    10A      0.075947    11A      0.076631  
	  12A      0.127433    13A      0.132069    14A      0.142979  
	  15A      0.160443    16A      0.191709    17A      0.206261  
	  18A      0.220227    19A      0.224535    20A      0.239112  
	  21A      0.247514    22A      0.276600    23A      0.294367  
	  24A      0.308327    25A      0.339181    26A      0.342787  
	  27A      0.357160    28A      0.373243    29A      0.405028  
	  30A      0.431315    31A      0.433593    32A      0.444511  
	  33A      0.479276    34A      0.502711    35A      0.526769  
	  36A      0.539522    37A      0.548447    38A      0.559956  
	  39A      0.571678    40A      0.592685    41A      0.598904  
	  42A      0.653291    43A      0.668620    44A      0.683653  
	  45A      0.694373    46A      0.695168    47A      0.703713  
	  48A      0.739342    49A      0.744640    50A      0.788494  
	  51A      0.809223    52A      0.819751    53A      0.855645  
	  54A      0.855811    55A      0.877481    56A      0.922644  
	  57A      0.974647    58A      1.002315    59A      1.122328  
	  60A      1.143927    61A      1.208133    62A      1.222701  
	  63A      1.229793    64A      1.242729    65A      1.388679  
	  66A      1.429265    67A      1.487362    68A      1.518457  
	  69A      1.540073    70A      1.553384    71A      1.585634  
	  72A      1.664801    73A      1.697898    74A      1.882182  
	  75A      1.942252    76A      1.976615    77A      2.018694  
	  78A      2.042217    79A      2.126163    80A      2.179922  
	  81A      2.251985    82A      2.269424    83A      2.275256  
	  84A      2.338031    85A      2.363942    86A      2.392516  
	  87A      2.495381    88A      2.532646    89A      2.613233  
	  90A      2.621291    91A      2.641068    92A      2.682788  
	  93A      2.771786    94A      2.811249    95A      2.822250  
	  96A      2.848492    97A      3.032777    98A      3.092201  
	  99A      3.092973   100A      3.198199   101A      3.243325  
	 102A      3.244688   103A      3.433940   104A      3.739386  
	 105A      3.755113   106A      3.788330   107A      3.940837  
	 108A      4.110313   109A      4.270563   110A      4.351440  
	 111A      4.655331   112A      4.986801   113A      5.039250  
	 114A      5.041817   115A      5.163036   116A      5.173466  
	 117A      5.441410   118A      5.638962   119A      6.028917  
	 120A      6.545195   121A      7.306877   122A     18.521558  
	 123A     33.599952  

	Final Occupation by Irrep:
	          A 
	DOCC [     5 ]

  Energy converged.

  @RHF Final Energy:   -76.04177472731973

   => Energetics <=

    Nuclear Repulsion Energy =              9.1723690464336372
    One-Electron Energy =                -122.9372611714937875
    Two-Electron Energy =                  37.7231173977404239
    DFT Exchange-Correlation Energy =       0.0000000000000000
    Empirical Dispersion Energy =           0.0000000000000000
    Total Energy =                        -76.0417747273197335



Properties will be evaluated at   0.000000,   0.000000,   0.000000 Bohr
  ==> Properties <==


Properties computed using the SCF density density matrix
  Nuclear Dipole Moment: (a.u.)
     X:    34.6055      Y:     8.1697      Z:    -0.0349

  Electronic Dipole Moment: (a.u.)
     X:   -34.0242      Y:    -7.6429      Z:     0.0304

  Dipole Moment: (a.u.)
     X:     0.5813      Y:     0.5268      Z:    -0.0045     Total:     0.7845

  Dipole Moment: (Debye)
     X:     1.4774      Y:     1.3390      Z:    -0.0115     Total:     1.9940


  Saving occupied orbitals to File 180.

  Saving SAPT 2-MONOMER_B file.

*** tstop() called on node105.bme.utexas.edu at Fri Feb 14 12:17:00 2014
Module time:
	user time   =       4.72 seconds =       0.08 minutes
	system time =       0.08 seconds =       0.00 minutes
	total time  =          1 seconds =       0.02 minutes
Total time:
	user time   =      18.66 seconds =       0.31 minutes
	system time =       0.34 seconds =       0.01 minutes
	total time  =          6 seconds =       0.10 minutes
  No DF_BASIS_SAPT auxiliary basis selected, defaulting to aug-cc-pvdz-ri

  //>>>>>>>>>>>>>>>>>>>>>>>>>>>>>>>>>>>//
  //               SAPT2+              //
  //<<<<<<<<<<<<<<<<<<<<<<<<<<<<<<<<<<<//


*** tstart() called on node105.bme.utexas.edu
*** at Fri Feb 14 12:17:00 2014

        SAPT2+  
    Ed Hohenstein
     6 June 2009

      Orbital Information
  --------------------------
    NSO        =       123
    NMO        =       123
    NRI        =       354
    NOCC A     =         9
    NOCC B     =         5
    FOCC A     =         2
    FOCC B     =         1
    NVIR A     =       114
    NVIR B     =       118

    Estimated memory usage: 66.5 MB

    Elst10,r            =    -0.026932499886 H
    Exch10 (S^2)        =     0.039228039897 H
    Exch10              =     0.040097234473 H
    Ind20,r (A<-B)      =    -0.007256254612 H
    Ind20,r (B<-A)      =    -0.010054462229 H
    Ind20,r             =    -0.017310716841 H
    Exch-Ind20,r (A<-B) =     0.006183560480 H
    Exch-Ind20,r (B<-A) =     0.004964511727 H
    Exch-Ind20,r        =     0.011148072206 H
    Disp20              =    -0.009046992958 H
    Exch-Disp20         =     0.002060783895 H
    Elst12,r            =    -0.000603204800 H
    Exch11              =     0.000015039020 H
    Exch12              =     0.005680857105 H
    Ind22               =    -0.003145225223 H
    Disp21              =     0.000649141840 H
    Disp22 (SDQ)        =    -0.000418058218 H

    (i =   1 of   4)          6 seconds
    (i =   2 of   4)         12 seconds
    (i =   3 of   4)         18 seconds
    (i =   4 of   4)         24 seconds

    Disp220 (T)         =    -0.000701790466 H

    (i =   1 of   7)          3 seconds
    (i =   2 of   7)          6 seconds
    (i =   3 of   7)          9 seconds
    (i =   4 of   7)         13 seconds
    (i =   5 of   7)         16 seconds
    (i =   6 of   7)         19 seconds
    (i =   7 of   7)         22 seconds

    Disp202 (T)         =    -0.000612962502 H

    Disp22 (T)          =    -0.001314752969 H

    SAPT Results  
  -----------------------------------------------------------------------
    Electrostatics         -27.53570469 mH     -17.27891628 kcal mol^-1
      Elst10,r             -26.93249989 mH     -16.90039954 kcal mol^-1
      Elst12,r              -0.60320480 mH      -0.37851674 kcal mol^-1

    Exchange                45.79313060 mH      28.73562449 kcal mol^-1
      Exch10                40.09723447 mH      25.16139556 kcal mol^-1
      Exch10(S^2)           39.22803990 mH      24.61596770 kcal mol^-1
      Exch11(S^2)            0.01503902 mH       0.00943713 kcal mol^-1
      Exch12(S^2)            5.68085711 mH       3.56479180 kcal mol^-1

    Induction              -12.53533020 mH      -7.86603878 kcal mol^-1
      Ind20,r              -17.31071684 mH     -10.86263927 kcal mol^-1
      Ind22                 -3.14522522 mH      -1.97365871 kcal mol^-1
      Exch-Ind20,r          11.14807221 mH       6.99552122 kcal mol^-1
      Exch-Ind22             2.02551969 mH       1.27103285 kcal mol^-1
      delta HF,r (2)        -5.25298003 mH      -3.29629487 kcal mol^-1

    Dispersion              -8.06987841 mH      -5.06392537 kcal mol^-1
      Disp20                -9.04699296 mH      -5.67707403 kcal mol^-1
      Disp21                 0.64914184 mH       0.40734267 kcal mol^-1
      Disp22 (SDQ)          -0.41805822 mH      -0.26233550 kcal mol^-1
      Disp22 (T)            -1.31475297 mH      -0.82501998 kcal mol^-1
      Exch-Disp20            2.06078390 mH       1.29316147 kcal mol^-1

    Total HF                 1.74910992 mH       1.09758309 kcal mol^-1
    Total SAPT0             -5.23709914 mH      -3.28632946 kcal mol^-1
    Total SAPT2             -1.26411334 mH      -0.79324313 kcal mol^-1
    Total SAPT2+            -2.34778269 mH      -1.47325594 kcal mol^-1

*** tstop() called on node105.bme.utexas.edu at Fri Feb 14 12:18:06 2014
Module time:
	user time   =     259.77 seconds =       4.33 minutes
	system time =       3.64 seconds =       0.06 minutes
	total time  =         66 seconds =       1.10 minutes
Total time:
	user time   =     278.44 seconds =       4.64 minutes
	system time =       3.98 seconds =       0.07 minutes
	total time  =         72 seconds =       1.20 minutes

*** PSI4 exiting successfully. Buy a developer a beer!
