
    -----------------------------------------------------------------------
          Psi4: An Open-Source Ab Initio Electronic Structure Package
                               Psi4 1.4a2.dev224 

                         Git: Rev {master} e453b16 


    R. M. Parrish, L. A. Burns, D. G. A. Smith, A. C. Simmonett,
    A. E. DePrince III, E. G. Hohenstein, U. Bozkaya, A. Yu. Sokolov,
    R. Di Remigio, R. M. Richard, J. F. Gonthier, A. M. James,
    H. R. McAlexander, A. Kumar, M. Saitow, X. Wang, B. P. Pritchard,
    P. Verma, H. F. Schaefer III, K. Patkowski, R. A. King, E. F. Valeev,
    F. A. Evangelista, J. M. Turney, T. D. Crawford, and C. D. Sherrill,
    J. Chem. Theory Comput. 13(7) pp 3185--3197 (2017).
    (doi: 10.1021/acs.jctc.7b00174)


                         Additional Contributions by
    P. Kraus, H. Kruse, M. H. Lechner, M. C. Schieber, R. A. Shaw,
    A. Alenaizan, R. Galvelis, Z. L. Glick, S. Lehtola, and J. P. Misiewicz

    -----------------------------------------------------------------------


    Psi4 started on: Thursday, 23 April 2020 05:11PM

    Process ID: 15148
    Host:       node144.bme.utexas.edu
    PSIDATADIR: /home/liuchw/anaconda3/envs/psi4env/share/psi4
    Memory:     500.0 MiB
    Threads:    8
    
  ==> Input File <==

--------------------------------------------------------------------------
#Generated by lconvert.py for sapt job

memory 20 GB

molecule  {
0 1
  N      -0.533460   -0.279590    0.107000
  H      -0.629150   -1.248420    0.382850
  H      -1.122600   -0.166160   -0.707760
  C      -1.016910    0.588490    1.187370
  H      -0.912760    1.625550    0.879520
  H      -2.054740    0.415080    1.478500
  H      -0.385020    0.448800    2.060610
--
0 1
  O       2.682490    1.145490    0.189930
  H       1.864980    0.649220    0.016780
  H       3.264390    0.886990   -0.525810
units angstrom
no_reorient
symmetry c1
}

set {
scf_type DF
basis aug-cc-pvdz
freeze_core True
guess SAD
}
energy('sapt2+')
--------------------------------------------------------------------------

  Memory set to  18.626 GiB by Python driver.

Scratch directory: /scratch/liuchw/

  //>>>>>>>>>>>>>>>>>>>>>>>>>>>>>>>>>>>//
  //              Dimer HF             //
  //<<<<<<<<<<<<<<<<<<<<<<<<<<<<<<<<<<<//


*** tstart() called on node144.bme.utexas.edu
*** at Thu Apr 23 17:11:36 2020

   => Loading Basis Set <=

    Name: AUG-CC-PVDZ
    Role: ORBITAL
    Keyword: BASIS
    atoms 1              entry N          line   218 file /home/liuchw/anaconda3/envs/psi4env/share/psi4/basis/aug-cc-pvdz.gbs 
    atoms 2-3, 5-7, 9-10 entry H          line    40 file /home/liuchw/anaconda3/envs/psi4env/share/psi4/basis/aug-cc-pvdz.gbs 
    atoms 4              entry C          line   182 file /home/liuchw/anaconda3/envs/psi4env/share/psi4/basis/aug-cc-pvdz.gbs 
    atoms 8              entry O          line   254 file /home/liuchw/anaconda3/envs/psi4env/share/psi4/basis/aug-cc-pvdz.gbs 


         ---------------------------------------------------------
                                   SCF
               by Justin Turney, Rob Parrish, Andy Simmonett
                          and Daniel G. A. Smith
                              RHF Reference
                        8 Threads,  19073 MiB Core
         ---------------------------------------------------------

  ==> Geometry <==

    Molecular point group: c1
    Full point group: C1

    Geometry (in Angstrom), charge = 0, multiplicity = 1:

       Center              X                  Y                   Z               Mass       
    ------------   -----------------  -----------------  -----------------  -----------------
         N           -1.007612590852    -0.770903129454    -0.349598601368    14.003074004430
         H           -1.103302590852    -1.739733129454    -0.073748601368     1.007825032230
         H           -1.596752590852    -0.657473129454    -1.164358601368     1.007825032230
         C           -1.491062590852     0.097176870546     0.730771398632    12.000000000000
         H           -1.386912590852     1.134236870546     0.422921398632     1.007825032230
         H           -2.528892590852    -0.076233129454     1.021901398632     1.007825032230
         H           -0.859172590852    -0.042513129454     1.604011398632     1.007825032230
         O            2.208337409148     0.654176870546    -0.266668601368    15.994914619570
         H            1.390827409148     0.157906870546    -0.439818601368     1.007825032230
         H            2.790237409148     0.395676870546    -0.982408601368     1.007825032230

  Running in c1 symmetry.

  Rotational constants: A =      0.73692  B =      0.10704  C =      0.09654 [cm^-1]
  Rotational constants: A =  22092.40060  B =   3208.93872  C =   2894.09608 [MHz]
  Nuclear repulsion =   76.804175883822793

  Charge       = 0
  Multiplicity = 1
  Electrons    = 28
  Nalpha       = 14
  Nbeta        = 14

  ==> Algorithm <==

  SCF Algorithm Type is DF.
  DIIS enabled.
  MOM disabled.
  Fractional occupation disabled.
  Guess Type is SAD.
  Energy threshold   = 1.00e-08
  Density threshold  = 1.00e-08
  Integral threshold = 0.00e+00

  ==> Primary Basis <==

  Basis Set: AUG-CC-PVDZ
    Blend: AUG-CC-PVDZ
    Number of shells: 62
    Number of basis function: 132
    Number of Cartesian functions: 138
    Spherical Harmonics?: true
    Max angular momentum: 2

   => Loading Basis Set <=

    Name: (AUG-CC-PVDZ AUX)
    Role: JKFIT
    Keyword: DF_BASIS_SCF
    atoms 1              entry N          line   212 file /home/liuchw/anaconda3/envs/psi4env/share/psi4/basis/aug-cc-pvdz-jkfit.gbs 
    atoms 2-3, 5-7, 9-10 entry H          line    70 file /home/liuchw/anaconda3/envs/psi4env/share/psi4/basis/aug-cc-pvdz-jkfit.gbs 
    atoms 4              entry C          line   154 file /home/liuchw/anaconda3/envs/psi4env/share/psi4/basis/aug-cc-pvdz-jkfit.gbs 
    atoms 8              entry O          line   270 file /home/liuchw/anaconda3/envs/psi4env/share/psi4/basis/aug-cc-pvdz-jkfit.gbs 

  ==> Pre-Iterations <==

   -------------------------------------------------------
    Irrep   Nso     Nmo     Nalpha   Nbeta   Ndocc  Nsocc
   -------------------------------------------------------
     A        132     132       0       0       0       0
   -------------------------------------------------------
    Total     132     132      14      14      14       0
   -------------------------------------------------------

  ==> Integral Setup <==

  ==> DiskDFJK: Density-Fitted J/K Matrices <==

    J tasked:                  Yes
    K tasked:                  Yes
    wK tasked:                  No
    OpenMP threads:              8
    Integrals threads:           8
    Memory [MiB]:            14305
    Algorithm:                Core
    Integral Cache:           SAVE
    Schwarz Cutoff:          1E-12
    Fitting Condition:       1E-10

   => Auxiliary Basis Set <=

  Basis Set: (AUG-CC-PVDZ AUX)
    Blend: AUG-CC-PVDZ-JKFIT
    Number of shells: 168
    Number of basis function: 482
    Number of Cartesian functions: 548
    Spherical Harmonics?: true
    Max angular momentum: 3

  Minimum eigenvalue in the overlap matrix is 2.9348634782E-04.
  Using Symmetric Orthogonalization.

  SCF Guess: Superposition of Atomic Densities via on-the-fly atomic UHF.

  ==> Iterations <==

                           Total Energy        Delta E     RMS |[F,P]|

   @DF-RHF iter SAD:  -170.10674630382431   -1.70107e+02   0.00000e+00 
   @DF-RHF iter   1:  -171.08560852866731   -9.78862e-01   4.79404e-03 DIIS
   @DF-RHF iter   2:  -171.22284441527864   -1.37236e-01   2.80759e-03 DIIS
   @DF-RHF iter   3:  -171.27614813804024   -5.33037e-02   3.24272e-04 DIIS
   @DF-RHF iter   4:  -171.27770781576220   -1.55968e-03   1.00909e-04 DIIS
   @DF-RHF iter   5:  -171.27782744103274   -1.19625e-04   2.60976e-05 DIIS
   @DF-RHF iter   6:  -171.27783744780714   -1.00068e-05   6.91568e-06 DIIS
   @DF-RHF iter   7:  -171.27783834472973   -8.96923e-07   2.42302e-06 DIIS
   @DF-RHF iter   8:  -171.27783844277477   -9.80450e-08   6.34515e-07 DIIS
   @DF-RHF iter   9:  -171.27783845422528   -1.14505e-08   1.20554e-07 DIIS
   @DF-RHF iter  10:  -171.27783845471720   -4.91923e-10   2.27529e-08 DIIS
   @DF-RHF iter  11:  -171.27783845473348   -1.62856e-11   6.71376e-09 DIIS
  Energy and wave function converged.


  ==> Post-Iterations <==

    Orbital Energies [Eh]
    ---------------------

    Doubly Occupied:                                                      

       1A    -20.555467     2A    -15.562253     3A    -11.254089  
       4A     -1.331036     5A     -1.184079     6A     -0.905913  
       7A     -0.692417     8A     -0.672990     9A     -0.613338  
      10A     -0.565906    11A     -0.562962    12A     -0.524385  
      13A     -0.487210    14A     -0.407316  

    Virtual:                                                              

      15A      0.031692    16A      0.046872    17A      0.052157  
      18A      0.052945    19A      0.068986    20A      0.083409  
      21A      0.111699    22A      0.116733    23A      0.147809  
      24A      0.167905    25A      0.171246    26A      0.185478  
      27A      0.192524    28A      0.197666    29A      0.219217  
      30A      0.236062    31A      0.242610    32A      0.258999  
      33A      0.284405    34A      0.289912    35A      0.313285  
      36A      0.326597    37A      0.341553    38A      0.352635  
      39A      0.386307    40A      0.390883    41A      0.414605  
      42A      0.427123    43A      0.430491    44A      0.446049  
      45A      0.463749    46A      0.472743    47A      0.478997  
      48A      0.496017    49A      0.508805    50A      0.521129  
      51A      0.531348    52A      0.564811    53A      0.576034  
      54A      0.580400    55A      0.602396    56A      0.628958  
      57A      0.637460    58A      0.660238    59A      0.671137  
      60A      0.681136    61A      0.684708    62A      0.694636  
      63A      0.721214    64A      0.745063    65A      0.750560  
      66A      0.753611    67A      0.818221    68A      0.859902  
      69A      0.873985    70A      0.921362    71A      0.954840  
      72A      1.017239    73A      1.034680    74A      1.097218  
      75A      1.102309    76A      1.114608    77A      1.121683  
      78A      1.136180    79A      1.206934    80A      1.245344  
      81A      1.313303    82A      1.337681    83A      1.363510  
      84A      1.372506    85A      1.508387    86A      1.541775  
      87A      1.563375    88A      1.581422    89A      1.709857  
      90A      1.733586    91A      1.739127    92A      1.751157  
      93A      1.898093    94A      1.913619    95A      1.916401  
      96A      1.954043    97A      2.044508    98A      2.060487  
      99A      2.066200   100A      2.128477   101A      2.143257  
     102A      2.145612   103A      2.179110   104A      2.185894  
     105A      2.282086   106A      2.319351   107A      2.367125  
     108A      2.393509   109A      2.414614   110A      2.478766  
     111A      2.481338   112A      2.535709   113A      2.573710  
     114A      2.599700   115A      2.699453   116A      2.781001  
     117A      2.793296   118A      2.840402   119A      2.881637  
     120A      2.887750   121A      2.928921   122A      3.018806  
     123A      3.060519   124A      3.064815   125A      3.136774  
     126A      3.365405   127A      3.648353   128A      3.705126  
     129A      3.754637   130A      3.760985   131A      4.093297  
     132A      4.360730  

    Final Occupation by Irrep:
              A 
    DOCC [    14 ]

  @DF-RHF Final Energy:  -171.27783845473348

   => Energetics <=

    Nuclear Repulsion Energy =             76.8041758838227935
    One-Electron Energy =                -385.5253050897674711
    Two-Electron Energy =                 137.4432907512112081
    Total Energy =                       -171.2778384547334838

Computation Completed


Properties will be evaluated at   0.000000,   0.000000,   0.000000 [a0]

Properties computed using the SCF density matrix

  Nuclear Dipole Moment: [e a0]
     X:    -3.0745      Y:    -0.7710      Z:     0.3639

  Electronic Dipole Moment: [e a0]
     X:     2.2301      Y:     0.1081      Z:    -0.8042

  Dipole Moment: [e a0]
     X:    -0.8444      Y:    -0.6629      Z:    -0.4402     Total:     1.1603

  Dipole Moment: [D]
     X:    -2.1462      Y:    -1.6850      Z:    -1.1190     Total:     2.9491


*** tstop() called on node144.bme.utexas.edu at Thu Apr 23 17:11:44 2020
Module time:
	user time   =      32.60 seconds =       0.54 minutes
	system time =       2.45 seconds =       0.04 minutes
	total time  =          8 seconds =       0.13 minutes
Total time:
	user time   =      32.60 seconds =       0.54 minutes
	system time =       2.45 seconds =       0.04 minutes
	total time  =          8 seconds =       0.13 minutes

  //>>>>>>>>>>>>>>>>>>>>>>>>>>>>>>>>>>>//
  //            Monomer A HF           //
  //<<<<<<<<<<<<<<<<<<<<<<<<<<<<<<<<<<<//


*** tstart() called on node144.bme.utexas.edu
*** at Thu Apr 23 17:11:44 2020

   => Loading Basis Set <=

    Name: AUG-CC-PVDZ
    Role: ORBITAL
    Keyword: BASIS
    atoms 1              entry N          line   218 file /home/liuchw/anaconda3/envs/psi4env/share/psi4/basis/aug-cc-pvdz.gbs 
    atoms 2-3, 5-7, 9-10 entry H          line    40 file /home/liuchw/anaconda3/envs/psi4env/share/psi4/basis/aug-cc-pvdz.gbs 
    atoms 4              entry C          line   182 file /home/liuchw/anaconda3/envs/psi4env/share/psi4/basis/aug-cc-pvdz.gbs 
    atoms 8              entry O          line   254 file /home/liuchw/anaconda3/envs/psi4env/share/psi4/basis/aug-cc-pvdz.gbs 


         ---------------------------------------------------------
                                   SCF
               by Justin Turney, Rob Parrish, Andy Simmonett
                          and Daniel G. A. Smith
                              RHF Reference
                        8 Threads,  19073 MiB Core
         ---------------------------------------------------------

  ==> Geometry <==

    Molecular point group: c1
    Full point group: C1

    Geometry (in Angstrom), charge = 0, multiplicity = 1:

       Center              X                  Y                   Z               Mass       
    ------------   -----------------  -----------------  -----------------  -----------------
         N           -1.007612590852    -0.770903129454    -0.349598601368    14.003074004430
         H           -1.103302590852    -1.739733129454    -0.073748601368     1.007825032230
         H           -1.596752590852    -0.657473129454    -1.164358601368     1.007825032230
         C           -1.491062590852     0.097176870546     0.730771398632    12.000000000000
         H           -1.386912590852     1.134236870546     0.422921398632     1.007825032230
         H           -2.528892590852    -0.076233129454     1.021901398632     1.007825032230
         H           -0.859172590852    -0.042513129454     1.604011398632     1.007825032230
      Gh(O)           2.208337409148     0.654176870546    -0.266668601368    15.994914619570
      Gh(H)           1.390827409148     0.157906870546    -0.439818601368     1.007825032230
      Gh(H)           2.790237409148     0.395676870546    -0.982408601368     1.007825032230

  Running in c1 symmetry.

  Rotational constants: A =      0.73692  B =      0.10704  C =      0.09654 [cm^-1]
  Rotational constants: A =  22092.40060  B =   3208.93872  C =   2894.09608 [MHz]
  Nuclear repulsion =   42.043437963381770

  Charge       = 0
  Multiplicity = 1
  Electrons    = 18
  Nalpha       = 9
  Nbeta        = 9

  ==> Algorithm <==

  SCF Algorithm Type is DF.
  DIIS enabled.
  MOM disabled.
  Fractional occupation disabled.
  Guess Type is SAD.
  Energy threshold   = 1.00e-08
  Density threshold  = 1.00e-08
  Integral threshold = 0.00e+00

  ==> Primary Basis <==

  Basis Set: AUG-CC-PVDZ
    Blend: AUG-CC-PVDZ
    Number of shells: 62
    Number of basis function: 132
    Number of Cartesian functions: 138
    Spherical Harmonics?: true
    Max angular momentum: 2

   => Loading Basis Set <=

    Name: (AUG-CC-PVDZ AUX)
    Role: JKFIT
    Keyword: DF_BASIS_SCF
    atoms 1              entry N          line   212 file /home/liuchw/anaconda3/envs/psi4env/share/psi4/basis/aug-cc-pvdz-jkfit.gbs 
    atoms 2-3, 5-7, 9-10 entry H          line    70 file /home/liuchw/anaconda3/envs/psi4env/share/psi4/basis/aug-cc-pvdz-jkfit.gbs 
    atoms 4              entry C          line   154 file /home/liuchw/anaconda3/envs/psi4env/share/psi4/basis/aug-cc-pvdz-jkfit.gbs 
    atoms 8              entry O          line   270 file /home/liuchw/anaconda3/envs/psi4env/share/psi4/basis/aug-cc-pvdz-jkfit.gbs 

  ==> Pre-Iterations <==

   -------------------------------------------------------
    Irrep   Nso     Nmo     Nalpha   Nbeta   Ndocc  Nsocc
   -------------------------------------------------------
     A        132     132       0       0       0       0
   -------------------------------------------------------
    Total     132     132       9       9       9       0
   -------------------------------------------------------

  ==> Integral Setup <==

  ==> DiskDFJK: Density-Fitted J/K Matrices <==

    J tasked:                  Yes
    K tasked:                  Yes
    wK tasked:                  No
    OpenMP threads:              8
    Integrals threads:           8
    Memory [MiB]:            14305
    Algorithm:                Core
    Integral Cache:           LOAD
    Schwarz Cutoff:          1E-12
    Fitting Condition:       1E-10

   => Auxiliary Basis Set <=

  Basis Set: (AUG-CC-PVDZ AUX)
    Blend: AUG-CC-PVDZ-JKFIT
    Number of shells: 168
    Number of basis function: 482
    Number of Cartesian functions: 548
    Spherical Harmonics?: true
    Max angular momentum: 3

  Minimum eigenvalue in the overlap matrix is 2.9348634782E-04.
  Using Symmetric Orthogonalization.

  SCF Guess: Superposition of Atomic Densities via on-the-fly atomic UHF.

  ==> Iterations <==

                           Total Energy        Delta E     RMS |[F,P]|

   @DF-RHF iter SAD:   -94.60512773046008   -9.46051e+01   0.00000e+00 
   @DF-RHF iter   1:   -95.11515348630252   -5.10026e-01   3.47758e-03 DIIS
   @DF-RHF iter   2:   -95.20318812478524   -8.80346e-02   1.83434e-03 DIIS
   @DF-RHF iter   3:   -95.22961645336626   -2.64283e-02   2.67218e-04 DIIS
   @DF-RHF iter   4:   -95.23077541155375   -1.15896e-03   7.53859e-05 DIIS
   @DF-RHF iter   5:   -95.23084663239315   -7.12208e-05   1.74829e-05 DIIS
   @DF-RHF iter   6:   -95.23085208575689   -5.45336e-06   3.40965e-06 DIIS
   @DF-RHF iter   7:   -95.23085240662351   -3.20867e-07   7.57373e-07 DIIS
   @DF-RHF iter   8:   -95.23085242485472   -1.82312e-08   1.79028e-07 DIIS
   @DF-RHF iter   9:   -95.23085242605957   -1.20485e-09   4.44258e-08 DIIS
   @DF-RHF iter  10:   -95.23085242613614   -7.65681e-11   1.05556e-08 DIIS
   @DF-RHF iter  11:   -95.23085242614019   -4.05009e-12   2.64469e-09 DIIS
  Energy and wave function converged.


  ==> Post-Iterations <==

    Orbital Energies [Eh]
    ---------------------

    Doubly Occupied:                                                      

       1A    -15.548434     2A    -11.247541     3A     -1.171680  
       4A     -0.897717     5A     -0.661421     6A     -0.603568  
       7A     -0.555371     8A     -0.516697     9A     -0.392492  

    Virtual:                                                              

      10A      0.034007    11A      0.047439    12A      0.051217  
      13A      0.053562    14A      0.069777    15A      0.082446  
      16A      0.104560    17A      0.119586    18A      0.145466  
      19A      0.154729    20A      0.169942    21A      0.181710  
      22A      0.185243    23A      0.187990    24A      0.199033  
      25A      0.216600    26A      0.224319    27A      0.253360  
      28A      0.267821    29A      0.295001    30A      0.320623  
      31A      0.333427    32A      0.354618    33A      0.375166  
      34A      0.396345    35A      0.403490    36A      0.430453  
      37A      0.447057    38A      0.453576    39A      0.461358  
      40A      0.464502    41A      0.484311    42A      0.489745  
      43A      0.495431    44A      0.508547    45A      0.522187  
      46A      0.535878    47A      0.566661    48A      0.572387  
      49A      0.584090    50A      0.592607    51A      0.626706  
      52A      0.632873    53A      0.638102    54A      0.665390  
      55A      0.669758    56A      0.683090    57A      0.699535  
      58A      0.711734    59A      0.748640    60A      0.751164  
      61A      0.768558    62A      0.798802    63A      0.871066  
      64A      0.906553    65A      0.927297    66A      0.944366  
      67A      1.021713    68A      1.029028    69A      1.072237  
      70A      1.114384    71A      1.116204    72A      1.130574  
      73A      1.162939    74A      1.254599    75A      1.290028  
      76A      1.312094    77A      1.326213    78A      1.344562  
      79A      1.358359    80A      1.408044    81A      1.443205  
      82A      1.462007    83A      1.580437    84A      1.583355  
      85A      1.734224    86A      1.758944    87A      1.778143  
      88A      1.906417    89A      1.921406    90A      1.929429  
      91A      1.967934    92A      2.067192    93A      2.069878  
      94A      2.155751    95A      2.161224    96A      2.187368  
      97A      2.212287    98A      2.282277    99A      2.329535  
     100A      2.345707   101A      2.378047   102A      2.387753  
     103A      2.421176   104A      2.479361   105A      2.493495  
     106A      2.516274   107A      2.564214   108A      2.608913  
     109A      2.665353   110A      2.711341   111A      2.742889  
     112A      2.817785   113A      2.890671   114A      2.899662  
     115A      2.939343   116A      3.065447   117A      3.074398  
     118A      3.144764   119A      3.376712   120A      3.470214  
     121A      3.663688   122A      3.969921   123A      4.096231  
     124A      4.915346   125A      4.959339   126A      5.006737  
     127A      5.209734   128A      5.488590   129A      5.664242  
     130A      6.611289   131A      7.065612   132A     33.577029  

    Final Occupation by Irrep:
              A 
    DOCC [     9 ]

  @DF-RHF Final Energy:   -95.23085242614019

   => Energetics <=

    Nuclear Repulsion Energy =             42.0434379633817699
    One-Electron Energy =                -211.3587360937448807
    Two-Electron Energy =                  74.0844457042229294
    Total Energy =                        -95.2308524261401885

Computation Completed


Properties will be evaluated at   0.000000,   0.000000,   0.000000 [a0]

Properties computed using the SCF density matrix

  Nuclear Dipole Moment: [e a0]
     X:   -44.3607      Y:   -11.7068      Z:     7.0830

  Electronic Dipole Moment: [e a0]
     X:    43.8189      Y:    11.5745      Z:    -6.9689

  Dipole Moment: [e a0]
     X:    -0.5418      Y:    -0.1323      Z:     0.1141     Total:     0.5693

  Dipole Moment: [D]
     X:    -1.3772      Y:    -0.3362      Z:     0.2901     Total:     1.4470


*** tstop() called on node144.bme.utexas.edu at Thu Apr 23 17:11:50 2020
Module time:
	user time   =      22.18 seconds =       0.37 minutes
	system time =       1.71 seconds =       0.03 minutes
	total time  =          6 seconds =       0.10 minutes
Total time:
	user time   =      54.90 seconds =       0.91 minutes
	system time =       4.17 seconds =       0.07 minutes
	total time  =         14 seconds =       0.23 minutes

  //>>>>>>>>>>>>>>>>>>>>>>>>>>>>>>>>>>>//
  //            Monomer B HF           //
  //<<<<<<<<<<<<<<<<<<<<<<<<<<<<<<<<<<<//


*** tstart() called on node144.bme.utexas.edu
*** at Thu Apr 23 17:11:50 2020

   => Loading Basis Set <=

    Name: AUG-CC-PVDZ
    Role: ORBITAL
    Keyword: BASIS
    atoms 1              entry N          line   218 file /home/liuchw/anaconda3/envs/psi4env/share/psi4/basis/aug-cc-pvdz.gbs 
    atoms 2-3, 5-7, 9-10 entry H          line    40 file /home/liuchw/anaconda3/envs/psi4env/share/psi4/basis/aug-cc-pvdz.gbs 
    atoms 4              entry C          line   182 file /home/liuchw/anaconda3/envs/psi4env/share/psi4/basis/aug-cc-pvdz.gbs 
    atoms 8              entry O          line   254 file /home/liuchw/anaconda3/envs/psi4env/share/psi4/basis/aug-cc-pvdz.gbs 


         ---------------------------------------------------------
                                   SCF
               by Justin Turney, Rob Parrish, Andy Simmonett
                          and Daniel G. A. Smith
                              RHF Reference
                        8 Threads,  19073 MiB Core
         ---------------------------------------------------------

  ==> Geometry <==

    Molecular point group: c1
    Full point group: C1

    Geometry (in Angstrom), charge = 0, multiplicity = 1:

       Center              X                  Y                   Z               Mass       
    ------------   -----------------  -----------------  -----------------  -----------------
      Gh(N)          -1.007612590852    -0.770903129454    -0.349598601368    14.003074004430
      Gh(H)          -1.103302590852    -1.739733129454    -0.073748601368     1.007825032230
      Gh(H)          -1.596752590852    -0.657473129454    -1.164358601368     1.007825032230
      Gh(C)          -1.491062590852     0.097176870546     0.730771398632    12.000000000000
      Gh(H)          -1.386912590852     1.134236870546     0.422921398632     1.007825032230
      Gh(H)          -2.528892590852    -0.076233129454     1.021901398632     1.007825032230
      Gh(H)          -0.859172590852    -0.042513129454     1.604011398632     1.007825032230
         O            2.208337409148     0.654176870546    -0.266668601368    15.994914619570
         H            1.390827409148     0.157906870546    -0.439818601368     1.007825032230
         H            2.790237409148     0.395676870546    -0.982408601368     1.007825032230

  Running in c1 symmetry.

  Rotational constants: A =      0.73692  B =      0.10704  C =      0.09654 [cm^-1]
  Rotational constants: A =  22092.40060  B =   3208.93872  C =   2894.09608 [MHz]
  Nuclear repulsion =    9.123185630435612

  Charge       = 0
  Multiplicity = 1
  Electrons    = 10
  Nalpha       = 5
  Nbeta        = 5

  ==> Algorithm <==

  SCF Algorithm Type is DF.
  DIIS enabled.
  MOM disabled.
  Fractional occupation disabled.
  Guess Type is SAD.
  Energy threshold   = 1.00e-08
  Density threshold  = 1.00e-08
  Integral threshold = 0.00e+00

  ==> Primary Basis <==

  Basis Set: AUG-CC-PVDZ
    Blend: AUG-CC-PVDZ
    Number of shells: 62
    Number of basis function: 132
    Number of Cartesian functions: 138
    Spherical Harmonics?: true
    Max angular momentum: 2

   => Loading Basis Set <=

    Name: (AUG-CC-PVDZ AUX)
    Role: JKFIT
    Keyword: DF_BASIS_SCF
    atoms 1              entry N          line   212 file /home/liuchw/anaconda3/envs/psi4env/share/psi4/basis/aug-cc-pvdz-jkfit.gbs 
    atoms 2-3, 5-7, 9-10 entry H          line    70 file /home/liuchw/anaconda3/envs/psi4env/share/psi4/basis/aug-cc-pvdz-jkfit.gbs 
    atoms 4              entry C          line   154 file /home/liuchw/anaconda3/envs/psi4env/share/psi4/basis/aug-cc-pvdz-jkfit.gbs 
    atoms 8              entry O          line   270 file /home/liuchw/anaconda3/envs/psi4env/share/psi4/basis/aug-cc-pvdz-jkfit.gbs 

  ==> Pre-Iterations <==

   -------------------------------------------------------
    Irrep   Nso     Nmo     Nalpha   Nbeta   Ndocc  Nsocc
   -------------------------------------------------------
     A        132     132       0       0       0       0
   -------------------------------------------------------
    Total     132     132       5       5       5       0
   -------------------------------------------------------

  ==> Integral Setup <==

  ==> DiskDFJK: Density-Fitted J/K Matrices <==

    J tasked:                  Yes
    K tasked:                  Yes
    wK tasked:                  No
    OpenMP threads:              8
    Integrals threads:           8
    Memory [MiB]:            14305
    Algorithm:                Core
    Integral Cache:           LOAD
    Schwarz Cutoff:          1E-12
    Fitting Condition:       1E-10

   => Auxiliary Basis Set <=

  Basis Set: (AUG-CC-PVDZ AUX)
    Blend: AUG-CC-PVDZ-JKFIT
    Number of shells: 168
    Number of basis function: 482
    Number of Cartesian functions: 548
    Spherical Harmonics?: true
    Max angular momentum: 3

  Minimum eigenvalue in the overlap matrix is 2.9348634782E-04.
  Using Symmetric Orthogonalization.

  SCF Guess: Superposition of Atomic Densities via on-the-fly atomic UHF.

  ==> Iterations <==

                           Total Energy        Delta E     RMS |[F,P]|

   @DF-RHF iter SAD:   -75.45767443721058   -7.54577e+01   0.00000e+00 
   @DF-RHF iter   1:   -75.95630120180404   -4.98627e-01   3.43210e-03 DIIS
   @DF-RHF iter   2:   -76.00935326697265   -5.30521e-02   2.25799e-03 DIIS
   @DF-RHF iter   3:   -76.04044228722246   -3.10890e-02   1.61687e-04 DIIS
   @DF-RHF iter   4:   -76.04082672091302   -3.84434e-04   3.68235e-05 DIIS
   @DF-RHF iter   5:   -76.04084918052740   -2.24596e-05   8.39523e-06 DIIS
   @DF-RHF iter   6:   -76.04085098723905   -1.80671e-06   1.68776e-06 DIIS
   @DF-RHF iter   7:   -76.04085106414747   -7.69084e-08   2.78721e-07 DIIS
   @DF-RHF iter   8:   -76.04085106607442   -1.92695e-09   4.37519e-08 DIIS
   @DF-RHF iter   9:   -76.04085106611630   -4.18794e-11   1.14619e-08 DIIS
   @DF-RHF iter  10:   -76.04085106611927   -2.97007e-12   1.58375e-09 DIIS
  Energy and wave function converged.


  ==> Post-Iterations <==

    Orbital Energies [Eh]
    ---------------------

    Doubly Occupied:                                                      

       1A    -20.578759     2A     -1.353190     3A     -0.713894  
       4A     -0.585323     5A     -0.508941  

    Virtual:                                                              

       6A      0.021696     7A      0.041700     8A      0.050988  
       9A      0.051545    10A      0.065172    11A      0.084944  
      12A      0.096115    13A      0.112401    14A      0.128789  
      15A      0.144807    16A      0.157159    17A      0.159579  
      18A      0.170926    19A      0.173855    20A      0.210085  
      21A      0.225847    22A      0.231908    23A      0.234440  
      24A      0.280622    25A      0.314933    26A      0.326122  
      27A      0.338322    28A      0.360772    29A      0.365577  
      30A      0.375333    31A      0.403323    32A      0.408043  
      33A      0.419839    34A      0.428838    35A      0.430595  
      36A      0.439017    37A      0.442341    38A      0.458317  
      39A      0.490256    40A      0.497956    41A      0.503620  
      42A      0.510173    43A      0.562095    44A      0.587041  
      45A      0.603876    46A      0.607894    47A      0.645637  
      48A      0.660327    49A      0.671438    50A      0.687711  
      51A      0.704160    52A      0.737188    53A      0.743398  
      54A      0.774361    55A      0.804615    56A      0.812358  
      57A      0.835227    58A      0.856151    59A      0.871945  
      60A      0.883117    61A      0.918512    62A      0.928635  
      63A      0.970186    64A      0.983958    65A      1.057944  
      66A      1.088485    67A      1.091222    68A      1.121261  
      69A      1.125170    70A      1.169451    71A      1.198757  
      72A      1.229282    73A      1.272533    74A      1.311817  
      75A      1.345233    76A      1.421094    77A      1.524627  
      78A      1.547491    79A      1.673818    80A      1.893227  
      81A      1.989331    82A      2.006189    83A      2.019506  
      84A      2.071783    85A      2.091082    86A      2.115178  
      87A      2.231393    88A      2.243866    89A      2.264500  
      90A      2.295581    91A      2.340857    92A      2.349085  
      93A      2.373600    94A      2.419601    95A      2.433711  
      96A      2.509134    97A      2.515607    98A      2.553030  
      99A      2.622318   100A      2.645216   101A      2.656391  
     102A      2.755477   103A      2.789297   104A      2.822960  
     105A      2.831903   106A      2.970010   107A      2.984103  
     108A      3.023131   109A      3.085795   110A      3.264377  
     111A      3.318817   112A      3.349445   113A      3.367493  
     114A      3.590028   115A      3.685091   116A      3.707959  
     117A      3.734231   118A      3.738880   119A      3.826185  
     120A      3.840332   121A      4.010807   122A      4.098700  
     123A      4.281582   124A      4.339627   125A      4.918183  
     126A      5.062325   127A      5.127404   128A      5.145692  
     129A      5.743984   130A      6.057307   131A     18.512121  
     132A     25.379832  

    Final Occupation by Irrep:
              A 
    DOCC [     5 ]

  @DF-RHF Final Energy:   -76.04085106611927

   => Energetics <=

    Nuclear Repulsion Energy =              9.1231856304356125
    One-Electron Energy =                -122.8478603255600348
    Two-Electron Energy =                  37.6838236290051469
    Total Energy =                        -76.0408510661192736

Computation Completed


Properties will be evaluated at   0.000000,   0.000000,   0.000000 [a0]

Properties computed using the SCF density matrix

  Nuclear Dipole Moment: [e a0]
     X:    41.2863      Y:    10.9358      Z:    -6.7191

  Electronic Dipole Moment: [e a0]
     X:   -41.4412      Y:   -11.4388      Z:     6.1253

  Dipole Moment: [e a0]
     X:    -0.1549      Y:    -0.5030      Z:    -0.5937     Total:     0.7934

  Dipole Moment: [D]
     X:    -0.3937      Y:    -1.2785      Z:    -1.5091     Total:     2.0167


*** tstop() called on node144.bme.utexas.edu at Thu Apr 23 17:11:55 2020
Module time:
	user time   =      19.87 seconds =       0.33 minutes
	system time =       1.46 seconds =       0.02 minutes
	total time  =          5 seconds =       0.08 minutes
Total time:
	user time   =      74.84 seconds =       1.25 minutes
	system time =       5.63 seconds =       0.09 minutes
	total time  =         19 seconds =       0.32 minutes
  Constructing Basis Sets for SAPT...

   => Loading Basis Set <=

    Name: (AUG-CC-PVDZ AUX)
    Role: RIFIT
    Keyword: DF_BASIS_SAPT
    atoms 1              entry N          line   158 file /home/liuchw/anaconda3/envs/psi4env/share/psi4/basis/aug-cc-pvdz-ri.gbs 
    atoms 2-3, 5-7, 9-10 entry H          line    30 file /home/liuchw/anaconda3/envs/psi4env/share/psi4/basis/aug-cc-pvdz-ri.gbs 
    atoms 4              entry C          line   112 file /home/liuchw/anaconda3/envs/psi4env/share/psi4/basis/aug-cc-pvdz-ri.gbs 
    atoms 8              entry O          line   204 file /home/liuchw/anaconda3/envs/psi4env/share/psi4/basis/aug-cc-pvdz-ri.gbs 


  //>>>>>>>>>>>>>>>>>>>>>>>>>>>>>>>>>>>//
  //               SAPT2+              //
  //<<<<<<<<<<<<<<<<<<<<<<<<<<<<<<<<<<<//


*** tstart() called on node144.bme.utexas.edu
*** at Thu Apr 23 17:11:55 2020

        SAPT2+  
    Ed Hohenstein
     6 June 2009

      Orbital Information
  --------------------------
    NSO        =       132
    NMO        =       132
    NRI        =       377
    NOCC A     =         9
    NOCC B     =         5
    FOCC A     =         2
    FOCC B     =         1
    NVIR A     =       123
    NVIR B     =       127

    Estimated memory usage: 80.0 MB

    Natural Orbital Cutoff:   1.000E-06
    Disp(T3) Truncation:            Yes
    CCD (vv|vv) Truncation:         Yes
    MBPT T2 Truncation:             Yes

    Monomer A: 43 virtual orbitals dropped
    Monomer B: 91 virtual orbitals dropped

    Elst10,r            =    -0.007258005214 [Eh]
    Exch10 (S^2)        =     0.002343937921 [Eh]
    Exch10              =     0.002348605226 [Eh]
    Ind20,r (A<-B)      =    -0.001126119083 [Eh]
    Ind20,r (B<-A)      =    -0.000334846780 [Eh]
    Ind20,r             =    -0.001460965863 [Eh]
    Exch-Ind20,r (A<-B) =     0.000541578553 [Eh]
    Exch-Ind20,r (B<-A) =     0.000042969058 [Eh]
    Exch-Ind20,r        =     0.000584547611 [Eh]
    Disp20              =    -0.001825888595 [Eh]
    Disp20 (NO)         =    -0.001654283638 [Eh]
    Exch-Disp20         =     0.000185536882 [Eh]
    Elst12,r            =     0.000044709104 [Eh]
    Exch11              =     0.000033166967 [Eh]
    Exch12              =     0.000517804391 [Eh]
    Ind22               =    -0.000202654408 [Eh]
    Disp21              =     0.000070354085 [Eh]
    Disp22 (SDQ)        =    -0.000059115821 [Eh]

    (i =   1 of   4)          1 seconds
    (i =   2 of   4)          2 seconds
    (i =   3 of   4)          3 seconds
    (i =   4 of   4)          5 seconds

    Disp220 (T)         =    -0.000122629973 [Eh]

    (i =   1 of   7)          0 seconds
    (i =   2 of   7)          1 seconds
    (i =   3 of   7)          1 seconds
    (i =   4 of   7)          1 seconds
    (i =   5 of   7)          2 seconds
    (i =   6 of   7)          2 seconds
    (i =   7 of   7)          2 seconds

    Disp202 (T)         =    -0.000145012219 [Eh]

    Disp22 (T)          =    -0.000267642192 [Eh]

    Est. Disp220 (T)    =    -0.000135350834 [Eh]
    Est. Disp202 (T)    =    -0.000160054872 [Eh]

    Est. Disp22 (T)     =    -0.000295405706 [Eh]

    SAPT Results 
  --------------------------------------------------------------------------------------------------------
    Electrostatics                 -7.21329611 [mEh]      -4.52641165 [kcal/mol]     -18.93850633 [kJ/mol]
      Elst10,r                     -7.25800521 [mEh]      -4.55446703 [kcal/mol]     -19.05589006 [kJ/mol]
      Elst12,r                      0.04470910 [mEh]       0.02805539 [kcal/mol]       0.11738374 [kJ/mol]

    Exchange                        2.89957658 [mEh]       1.81951178 [kcal/mol]       7.61283727 [kJ/mol]
      Exch10                        2.34860523 [mEh]       1.47377203 [kcal/mol]       6.16626217 [kJ/mol]
      Exch10(S^2)                   2.34393792 [mEh]       1.47084325 [kcal/mol]       6.15400816 [kJ/mol]
      Exch11(S^2)                   0.03316697 [mEh]       0.02081259 [kcal/mol]       0.08707986 [kJ/mol]
      Exch12(S^2)                   0.51780439 [mEh]       0.32492716 [kcal/mol]       1.35949524 [kJ/mol]

    Induction                      -1.34713276 [mEh]      -0.84533857 [kcal/mol]      -3.53689658 [kJ/mol]
      Ind20,r                      -1.46096586 [mEh]      -0.91676992 [kcal/mol]      -3.83576535 [kJ/mol]
      Ind22                        -0.20265441 [mEh]      -0.12716756 [kcal/mol]      -0.53206908 [kJ/mol]
      Exch-Ind20,r                  0.58454761 [mEh]       0.36680916 [kcal/mol]       1.53472954 [kJ/mol]
      Exch-Ind22                    0.08108413 [mEh]       0.05088106 [kcal/mol]       0.21288636 [kJ/mol]
      delta HF,r (2)               -0.34914423 [mEh]      -0.21909131 [kcal/mol]      -0.91667806 [kJ/mol]

    Dispersion                     -1.92451915 [mEh]      -1.20765400 [kcal/mol]      -5.05282434 [kJ/mol]
      Disp20                       -1.82588860 [mEh]      -1.14576239 [kcal/mol]      -4.79386985 [kJ/mol]
      Disp21                        0.07035409 [mEh]       0.04414785 [kcal/mol]       0.18471463 [kJ/mol]
      Disp22 (SDQ)                 -0.05911582 [mEh]      -0.03709574 [kcal/mol]      -0.15520857 [kJ/mol]
      Disp22 (T)                   -0.26764219 [mEh]      -0.16794801 [kcal/mol]      -0.70269448 [kJ/mol]
      Est. Disp22 (T)              -0.29540571 [mEh]      -0.18536988 [kcal/mol]      -0.77558757 [kJ/mol]
      Exch-Disp20                   0.18553688 [mEh]       0.11642615 [kcal/mol]       0.48712702 [kJ/mol]

  Total HF                         -6.13496247 [mEh]      -3.84974707 [kcal/mol]     -16.10734176 [kJ/mol]
  Total SAPT0                      -7.77531419 [mEh]      -4.87908331 [kcal/mol]     -20.41408459 [kJ/mol]
  Total SAPT2                      -7.30120400 [mEh]      -4.58157468 [kcal/mol]     -19.16930846 [kJ/mol]
  Total SAPT2+                     -7.58537144 [mEh]      -4.75989244 [kcal/mol]     -19.91538998 [kJ/mol]

  Special recipe for scaled SAPT0 (see Manual):
    Electrostatics sSAPT0          -7.25800521 [mEh]      -4.55446703 [kcal/mol]     -19.05589006 [kJ/mol]
    Exchange sSAPT0                 2.34860523 [mEh]       1.47377203 [kcal/mol]       6.16626217 [kJ/mol]
    Induction sSAPT0               -1.22206363 [mEh]      -0.76685651 [kcal/mol]      -3.20852763 [kJ/mol]
    Dispersion sSAPT0              -1.63924117 [mEh]      -1.02863936 [kcal/mol]      -4.30382709 [kJ/mol]
  Total sSAPT0                     -7.77070479 [mEh]      -4.87619087 [kcal/mol]     -20.40198261 [kJ/mol]
  --------------------------------------------------------------------------------------------------------

*** tstop() called on node144.bme.utexas.edu at Thu Apr 23 17:12:26 2020
Module time:
	user time   =     190.88 seconds =       3.18 minutes
	system time =      18.66 seconds =       0.31 minutes
	total time  =         31 seconds =       0.52 minutes
Total time:
	user time   =     266.87 seconds =       4.45 minutes
	system time =      24.39 seconds =       0.41 minutes
	total time  =         50 seconds =       0.83 minutes

    Psi4 stopped on: Thursday, 23 April 2020 05:12PM
    Psi4 wall time for execution: 0:00:50.10

*** Psi4 exiting successfully. Buy a developer a beer!
