    -----------------------------------------------------------------------
          PSI4: An Open-Source Ab Initio Electronic Structure Package
                              PSI 4.0.0-beta4 Driver

    J. M. Turney, A. C. Simmonett, R. M. Parrish, E. G. Hohenstein,
    F. A. Evangelista, J. T. Fermann, B. J. Mintz, L. A. Burns, J. J. Wilke,
    M. L. Abrams, N. J. Russ, M. L. Leininger, C. L. Janssen, E. T. Seidl,
    W. D. Allen, H. F. Schaefer, R. A. King, E. F. Valeev, C. D. Sherrill,
    and T. D. Crawford, WIREs Comput. Mol. Sci., (2011) (doi: 10.1002/wcms.93)

                         Additional Contributions by
    A. E. DePrince, M. Saitow, U. Bozkaya, A. Yu. Sokolov
    -----------------------------------------------------------------------

    Process ID:  27641
    PSI4DATADIR: /home/xzhu216/psi4/psi4-install/share/psi

    Using LocalCommunicator (Number of processes = 1)

    Memory level set to 256.000 MB

  ==> Input File <==

--------------------------------------------------------------------------
#psi4
#
memory 3 gb

molecule Water_Pyridine {
0 1
O   -0.552831024  -0.101697490  -0.000498788
H   -0.871759633   0.801792198   0.000144400
H    0.412659497  -0.001832248  -0.000251810
--
0 1
N    2.505393361   0.103755553   0.000175680
C    3.201300000   0.069784761   1.144923526
H    2.616627449   0.093395703   2.055791554
C    4.590323592   0.004602329   1.194919590
H    5.096229973  -0.020251826   2.149248712
C    5.301486737  -0.028523469   0.000008444
H    6.381326688  -0.080297022  -0.000071984
C    4.590178439   0.004535674  -1.194792853
H    5.095975386  -0.020337353  -2.149191454
C    3.201148425   0.069730665  -1.144646593
H    2.616379542   0.093331320  -2.055439146
units angstrom
no_reorient  #important for SAPT in psi4, default
symmetry c1  #important for SAPT in psi4, default
}

set {
basis aug-cc-pVDZ
scf_type DF
freeze_core True
}
energy('sapt2+')
--------------------------------------------------------------------------

  Memory set to   3.000 GiB by Python script.

  //>>>>>>>>>>>>>>>>>>>>>>>>>>>>>>>>>>>//
  //              Dimer HF             //
  //<<<<<<<<<<<<<<<<<<<<<<<<<<<<<<<<<<<//


  No DF_BASIS_SCF auxiliary basis selected, defaulting to aug-cc-pvdz-jkfit


*** tstart() called on node124.bme.utexas.edu
*** at Wed Sep 18 17:58:30 2013


         ---------------------------------------------------------
                                   SCF
            by Justin Turney, Rob Parrish, and Andy Simmonett
                              RHF Reference
                        4 Threads,   3000 MiB Core
         ---------------------------------------------------------

  ==> Geometry <==

    Molecular point group: c1
    Full point group: C1

    Geometry (in Angstrom), charge = 0, multiplicity = 1:

       Center              X                  Y                   Z       
    ------------   -----------------  -----------------  -----------------
           O         -3.627122176532    -0.123751361970    -0.000495278883
           H         -3.946050785532     0.779738326030     0.000147909117
           H         -2.661631655532    -0.023886119970    -0.000248300883
           N         -0.568897791532     0.081701681030     0.000179189117
           C          0.127008847468     0.047730889030     1.144927035117
           H         -0.457663703532     0.071341831030     2.055795063117
           C          1.516032439468    -0.017451542970     1.194923099117
           H          2.021938820468    -0.042305697970     2.149252221117
           C          2.227195584468    -0.050577340970     0.000011953117
           H          3.307035535468    -0.102350893970    -0.000068474883
           C          1.515887286468    -0.017518197970    -1.194789343883
           H          2.021684233468    -0.042391224970    -2.149187944883
           C          0.126857272468     0.047676793030    -1.144643083883
           H         -0.457911610532     0.071277448030    -2.055435636883

  Running in c1 symmetry.

  Nuclear repulsion =  267.533937558510274

  Charge       = 0
  Multiplicity = 1
  Electrons    = 52
  Nalpha       = 26
  Nbeta        = 26

  ==> Algorithm <==

  SCF Algorithm Type is DF.
  DIIS enabled.
  MOM disabled.
  Fractional occupation disabled.
  Guess Type is CORE.
  Energy threshold   = 1.00e-08
  Density threshold  = 1.00e-08
  Integral threshold = 0.00e+00

  ==> Primary Basis <==

  Basis Set: AUG-CC-PVDZ
    Number of shells: 98
    Number of basis function: 224
    Number of Cartesian functions: 238
    Spherical Harmonics?: true
    Max angular momentum: 2

  ==> Pre-Iterations <==

   -------------------------------------------------------
    Irrep   Nso     Nmo     Nalpha   Nbeta   Ndocc  Nsocc
   -------------------------------------------------------
     A        224     224       0       0       0       0
   -------------------------------------------------------
    Total     224     224      26      26      26       0
   -------------------------------------------------------

 OEINTS: Wrapper to libmints.
   by Justin Turney

   Calculation information:
      Number of atoms:                  14
      Number of AO shells:              98
      Number of SO shells:              98
      Number of primitives:            224
      Number of atomic orbitals:       238
      Number of basis functions:       224

      Number of irreps:                  1
      Number of functions per irrep: [ 224 ]

      Overlap, kinetic, potential, dipole, and quadrupole integrals
        stored in file 35.

  ==> Integral Setup <==

  ==> DFJK: Density-Fitted J/K Matrices <==

    J tasked:                  Yes
    K tasked:                  Yes
    wK tasked:                  No
    OpenMP threads:              4
    Integrals threads:           4
    Memory (MB):              2145
    Algorithm:                Core
    Integral Cache:           SAVE
    Schwarz Cutoff:          0E+00
    Fitting Condition:       1E-12

   => Auxiliary Basis Set <=

  Basis Set: aug-cc-pvdz-jkfit
    Number of shells: 280
    Number of basis function: 826
    Number of Cartesian functions: 952
    Spherical Harmonics?: true
    Max angular momentum: 3

  Minimum eigenvalue in the overlap matrix is 8.5340795730E-06.
  Using Symmetric Orthogonalization.
  SCF Guess: Core (One-Electron) Hamiltonian.

  Guess energy:  -255.55803586280854

  ==> Iterations <==

                        Total Energy        Delta E     RMS |[F,P]|

   @RHF iter   1:  -242.03532782420029   -2.42035e+02   3.24876e-02 
   @RHF iter   2:   -69.83618954866961    1.72199e+02   6.83141e-02 DIIS
   @RHF iter   3:  -256.94646747529600   -1.87110e+02   2.83709e-02 DIIS
   @RHF iter   4:  -311.79939175816378   -5.48529e+01   1.44713e-02 DIIS
   @RHF iter   5:  -318.42230159507767   -6.62291e+00   1.10142e-02 DIIS
   @RHF iter   6:  -322.50356680528569   -4.08127e+00   2.93608e-03 DIIS
   @RHF iter   7:  -322.69710892696901   -1.93542e-01   1.70869e-03 DIIS
   @RHF iter   8:  -322.75851316710077   -6.14042e-02   6.30918e-04 DIIS
   @RHF iter   9:  -322.77031917518332   -1.18060e-02   2.28712e-04 DIIS
   @RHF iter  10:  -322.77234051498829   -2.02134e-03   4.66493e-05 DIIS
   @RHF iter  11:  -322.77245547341420   -1.14958e-04   1.76389e-05 DIIS
   @RHF iter  12:  -322.77249633225392   -4.08588e-05   1.16526e-05 DIIS
   @RHF iter  13:  -322.77251170098532   -1.53687e-05   4.13913e-06 DIIS
   @RHF iter  14:  -322.77251422707025   -2.52608e-06   1.61694e-06 DIIS
   @RHF iter  15:  -322.77251439387396   -1.66804e-07   4.04673e-07 DIIS
   @RHF iter  16:  -322.77251440572218   -1.18482e-08   1.15461e-07 DIIS
   @RHF iter  17:  -322.77251440624502   -5.22846e-10   3.65145e-08 DIIS
   @RHF iter  18:  -322.77251440631699   -7.19638e-11   9.16411e-09 DIIS

  ==> Post-Iterations <==

	Orbital Energies (a.u.)
	-----------------------

	Doubly Occupied:                                                      

	   1A    -20.539051     2A    -15.590950     3A    -11.294485  
	   4A    -11.294465     5A    -11.277493     6A    -11.258847  
	   7A    -11.258798     8A     -1.317388     9A     -1.274707  
	  10A     -1.104237    11A     -1.048828    12A     -0.872890  
	  13A     -0.870864    14A     -0.736132    15A     -0.679841  
	  16A     -0.674160    17A     -0.665444    18A     -0.611015  
	  19A     -0.591065    20A     -0.554579    21A     -0.551497  
	  22A     -0.531882    23A     -0.472828    24A     -0.436337  
	  25A     -0.396577    26A     -0.358780  

	Virtual:                                                              

	  27A      0.028157    28A      0.037751    29A      0.041897  
	  30A      0.055363    31A      0.058971    32A      0.072896  
	  33A      0.077774    34A      0.095714    35A      0.096037  
	  36A      0.108852    37A      0.119576    38A      0.126886  
	  39A      0.132799    40A      0.133115    41A      0.141868  
	  42A      0.142260    43A      0.151559    44A      0.157936  
	  45A      0.160614    46A      0.166505    47A      0.173917  
	  48A      0.180321    49A      0.185151    50A      0.188047  
	  51A      0.189636    52A      0.224494    53A      0.264167  
	  54A      0.272789    55A      0.272896    56A      0.289132  
	  57A      0.290576    58A      0.291716    59A      0.295272  
	  60A      0.315443    61A      0.316994    62A      0.327784  
	  63A      0.333731    64A      0.338549    65A      0.340681  
	  66A      0.353447    67A      0.357155    68A      0.369580  
	  69A      0.374112    70A      0.395346    71A      0.402607  
	  72A      0.418630    73A      0.421333    74A      0.424349  
	  75A      0.428325    76A      0.429693    77A      0.436511  
	  78A      0.446020    79A      0.474686    80A      0.493793  
	  81A      0.495697    82A      0.522698    83A      0.530544  
	  84A      0.551433    85A      0.551863    86A      0.555371  
	  87A      0.572921    88A      0.574552    89A      0.585659  
	  90A      0.591243    91A      0.625712    92A      0.626639  
	  93A      0.634252    94A      0.649839    95A      0.656108  
	  96A      0.669936    97A      0.678396    98A      0.681454  
	  99A      0.687477   100A      0.692075   101A      0.692194  
	 102A      0.693802   103A      0.727489   104A      0.733379  
	 105A      0.733778   106A      0.739253   107A      0.761758  
	 108A      0.766105   109A      0.799251   110A      0.829667  
	 111A      0.849069   112A      0.856128   113A      0.862357  
	 114A      0.873188   115A      0.890297   116A      0.898502  
	 117A      0.900474   118A      0.909151   119A      0.915540  
	 120A      0.926660   121A      0.955822   122A      0.960646  
	 123A      0.975005   124A      0.983123   125A      0.990175  
	 126A      1.031162   127A      1.037258   128A      1.082449  
	 129A      1.129318   130A      1.130992   131A      1.143333  
	 132A      1.154972   133A      1.161512   134A      1.197865  
	 135A      1.211641   136A      1.214228   137A      1.246437  
	 138A      1.248270   139A      1.257146   140A      1.317677  
	 141A      1.375399   142A      1.413346   143A      1.427605  
	 144A      1.444360   145A      1.446997   146A      1.529716  
	 147A      1.533689   148A      1.547660   149A      1.552086  
	 150A      1.562448   151A      1.595582   152A      1.596233  
	 153A      1.601620   154A      1.651494   155A      1.664140  
	 156A      1.670082   157A      1.675133   158A      1.698295  
	 159A      1.715684   160A      1.717489   161A      1.767019  
	 162A      1.774783   163A      1.782309   164A      1.810217  
	 165A      1.831378   166A      1.841543   167A      1.910790  
	 168A      1.919735   169A      1.938528   170A      1.944563  
	 171A      1.945789   172A      1.993543   173A      2.036593  
	 174A      2.055432   175A      2.065012   176A      2.065726  
	 177A      2.081450   178A      2.104526   179A      2.107886  
	 180A      2.119102   181A      2.173067   182A      2.195396  
	 183A      2.199889   184A      2.237847   185A      2.263661  
	 186A      2.291039   187A      2.296395   188A      2.297117  
	 189A      2.348976   190A      2.395306   191A      2.428395  
	 192A      2.436716   193A      2.458701   194A      2.509337  
	 195A      2.559996   196A      2.592881   197A      2.613223  
	 198A      2.672340   199A      2.730582   200A      2.754290  
	 201A      2.797173   202A      2.834804   203A      2.855161  
	 204A      2.873413   205A      2.893140   206A      2.962793  
	 207A      2.966955   208A      2.983706   209A      3.055839  
	 210A      3.112577   211A      3.122296   212A      3.130398  
	 213A      3.231491   214A      3.262594   215A      3.405768  
	 216A      3.419122   217A      3.660134   218A      3.660137  
	 219A      3.726390   220A      3.766433   221A      3.823442  
	 222A      4.166968   223A      4.359347   224A      4.439980  

	Final Occupation by Irrep:
	          A 
	DOCC [    26 ]

  Energy converged.

  @RHF Final Energy:  -322.77251440631699

   => Energetics <=

    Nuclear Repulsion Energy =            267.5339375585102744
    One-Electron Energy =                -968.0866209894415988
    Two-Electron Energy =                 377.7801690246147359
    DFT Exchange-Correlation Energy =       0.0000000000000000
    Empirical Dispersion Energy =           0.0000000000000000
    Total Energy =                       -322.7725144063165885



Properties will be evaluated at   0.000000,   0.000000,   0.000000 Bohr
  ==> Properties <==


Properties computed using the SCF density density matrix
  Nuclear Dipole Moment: (a.u.)
     X:    -0.1776      Y:     0.6661      Z:     0.0002

  Electronic Dipole Moment: (a.u.)
     X:     1.8813      Y:    -0.0738      Z:     0.0003

  Dipole Moment: (a.u.)
     X:     1.7037      Y:     0.5923      Z:     0.0005     Total:     1.8038

  Dipole Moment: (Debye)
     X:     4.3305      Y:     1.5055      Z:     0.0014     Total:     4.5847


  Saving occupied orbitals to File 180.

  Saving SAPT 2-DIMER file.

*** tstop() called on node124.bme.utexas.edu at Wed Sep 18 17:58:49 2013
Module time:
	user time   =      70.64 seconds =       1.18 minutes
	system time =       0.75 seconds =       0.01 minutes
	total time  =         19 seconds =       0.32 minutes
Total time:
	user time   =      70.64 seconds =       1.18 minutes
	system time =       0.75 seconds =       0.01 minutes
	total time  =         19 seconds =       0.32 minutes

  //>>>>>>>>>>>>>>>>>>>>>>>>>>>>>>>>>>>//
  //            Monomer A HF           //
  //<<<<<<<<<<<<<<<<<<<<<<<<<<<<<<<<<<<//


  No DF_BASIS_SCF auxiliary basis selected, defaulting to aug-cc-pvdz-jkfit


*** tstart() called on node124.bme.utexas.edu
*** at Wed Sep 18 17:58:49 2013


         ---------------------------------------------------------
                                   SCF
            by Justin Turney, Rob Parrish, and Andy Simmonett
                              RHF Reference
                        4 Threads,   3000 MiB Core
         ---------------------------------------------------------

  ==> Geometry <==

    Molecular point group: c1
    Full point group: C1

    Geometry (in Angstrom), charge = 0, multiplicity = 1:

       Center              X                  Y                   Z       
    ------------   -----------------  -----------------  -----------------
           O         -3.627122176532    -0.123751361970    -0.000495278883
           H         -3.946050785532     0.779738326030     0.000147909117
           H         -2.661631655532    -0.023886119970    -0.000248300883
           N(Gh)     -0.568897791532     0.081701681030     0.000179189117
           C(Gh)      0.127008847468     0.047730889030     1.144927035117
           H(Gh)     -0.457663703532     0.071341831030     2.055795063117
           C(Gh)      1.516032439468    -0.017451542970     1.194923099117
           H(Gh)      2.021938820468    -0.042305697970     2.149252221117
           C(Gh)      2.227195584468    -0.050577340970     0.000011953117
           H(Gh)      3.307035535468    -0.102350893970    -0.000068474883
           C(Gh)      1.515887286468    -0.017518197970    -1.194789343883
           H(Gh)      2.021684233468    -0.042391224970    -2.149187944883
           C(Gh)      0.126857272468     0.047676793030    -1.144643083883
           H(Gh)     -0.457911610532     0.071277448030    -2.055435636883

  Running in c1 symmetry.

  Nuclear repulsion =    9.129156360765403

  Charge       = 0
  Multiplicity = 1
  Electrons    = 10
  Nalpha       = 5
  Nbeta        = 5

  ==> Algorithm <==

  SCF Algorithm Type is DF.
  DIIS enabled.
  MOM disabled.
  Fractional occupation disabled.
  Guess Type is CORE.
  Energy threshold   = 1.00e-08
  Density threshold  = 1.00e-08
  Integral threshold = 0.00e+00

  ==> Primary Basis <==

  Basis Set: AUG-CC-PVDZ
    Number of shells: 98
    Number of basis function: 224
    Number of Cartesian functions: 238
    Spherical Harmonics?: true
    Max angular momentum: 2

  ==> Pre-Iterations <==

   -------------------------------------------------------
    Irrep   Nso     Nmo     Nalpha   Nbeta   Ndocc  Nsocc
   -------------------------------------------------------
     A        224     224       0       0       0       0
   -------------------------------------------------------
    Total     224     224       5       5       5       0
   -------------------------------------------------------

 OEINTS: Wrapper to libmints.
   by Justin Turney

   Calculation information:
      Number of atoms:                  14
      Number of AO shells:              98
      Number of SO shells:              98
      Number of primitives:            224
      Number of atomic orbitals:       238
      Number of basis functions:       224

      Number of irreps:                  1
      Number of functions per irrep: [ 224 ]

      Overlap, kinetic, potential, dipole, and quadrupole integrals
        stored in file 35.

  ==> Integral Setup <==

  ==> DFJK: Density-Fitted J/K Matrices <==

    J tasked:                  Yes
    K tasked:                  Yes
    wK tasked:                  No
    OpenMP threads:              4
    Integrals threads:           4
    Memory (MB):              2145
    Algorithm:                Core
    Integral Cache:           LOAD
    Schwarz Cutoff:          0E+00
    Fitting Condition:       1E-12

   => Auxiliary Basis Set <=

  Basis Set: aug-cc-pvdz-jkfit
    Number of shells: 280
    Number of basis function: 826
    Number of Cartesian functions: 952
    Spherical Harmonics?: true
    Max angular momentum: 3

  Minimum eigenvalue in the overlap matrix is 8.5340795731E-06.
  Using Symmetric Orthogonalization.
  SCF Guess: Core (One-Electron) Hamiltonian.

  Guess energy:   -58.67498561611700

  ==> Iterations <==

                        Total Energy        Delta E     RMS |[F,P]|

   @RHF iter   1:   -68.43724514505351   -6.84372e+01   1.52456e-02 
   @RHF iter   2:   -64.31534193907473    4.12190e+00   1.17099e-02 DIIS
   @RHF iter   3:   -74.99692707947047   -1.06816e+01   7.23519e-03 DIIS
   @RHF iter   4:   -75.82484080753811   -8.27914e-01   3.17313e-03 DIIS
   @RHF iter   5:   -76.03963546205946   -2.14795e-01   2.46521e-04 DIIS
   @RHF iter   6:   -76.04072008861345   -1.08463e-03   1.23926e-04 DIIS
   @RHF iter   7:   -76.04098369339330   -2.63605e-04   1.52407e-05 DIIS
   @RHF iter   8:   -76.04098934914238   -5.65575e-06   2.47693e-06 DIIS
   @RHF iter   9:   -76.04098960889620   -2.59754e-07   5.32857e-07 DIIS
   @RHF iter  10:   -76.04098961815127   -9.25507e-09   1.07503e-07 DIIS
   @RHF iter  11:   -76.04098961852117   -3.69894e-10   9.17501e-09 DIIS

  ==> Post-Iterations <==

	Orbital Energies (a.u.)
	-----------------------

	Doubly Occupied:                                                      

	   1A    -20.578837     2A     -1.353655     3A     -0.713422  
	   4A     -0.586046     5A     -0.509039  

	Virtual:                                                              

	   6A      0.017333     7A      0.034552     8A      0.036317  
	   9A      0.052732    10A      0.058633    11A      0.065528  
	  12A      0.073531    13A      0.086693    14A      0.100509  
	  15A      0.106942    16A      0.112563    17A      0.118595  
	  18A      0.122993    19A      0.130040    20A      0.136045  
	  21A      0.148272    22A      0.149834    23A      0.158060  
	  24A      0.163076    25A      0.165002    26A      0.169692  
	  27A      0.188402    28A      0.189406    29A      0.204055  
	  30A      0.218256    31A      0.221055    32A      0.224734  
	  33A      0.238504    34A      0.256369    35A      0.265906  
	  36A      0.269609    37A      0.286145    38A      0.304011  
	  39A      0.308823    40A      0.319168    41A      0.338835  
	  42A      0.360335    43A      0.362900    44A      0.377620  
	  45A      0.386349    46A      0.387486    47A      0.393185  
	  48A      0.409505    49A      0.413826    50A      0.415804  
	  51A      0.426702    52A      0.441983    53A      0.453418  
	  54A      0.454592    55A      0.459483    56A      0.471420  
	  57A      0.476299    58A      0.477540    59A      0.487876  
	  60A      0.492666    61A      0.523764    62A      0.524276  
	  63A      0.543067    64A      0.546658    65A      0.550386  
	  66A      0.563623    67A      0.570562    68A      0.575358  
	  69A      0.595060    70A      0.613748    71A      0.623996  
	  72A      0.633134    73A      0.651697    74A      0.655705  
	  75A      0.673854    76A      0.683416    77A      0.693457  
	  78A      0.697062    79A      0.745137    80A      0.756433  
	  81A      0.781598    82A      0.782173    83A      0.801003  
	  84A      0.807474    85A      0.840675    86A      0.843512  
	  87A      0.851317    88A      0.857080    89A      0.865022  
	  90A      0.867712    91A      0.881750    92A      0.884060  
	  93A      0.894638    94A      0.901678    95A      0.923829  
	  96A      0.926208    97A      0.931400    98A      0.987735  
	  99A      1.015825   100A      1.018084   101A      1.032050  
	 102A      1.049844   103A      1.086587   104A      1.103360  
	 105A      1.106843   106A      1.125541   107A      1.127743  
	 108A      1.131113   109A      1.161253   110A      1.162754  
	 111A      1.167778   112A      1.201722   113A      1.204473  
	 114A      1.223821   115A      1.237779   116A      1.277262  
	 117A      1.304260   118A      1.315587   119A      1.317438  
	 120A      1.368253   121A      1.393555   122A      1.426163  
	 123A      1.437112   124A      1.468759   125A      1.487276  
	 126A      1.508167   127A      1.567835   128A      1.579796  
	 129A      1.608620   130A      1.720488   131A      1.842703  
	 132A      2.027561   133A      2.040292   134A      2.066419  
	 135A      2.088164   136A      2.135794   137A      2.136614  
	 138A      2.148027   139A      2.156731   140A      2.174844  
	 141A      2.188135   142A      2.196125   143A      2.203498  
	 144A      2.224179   145A      2.240411   146A      2.242375  
	 147A      2.277139   148A      2.299607   149A      2.322013  
	 150A      2.349067   151A      2.393395   152A      2.394767  
	 153A      2.406811   154A      2.441681   155A      2.459183  
	 156A      2.508821   157A      2.513304   158A      2.525773  
	 159A      2.534308   160A      2.600007   161A      2.616238  
	 162A      2.619602   163A      2.638839   164A      2.643303  
	 165A      2.675264   166A      2.722030   167A      2.736890  
	 168A      2.742441   169A      2.756231   170A      2.817556  
	 171A      2.847925   172A      2.865818   173A      2.918969  
	 174A      2.928754   175A      2.943197   176A      2.984812  
	 177A      3.018313   178A      3.043772   179A      3.061898  
	 180A      3.158819   181A      3.182797   182A      3.279367  
	 183A      3.304475   184A      3.370387   185A      3.387472  
	 186A      3.404306   187A      3.415884   188A      3.461359  
	 189A      3.491216   190A      3.562519   191A      3.607305  
	 192A      3.646562   193A      3.690916   194A      3.698916  
	 195A      3.731766   196A      3.782453   197A      3.859477  
	 198A      3.885106   199A      3.890584   200A      4.012355  
	 201A      4.069998   202A      4.142603   203A      4.200522  
	 204A      4.403002   205A      4.429047   206A      4.529888  
	 207A      4.599844   208A      4.685075   209A      4.765854  
	 210A      4.925273   211A      5.195703   212A      5.409379  
	 213A      5.484265   214A      5.547160   215A      5.599707  
	 216A      5.606097   217A      5.813314   218A      6.146020  
	 219A     18.059945   220A     18.343345   221A     18.698416  
	 222A     19.048103   223A     19.959990   224A     25.315865  

	Final Occupation by Irrep:
	          A 
	DOCC [     5 ]

  Energy converged.

  @RHF Final Energy:   -76.04098961852117

   => Energetics <=

    Nuclear Repulsion Energy =              9.1291563607654034
    One-Electron Energy =                -122.8582868487694952
    Two-Electron Energy =                  37.6881408694830071
    DFT Exchange-Correlation Energy =       0.0000000000000000
    Empirical Dispersion Energy =           0.0000000000000000
    Total Energy =                        -76.0409896185210812



Properties will be evaluated at   0.000000,   0.000000,   0.000000 Bohr
  ==> Properties <==


Properties computed using the SCF density density matrix
  Nuclear Dipole Moment: (a.u.)
     X:   -67.3209      Y:    -0.4425      Z:    -0.0077

  Electronic Dipole Moment: (a.u.)
     X:    67.7494      Y:     1.1115      Z:     0.0083

  Dipole Moment: (a.u.)
     X:     0.4286      Y:     0.6690      Z:     0.0006     Total:     0.7945

  Dipole Moment: (Debye)
     X:     1.0894      Y:     1.7005      Z:     0.0015     Total:     2.0195


  Saving occupied orbitals to File 180.

  Saving SAPT 2-MONOMER_A file.

*** tstop() called on node124.bme.utexas.edu at Wed Sep 18 17:58:57 2013
Module time:
	user time   =      30.65 seconds =       0.51 minutes
	system time =       0.27 seconds =       0.00 minutes
	total time  =          8 seconds =       0.13 minutes
Total time:
	user time   =     101.36 seconds =       1.69 minutes
	system time =       1.02 seconds =       0.02 minutes
	total time  =         27 seconds =       0.45 minutes

  //>>>>>>>>>>>>>>>>>>>>>>>>>>>>>>>>>>>//
  //            Monomer B HF           //
  //<<<<<<<<<<<<<<<<<<<<<<<<<<<<<<<<<<<//


  No DF_BASIS_SCF auxiliary basis selected, defaulting to aug-cc-pvdz-jkfit


*** tstart() called on node124.bme.utexas.edu
*** at Wed Sep 18 17:58:57 2013


         ---------------------------------------------------------
                                   SCF
            by Justin Turney, Rob Parrish, and Andy Simmonett
                              RHF Reference
                        4 Threads,   3000 MiB Core
         ---------------------------------------------------------

  ==> Geometry <==

    Molecular point group: c1
    Full point group: C1

    Geometry (in Angstrom), charge = 0, multiplicity = 1:

       Center              X                  Y                   Z       
    ------------   -----------------  -----------------  -----------------
           O(Gh)     -3.627122176532    -0.123751361970    -0.000495278883
           H(Gh)     -3.946050785532     0.779738326030     0.000147909117
           H(Gh)     -2.661631655532    -0.023886119970    -0.000248300883
           N         -0.568897791532     0.081701681030     0.000179189117
           C          0.127008847468     0.047730889030     1.144927035117
           H         -0.457663703532     0.071341831030     2.055795063117
           C          1.516032439468    -0.017451542970     1.194923099117
           H          2.021938820468    -0.042305697970     2.149252221117
           C          2.227195584468    -0.050577340970     0.000011953117
           H          3.307035535468    -0.102350893970    -0.000068474883
           C          1.515887286468    -0.017518197970    -1.194789343883
           H          2.021684233468    -0.042391224970    -2.149187944883
           C          0.126857272468     0.047676793030    -1.144643083883
           H         -0.457911610532     0.071277448030    -2.055435636883

  Running in c1 symmetry.

  Nuclear repulsion =  206.285463431529223

  Charge       = 0
  Multiplicity = 1
  Electrons    = 42
  Nalpha       = 21
  Nbeta        = 21

  ==> Algorithm <==

  SCF Algorithm Type is DF.
  DIIS enabled.
  MOM disabled.
  Fractional occupation disabled.
  Guess Type is CORE.
  Energy threshold   = 1.00e-08
  Density threshold  = 1.00e-08
  Integral threshold = 0.00e+00

  ==> Primary Basis <==

  Basis Set: AUG-CC-PVDZ
    Number of shells: 98
    Number of basis function: 224
    Number of Cartesian functions: 238
    Spherical Harmonics?: true
    Max angular momentum: 2

  ==> Pre-Iterations <==

   -------------------------------------------------------
    Irrep   Nso     Nmo     Nalpha   Nbeta   Ndocc  Nsocc
   -------------------------------------------------------
     A        224     224       0       0       0       0
   -------------------------------------------------------
    Total     224     224      21      21      21       0
   -------------------------------------------------------

 OEINTS: Wrapper to libmints.
   by Justin Turney

   Calculation information:
      Number of atoms:                  14
      Number of AO shells:              98
      Number of SO shells:              98
      Number of primitives:            224
      Number of atomic orbitals:       238
      Number of basis functions:       224

      Number of irreps:                  1
      Number of functions per irrep: [ 224 ]

      Overlap, kinetic, potential, dipole, and quadrupole integrals
        stored in file 35.

  ==> Integral Setup <==

  ==> DFJK: Density-Fitted J/K Matrices <==

    J tasked:                  Yes
    K tasked:                  Yes
    wK tasked:                  No
    OpenMP threads:              4
    Integrals threads:           4
    Memory (MB):              2145
    Algorithm:                Core
    Integral Cache:           LOAD
    Schwarz Cutoff:          0E+00
    Fitting Condition:       1E-12

   => Auxiliary Basis Set <=

  Basis Set: aug-cc-pvdz-jkfit
    Number of shells: 280
    Number of basis function: 826
    Number of Cartesian functions: 952
    Spherical Harmonics?: true
    Max angular momentum: 3

  Minimum eigenvalue in the overlap matrix is 8.5340795731E-06.
  Using Symmetric Orthogonalization.
  SCF Guess: Core (One-Electron) Hamiltonian.

  Guess energy:  -190.86327270895222

  ==> Iterations <==

                        Total Energy        Delta E     RMS |[F,P]|

   @RHF iter   1:  -206.28439709510272   -2.06284e+02   2.68949e-02 
   @RHF iter   2:  -181.75405866437055    2.45303e+01   2.53210e-02 DIIS
   @RHF iter   3:  -236.78274359188188   -5.50287e+01   1.44996e-02 DIIS
   @RHF iter   4:  -244.43243585591782   -7.64969e+00   9.33990e-03 DIIS
   @RHF iter   5:  -246.35096393467271   -1.91853e+00   3.45090e-03 DIIS
   @RHF iter   6:  -246.67270583206752   -3.21742e-01   1.12840e-03 DIIS
   @RHF iter   7:  -246.71449417641409   -4.17883e-02   4.94132e-04 DIIS
   @RHF iter   8:  -246.72375022452334   -9.25605e-03   7.15817e-05 DIIS
   @RHF iter   9:  -246.72406426993692   -3.14045e-04   2.77413e-05 DIIS
   @RHF iter  10:  -246.72410579000504   -4.15201e-05   1.16213e-05 DIIS
   @RHF iter  11:  -246.72411052703822   -4.73703e-06   5.01430e-06 DIIS
   @RHF iter  12:  -246.72411209086548   -1.56383e-06   1.12972e-06 DIIS
   @RHF iter  13:  -246.72411222719799   -1.36333e-07   5.78965e-07 DIIS
   @RHF iter  14:  -246.72411226461114   -3.74131e-08   1.62348e-07 DIIS
   @RHF iter  15:  -246.72411226774184   -3.13071e-09   2.95269e-08 DIIS
   @RHF iter  16:  -246.72411226780471   -6.28688e-11   7.84095e-09 DIIS

  ==> Post-Iterations <==

	Orbital Energies (a.u.)
	-----------------------

	Doubly Occupied:                                                      

	   1A    -15.575146     2A    -11.281723     3A    -11.281704  
	   4A    -11.266492     5A    -11.248665     6A    -11.248613  
	   7A     -1.259923     8A     -1.092453     9A     -1.037240  
	  10A     -0.861342    11A     -0.858395    12A     -0.723235  
	  13A     -0.661721    14A     -0.655454    15A     -0.600129  
	  16A     -0.577572    17A     -0.540994    18A     -0.520902  
	  19A     -0.418243    20A     -0.383327    21A     -0.348194  

	Virtual:                                                              

	  22A      0.031755    23A      0.040402    24A      0.042018  
	  25A      0.056208    26A      0.058618    27A      0.071624  
	  28A      0.082888    29A      0.090966    30A      0.104685  
	  31A      0.113802    32A      0.118247    33A      0.127153  
	  34A      0.137324    35A      0.138275    36A      0.144903  
	  37A      0.146282    38A      0.155432    39A      0.158316  
	  40A      0.159348    41A      0.165169    42A      0.172030  
	  43A      0.182487    44A      0.186199    45A      0.187273  
	  46A      0.194129    47A      0.207289    48A      0.231900  
	  49A      0.237372    50A      0.249089    51A      0.293507  
	  52A      0.297125    53A      0.298305    54A      0.299594  
	  55A      0.312615    56A      0.325378    57A      0.333391  
	  58A      0.341945    59A      0.344904    60A      0.346353  
	  61A      0.358843    62A      0.363424    63A      0.373381  
	  64A      0.380961    65A      0.405138    66A      0.412198  
	  67A      0.425942    68A      0.427717    69A      0.430391  
	  70A      0.437416    71A      0.445721    72A      0.462921  
	  73A      0.467133    74A      0.479617    75A      0.500529  
	  76A      0.510477    77A      0.530842    78A      0.537503  
	  79A      0.555501    80A      0.560780    81A      0.563933  
	  82A      0.565114    83A      0.583742    84A      0.592838  
	  85A      0.593972    86A      0.602127    87A      0.626213  
	  88A      0.642189    89A      0.654386    90A      0.660224  
	  91A      0.661837    92A      0.674911    93A      0.685469  
	  94A      0.690345    95A      0.693343    96A      0.697018  
	  97A      0.702282    98A      0.722689    99A      0.735113  
	 100A      0.739560   101A      0.741900   102A      0.769861  
	 103A      0.773493   104A      0.817363   105A      0.838933  
	 106A      0.857256   107A      0.859912   108A      0.862987  
	 109A      0.883680   110A      0.894782   111A      0.900022  
	 112A      0.908097   113A      0.915594   114A      0.931382  
	 115A      0.935270   116A      0.948912   117A      0.969500  
	 118A      0.982172   119A      0.994010   120A      1.012987  
	 121A      1.043980   122A      1.045612   123A      1.061660  
	 124A      1.095693   125A      1.137722   126A      1.140734  
	 127A      1.158033   128A      1.180609   129A      1.206688  
	 130A      1.217368   131A      1.240386   132A      1.266786  
	 133A      1.288064   134A      1.315107   135A      1.321713  
	 136A      1.363539   137A      1.400945   138A      1.418573  
	 139A      1.439876   140A      1.464016   141A      1.482674  
	 142A      1.520920   143A      1.540289   144A      1.560625  
	 145A      1.569110   146A      1.573115   147A      1.592447  
	 148A      1.605158   149A      1.614337   150A      1.632474  
	 151A      1.665988   152A      1.681745   153A      1.683160  
	 154A      1.686327   155A      1.712607   156A      1.730221  
	 157A      1.755343   158A      1.778578   159A      1.825934  
	 160A      1.840650   161A      1.852569   162A      1.903207  
	 163A      1.924013   164A      1.936477   165A      1.949438  
	 166A      1.955502   167A      1.963094   168A      2.058946  
	 169A      2.061732   170A      2.088367   171A      2.111148  
	 172A      2.114140   173A      2.127355   174A      2.176393  
	 175A      2.187930   176A      2.203319   177A      2.210707  
	 178A      2.256701   179A      2.286405   180A      2.303600  
	 181A      2.304529   182A      2.359091   183A      2.407496  
	 184A      2.418398   185A      2.420261   186A      2.436042  
	 187A      2.460165   188A      2.552020   189A      2.552165  
	 190A      2.559335   191A      2.626721   192A      2.648149  
	 193A      2.684121   194A      2.735899   195A      2.775941  
	 196A      2.803365   197A      2.882781   198A      2.888255  
	 199A      2.902034   200A      2.977531   201A      2.983417  
	 202A      2.984249   203A      3.122459   204A      3.128033  
	 205A      3.143485   206A      3.209621   207A      3.274838  
	 208A      3.415364   209A      3.436378   210A      3.551740  
	 211A      3.669609   212A      3.676973   213A      3.989459  
	 214A      4.127601   215A      4.372591   216A      4.934178  
	 217A      4.989534   218A      5.040362   219A      5.204958  
	 220A      5.527489   221A      5.834945   222A      6.732648  
	 223A      7.137545   224A     33.593375  

	Final Occupation by Irrep:
	          A 
	DOCC [    21 ]

  Energy converged.

  @RHF Final Energy:  -246.72411226780471

   => Energetics <=

    Nuclear Repulsion Energy =            206.2854634315292230
    One-Electron Energy =                -741.1362219545098924
    Two-Electron Energy =                 288.1266462551763539
    DFT Exchange-Correlation Energy =       0.0000000000000000
    Empirical Dispersion Energy =           0.0000000000000000
    Total Energy =                       -246.7241122678042871



Properties will be evaluated at   0.000000,   0.000000,   0.000000 Bohr
  ==> Properties <==


Properties computed using the SCF density density matrix
  Nuclear Dipole Moment: (a.u.)
     X:    67.1433      Y:     1.1086      Z:     0.0079

  Electronic Dipole Moment: (a.u.)
     X:   -66.2304      Y:    -1.1551      Z:    -0.0080

  Dipole Moment: (a.u.)
     X:     0.9129      Y:    -0.0465      Z:    -0.0001     Total:     0.9141

  Dipole Moment: (Debye)
     X:     2.3204      Y:    -0.1181      Z:    -0.0002     Total:     2.3234


  Saving occupied orbitals to File 180.

  Saving SAPT 2-MONOMER_B file.

*** tstop() called on node124.bme.utexas.edu at Wed Sep 18 17:59:11 2013
Module time:
	user time   =      49.81 seconds =       0.83 minutes
	system time =       0.39 seconds =       0.01 minutes
	total time  =         14 seconds =       0.23 minutes
Total time:
	user time   =     151.25 seconds =       2.52 minutes
	system time =       1.41 seconds =       0.02 minutes
	total time  =         41 seconds =       0.68 minutes
  No DF_BASIS_SAPT auxiliary basis selected, defaulting to aug-cc-pvdz-ri

  //>>>>>>>>>>>>>>>>>>>>>>>>>>>>>>>>>>>//
  //               SAPT2+              //
  //<<<<<<<<<<<<<<<<<<<<<<<<<<<<<<<<<<<//


*** tstart() called on node124.bme.utexas.edu
*** at Wed Sep 18 17:59:11 2013

        SAPT2+  
    Ed Hohenstein
     6 June 2009

      Orbital Information
  --------------------------
    NSO        =       224
    NMO        =       224
    NRI        =       665
    NOCC A     =         5
    NOCC B     =        21
    FOCC A     =         1
    FOCC B     =         6
    NVIR A     =       219
    NVIR B     =       203

    Estimated memory usage: 762.8 MB

    Elst10,r            =    -0.014052286587 H
    Exch10 (S^2)        =     0.010597510527 H
    Exch10              =     0.010679886064 H
    Ind20,r (A<-B)      =    -0.001136478069 H
    Ind20,r (B<-A)      =    -0.004046955153 H
    Ind20,r             =    -0.005183433222 H
    Exch-Ind20,r (A<-B) =     0.000481827064 H
    Exch-Ind20,r (B<-A) =     0.002186795209 H
    Exch-Ind20,r        =     0.002668622273 H
    Disp20              =    -0.004492165781 H
    Exch-Disp20         =     0.000743484032 H
    Elst12,r            =    -0.000350827462 H
    Exch11              =     0.000078393262 H
    Exch12              =     0.001971324327 H
    Ind22               =    -0.000857708888 H
    Disp21              =     0.000430914381 H
    Disp22 (SDQ)        =    -0.000239866364 H

    (i =   1 of  15)         33 seconds
    (i =   2 of  15)         66 seconds
    (i =   3 of  15)         99 seconds
    (i =   4 of  15)        133 seconds
    (i =   5 of  15)        166 seconds
    (i =   6 of  15)        199 seconds
    (i =   7 of  15)        232 seconds
    (i =   8 of  15)        265 seconds
    (i =   9 of  15)        298 seconds
    (i =  10 of  15)        331 seconds
    (i =  11 of  15)        364 seconds
    (i =  12 of  15)        397 seconds
    (i =  13 of  15)        430 seconds
    (i =  14 of  15)        464 seconds
    (i =  15 of  15)        497 seconds

    Disp220 (T)         =    -0.000395978909 H

    (i =   1 of   4)        195 seconds
    (i =   2 of   4)        389 seconds
    (i =   3 of   4)        583 seconds
    (i =   4 of   4)        777 seconds

    Disp202 (T)         =    -0.000430702133 H

    Disp22 (T)          =    -0.000826681042 H

    SAPT Results  
  -----------------------------------------------------------------------
    Electrostatics         -14.40311405 mH      -9.03809090 kcal mol^-1
      Elst10,r             -14.05228659 mH      -8.81794333 kcal mol^-1
      Elst12,r              -0.35082746 mH      -0.22014757 kcal mol^-1

    Exchange                12.72960365 mH       7.98794722 kcal mol^-1
      Exch10                10.67988606 mH       6.70172996 kcal mol^-1
      Exch10(S^2)           10.59751053 mH       6.65003853 kcal mol^-1
      Exch11(S^2)            0.07839326 mH       0.04919252 kcal mol^-1
      Exch12(S^2)            1.97132433 mH       1.23702474 kcal mol^-1

    Induction               -4.45624824 mH      -2.79633810 kcal mol^-1
      Ind20,r               -5.18343322 mH      -3.25265359 kcal mol^-1
      Ind22                 -0.85770889 mH      -0.53822048 kcal mol^-1
      Exch-Ind20,r           2.66862227 mH       1.67458583 kcal mol^-1
      Exch-Ind22             0.44158012 mH       0.27709572 kcal mol^-1
      delta HF,r (2)        -1.52530852 mH      -0.95714559 kcal mol^-1

    Dispersion              -4.38431477 mH      -2.75119917 kcal mol^-1
      Disp20                -4.49216578 mH      -2.81887670 kcal mol^-1
      Disp21                 0.43091438 mH       0.27040287 kcal mol^-1
      Disp22 (SDQ)          -0.23986636 mH      -0.15051842 kcal mol^-1
      Disp22 (T)            -0.82668104 mH      -0.51875021 kcal mol^-1
      Exch-Disp20            0.74348403 mH       0.46654329 kcal mol^-1

    Total HF                -7.41251999 mH      -4.65142671 kcal mol^-1
    Total SAPT0            -11.16120174 mH      -7.00376012 kcal mol^-1
    Total SAPT2             -9.87844039 mH      -6.19881519 kcal mol^-1
    Total SAPT2+           -10.51407341 mH      -6.59768095 kcal mol^-1

*** tstop() called on node124.bme.utexas.edu at Wed Sep 18 18:25:38 2013
Module time:
	user time   =    5930.08 seconds =      98.83 minutes
	system time =      39.15 seconds =       0.65 minutes
	total time  =       1587 seconds =      26.45 minutes
Total time:
	user time   =    6081.33 seconds =     101.36 minutes
	system time =      40.56 seconds =       0.68 minutes
	total time  =       1628 seconds =      27.13 minutes

*** PSI4 exiting successfully. Buy a developer a beer!
