
    -----------------------------------------------------------------------
          Psi4: An Open-Source Ab Initio Electronic Structure Package
                               Psi4 1.4a2.dev224 

                         Git: Rev {master} e453b16 


    R. M. Parrish, L. A. Burns, D. G. A. Smith, A. C. Simmonett,
    A. E. DePrince III, E. G. Hohenstein, U. Bozkaya, A. Yu. Sokolov,
    R. Di Remigio, R. M. Richard, J. F. Gonthier, A. M. James,
    H. R. McAlexander, A. Kumar, M. Saitow, X. Wang, B. P. Pritchard,
    P. Verma, H. F. Schaefer III, K. Patkowski, R. A. King, E. F. Valeev,
    F. A. Evangelista, J. M. Turney, T. D. Crawford, and C. D. Sherrill,
    J. Chem. Theory Comput. 13(7) pp 3185--3197 (2017).
    (doi: 10.1021/acs.jctc.7b00174)


                         Additional Contributions by
    P. Kraus, H. Kruse, M. H. Lechner, M. C. Schieber, R. A. Shaw,
    A. Alenaizan, R. Galvelis, Z. L. Glick, S. Lehtola, and J. P. Misiewicz

    -----------------------------------------------------------------------


    Psi4 started on: Thursday, 23 April 2020 05:18PM

    Process ID: 70049
    Host:       node100.bme.utexas.edu
    PSIDATADIR: /home/liuchw/anaconda3/envs/psi4env/share/psi4
    Memory:     500.0 MiB
    Threads:    8
    
  ==> Input File <==

--------------------------------------------------------------------------
#Generated by lconvert.py for sapt job

memory 20 GB

molecule  {
0 1
  O      -0.552830   -0.101700   -0.000500
  H      -0.871760    0.801790    0.000140
  H       0.412660   -0.001830   -0.000250
--
0 1
  N       3.003640    0.128900    0.000280
  C       3.699550    0.094920    1.145030
  H       3.114870    0.118540    2.055890
  C       5.088570    0.029740    1.195020
  H       5.594480    0.004890    2.149350
  C       5.799730   -0.003380    0.000110
  H       6.879570   -0.055160    0.000030
  C       5.088420    0.029670   -1.194690
  H       5.594220    0.004800   -2.149090
  C       3.699390    0.094870   -1.144540
  H       3.114630    0.118470   -2.055340
units angstrom
no_reorient
symmetry c1
}

set {
scf_type DF
basis aug-cc-pvdz
freeze_core True
guess SAD
}
energy('sapt2+')
--------------------------------------------------------------------------

  Memory set to  18.626 GiB by Python driver.

Scratch directory: /scratch/liuchw/

  //>>>>>>>>>>>>>>>>>>>>>>>>>>>>>>>>>>>//
  //              Dimer HF             //
  //<<<<<<<<<<<<<<<<<<<<<<<<<<<<<<<<<<<//


*** tstart() called on node100.bme.utexas.edu
*** at Thu Apr 23 17:18:09 2020

   => Loading Basis Set <=

    Name: AUG-CC-PVDZ
    Role: ORBITAL
    Keyword: BASIS
    atoms 1                     entry O          line   254 file /home/liuchw/anaconda3/envs/psi4env/share/psi4/basis/aug-cc-pvdz.gbs 
    atoms 2-3, 6, 8, 10, 12, 14 entry H          line    40 file /home/liuchw/anaconda3/envs/psi4env/share/psi4/basis/aug-cc-pvdz.gbs 
    atoms 4                     entry N          line   218 file /home/liuchw/anaconda3/envs/psi4env/share/psi4/basis/aug-cc-pvdz.gbs 
    atoms 5, 7, 9, 11, 13       entry C          line   182 file /home/liuchw/anaconda3/envs/psi4env/share/psi4/basis/aug-cc-pvdz.gbs 


         ---------------------------------------------------------
                                   SCF
               by Justin Turney, Rob Parrish, Andy Simmonett
                          and Daniel G. A. Smith
                              RHF Reference
                        8 Threads,  19073 MiB Core
         ---------------------------------------------------------

  ==> Geometry <==

    Molecular point group: c1
    Full point group: C1

    Geometry (in Angstrom), charge = 0, multiplicity = 1:

       Center              X                  Y                   Z               Mass       
    ------------   -----------------  -----------------  -----------------  -----------------
         O           -4.032904544172    -0.144227505432    -0.000580565616    15.994914619570
         H           -4.351834544172     0.759262494568     0.000059434384     1.007825032230
         H           -3.067414544172    -0.044357505432    -0.000330565616     1.007825032230
         N           -0.476434544172     0.086372494568     0.000199434384    14.003074004430
         C            0.219475455828     0.052392494568     1.144949434384    12.000000000000
         H           -0.365204544172     0.076012494568     2.055809434384     1.007825032230
         C            1.608495455828    -0.012787505432     1.194939434384    12.000000000000
         H            2.114405455828    -0.037637505432     2.149269434384     1.007825032230
         C            2.319655455828    -0.045907505432     0.000029434384    12.000000000000
         H            3.399495455828    -0.097687505432    -0.000050565616     1.007825032230
         C            1.608345455828    -0.012857505432    -1.194770565616    12.000000000000
         H            2.114145455828    -0.037727505432    -2.149170565616     1.007825032230
         C            0.219315455828     0.052342494568    -1.144620565616    12.000000000000
         H           -0.365444544172     0.075942494568    -2.055420565616     1.007825032230

  Running in c1 symmetry.

  Rotational constants: A =      0.19913  B =      0.03816  C =      0.03216 [cm^-1]
  Rotational constants: A =   5969.75566  B =   1143.97861  C =    964.08413 [MHz]
  Nuclear repulsion =  261.917636025439378

  Charge       = 0
  Multiplicity = 1
  Electrons    = 52
  Nalpha       = 26
  Nbeta        = 26

  ==> Algorithm <==

  SCF Algorithm Type is DF.
  DIIS enabled.
  MOM disabled.
  Fractional occupation disabled.
  Guess Type is SAD.
  Energy threshold   = 1.00e-08
  Density threshold  = 1.00e-08
  Integral threshold = 0.00e+00

  ==> Primary Basis <==

  Basis Set: AUG-CC-PVDZ
    Blend: AUG-CC-PVDZ
    Number of shells: 98
    Number of basis function: 224
    Number of Cartesian functions: 238
    Spherical Harmonics?: true
    Max angular momentum: 2

   => Loading Basis Set <=

    Name: (AUG-CC-PVDZ AUX)
    Role: JKFIT
    Keyword: DF_BASIS_SCF
    atoms 1                     entry O          line   270 file /home/liuchw/anaconda3/envs/psi4env/share/psi4/basis/aug-cc-pvdz-jkfit.gbs 
    atoms 2-3, 6, 8, 10, 12, 14 entry H          line    70 file /home/liuchw/anaconda3/envs/psi4env/share/psi4/basis/aug-cc-pvdz-jkfit.gbs 
    atoms 4                     entry N          line   212 file /home/liuchw/anaconda3/envs/psi4env/share/psi4/basis/aug-cc-pvdz-jkfit.gbs 
    atoms 5, 7, 9, 11, 13       entry C          line   154 file /home/liuchw/anaconda3/envs/psi4env/share/psi4/basis/aug-cc-pvdz-jkfit.gbs 

  ==> Pre-Iterations <==

   -------------------------------------------------------
    Irrep   Nso     Nmo     Nalpha   Nbeta   Ndocc  Nsocc
   -------------------------------------------------------
     A        224     224       0       0       0       0
   -------------------------------------------------------
    Total     224     224      26      26      26       0
   -------------------------------------------------------

  ==> Integral Setup <==

  ==> DiskDFJK: Density-Fitted J/K Matrices <==

    J tasked:                  Yes
    K tasked:                  Yes
    wK tasked:                  No
    OpenMP threads:              8
    Integrals threads:           8
    Memory [MiB]:            14305
    Algorithm:                Core
    Integral Cache:           SAVE
    Schwarz Cutoff:          1E-12
    Fitting Condition:       1E-10

   => Auxiliary Basis Set <=

  Basis Set: (AUG-CC-PVDZ AUX)
    Blend: AUG-CC-PVDZ-JKFIT
    Number of shells: 280
    Number of basis function: 826
    Number of Cartesian functions: 952
    Spherical Harmonics?: true
    Max angular momentum: 3

  Minimum eigenvalue in the overlap matrix is 9.2194020924E-06.
  Using Symmetric Orthogonalization.

  SCF Guess: Superposition of Atomic Densities via on-the-fly atomic UHF.

  ==> Iterations <==

                           Total Energy        Delta E     RMS |[F,P]|

   @DF-RHF iter SAD:  -321.60396371678291   -3.21604e+02   0.00000e+00 
   @DF-RHF iter   1:  -322.55019211735294   -9.46228e-01   2.87411e-03 DIIS
   @DF-RHF iter   2:  -322.71782536437576   -1.67633e-01   1.59590e-03 DIIS
   @DF-RHF iter   3:  -322.76874052727976   -5.09152e-02   2.23938e-04 DIIS
   @DF-RHF iter   4:  -322.77057461127367   -1.83408e-03   6.90397e-05 DIIS
   @DF-RHF iter   5:  -322.77070877256313   -1.34161e-04   1.43556e-05 DIIS
   @DF-RHF iter   6:  -322.77071776254627   -8.98998e-06   3.85155e-06 DIIS
   @DF-RHF iter   7:  -322.77071869238802   -9.29842e-07   1.48431e-06 DIIS
   @DF-RHF iter   8:  -322.77071880358875   -1.11201e-07   7.36225e-07 DIIS
   @DF-RHF iter   9:  -322.77071883365340   -3.00647e-08   1.77712e-07 DIIS
   @DF-RHF iter  10:  -322.77071883662865   -2.97524e-09   1.07723e-07 DIIS
   @DF-RHF iter  11:  -322.77071883775000   -1.12135e-09   4.19619e-08 DIIS
   @DF-RHF iter  12:  -322.77071883802830   -2.78305e-10   1.45000e-08 DIIS
   @DF-RHF iter  13:  -322.77071883805468   -2.63753e-11   3.58695e-09 DIIS
  Energy and wave function converged.


  ==> Post-Iterations <==

    Orbital Energies [Eh]
    ---------------------

    Doubly Occupied:                                                      

       1A    -20.553699     2A    -15.586838     3A    -11.290981  
       4A    -11.290962     5A    -11.274418     6A    -11.256201  
       7A    -11.256150     8A     -1.329476     9A     -1.270344  
      10A     -1.100860    11A     -1.045696    12A     -0.869579  
      13A     -0.867392    14A     -0.731955    15A     -0.689348  
      16A     -0.670656    17A     -0.663037    18A     -0.608174  
      19A     -0.587010    20A     -0.562833    21A     -0.550581  
      22A     -0.528993    23A     -0.485363    24A     -0.431506  
      25A     -0.392715    26A     -0.356017  

    Virtual:                                                              

      27A      0.028941    28A      0.038227    29A      0.041048  
      30A      0.054007    31A      0.058524    32A      0.071554  
      33A      0.079586    34A      0.095520    35A      0.098069  
      36A      0.111027    37A      0.116786    38A      0.127900  
      39A      0.130709    40A      0.134042    41A      0.142604  
      42A      0.143161    43A      0.151906    44A      0.158089  
      45A      0.158286    46A      0.163419    47A      0.171465  
      48A      0.181349    49A      0.185939    50A      0.188451  
      51A      0.189901    52A      0.214421    53A      0.256858  
      54A      0.259547    55A      0.263644    56A      0.278471  
      57A      0.291105    58A      0.292678    59A      0.293433  
      60A      0.314890    61A      0.318788    62A      0.322022  
      63A      0.333538    64A      0.340621    65A      0.341061  
      66A      0.352550    67A      0.353206    68A      0.360272  
      69A      0.374515    70A      0.391731    71A      0.399127  
      72A      0.415032    73A      0.420910    74A      0.423332  
      75A      0.423720    76A      0.426854    77A      0.430316  
      78A      0.440607    79A      0.449476    80A      0.477990  
      81A      0.495704    82A      0.522663    83A      0.536949  
      84A      0.549013    85A      0.550640    86A      0.554678  
      87A      0.571347    88A      0.574687    89A      0.584531  
      90A      0.589333    91A      0.596432    92A      0.613161  
      93A      0.634857    94A      0.649031    95A      0.653106  
      96A      0.669941    97A      0.674915    98A      0.679058  
      99A      0.682524   100A      0.683996   101A      0.689795  
     102A      0.696126   103A      0.718237   104A      0.729452  
     105A      0.732525   106A      0.735317   107A      0.750327  
     108A      0.768687   109A      0.792585   110A      0.821810  
     111A      0.833245   112A      0.848663   113A      0.853096  
     114A      0.862891   115A      0.886916   116A      0.890998  
     117A      0.892482   118A      0.901322   119A      0.909474  
     120A      0.920735   121A      0.928425   122A      0.961234  
     123A      0.969067   124A      0.977306   125A      0.989841  
     126A      1.013879   127A      1.032273   128A      1.076174  
     129A      1.081510   130A      1.097032   131A      1.132593  
     132A      1.138200   133A      1.141371   134A      1.189860  
     135A      1.199043   136A      1.220342   137A      1.222195  
     138A      1.249606   139A      1.256822   140A      1.310092  
     141A      1.369905   142A      1.394928   143A      1.401939  
     144A      1.439603   145A      1.450365   146A      1.515426  
     147A      1.529378   148A      1.532648   149A      1.560477  
     150A      1.562222   151A      1.591526   152A      1.595696  
     153A      1.599115   154A      1.645005   155A      1.657434  
     156A      1.659125   157A      1.664785   158A      1.678806  
     159A      1.683046   160A      1.709650   161A      1.728272  
     162A      1.762154   163A      1.765230   164A      1.815753  
     165A      1.827143   166A      1.836317   167A      1.844395  
     168A      1.909913   169A      1.923295   170A      1.939909  
     171A      1.944784   172A      1.955483   173A      2.036462  
     174A      2.046618   175A      2.054674   176A      2.055113  
     177A      2.081603   178A      2.103764   179A      2.104952  
     180A      2.107474   181A      2.153332   182A      2.185340  
     183A      2.193103   184A      2.197365   185A      2.233954  
     186A      2.268103   187A      2.279483   188A      2.299397  
     189A      2.351467   190A      2.379626   191A      2.403089  
     192A      2.430037   193A      2.451888   194A      2.501596  
     195A      2.547672   196A      2.561749   197A      2.615721  
     198A      2.669007   199A      2.736655   200A      2.739027  
     201A      2.780224   202A      2.807011   203A      2.837533  
     204A      2.848578   205A      2.892072   206A      2.924238  
     207A      2.961038   208A      2.971484   209A      3.008233  
     210A      3.050040   211A      3.114081   212A      3.132749  
     213A      3.137473   214A      3.263314   215A      3.392683  
     216A      3.407588   217A      3.651026   218A      3.658188  
     219A      3.710135   220A      3.744365   221A      3.788494  
     222A      4.099499   223A      4.322500   224A      4.361576  

    Final Occupation by Irrep:
              A 
    DOCC [    26 ]

  @DF-RHF Final Energy:  -322.77071883805468

   => Energetics <=

    Nuclear Repulsion Energy =            261.9176360254393785
    One-Electron Energy =                -956.8751424091182116
    Two-Electron Energy =                 372.1867875456241563
    Total Energy =                       -322.7707188380546768

Computation Completed


Properties will be evaluated at   0.000000,   0.000000,   0.000000 [a0]

Properties computed using the SCF density matrix

  Nuclear Dipole Moment: [e a0]
     X:    -0.5072      Y:     0.6495      Z:     0.0002

  Electronic Dipole Moment: [e a0]
     X:     2.0760      Y:    -0.0498      Z:     0.0004

  Dipole Moment: [e a0]
     X:     1.5688      Y:     0.5997      Z:     0.0005     Total:     1.6795

  Dipole Moment: [D]
     X:     3.9875      Y:     1.5243      Z:     0.0013     Total:     4.2690


*** tstop() called on node100.bme.utexas.edu at Thu Apr 23 17:18:15 2020
Module time:
	user time   =      34.55 seconds =       0.58 minutes
	system time =       1.40 seconds =       0.02 minutes
	total time  =          6 seconds =       0.10 minutes
Total time:
	user time   =      34.55 seconds =       0.58 minutes
	system time =       1.40 seconds =       0.02 minutes
	total time  =          6 seconds =       0.10 minutes

  //>>>>>>>>>>>>>>>>>>>>>>>>>>>>>>>>>>>//
  //            Monomer A HF           //
  //<<<<<<<<<<<<<<<<<<<<<<<<<<<<<<<<<<<//


*** tstart() called on node100.bme.utexas.edu
*** at Thu Apr 23 17:18:15 2020

   => Loading Basis Set <=

    Name: AUG-CC-PVDZ
    Role: ORBITAL
    Keyword: BASIS
    atoms 1                     entry O          line   254 file /home/liuchw/anaconda3/envs/psi4env/share/psi4/basis/aug-cc-pvdz.gbs 
    atoms 2-3, 6, 8, 10, 12, 14 entry H          line    40 file /home/liuchw/anaconda3/envs/psi4env/share/psi4/basis/aug-cc-pvdz.gbs 
    atoms 4                     entry N          line   218 file /home/liuchw/anaconda3/envs/psi4env/share/psi4/basis/aug-cc-pvdz.gbs 
    atoms 5, 7, 9, 11, 13       entry C          line   182 file /home/liuchw/anaconda3/envs/psi4env/share/psi4/basis/aug-cc-pvdz.gbs 


         ---------------------------------------------------------
                                   SCF
               by Justin Turney, Rob Parrish, Andy Simmonett
                          and Daniel G. A. Smith
                              RHF Reference
                        8 Threads,  19073 MiB Core
         ---------------------------------------------------------

  ==> Geometry <==

    Molecular point group: c1
    Full point group: C1

    Geometry (in Angstrom), charge = 0, multiplicity = 1:

       Center              X                  Y                   Z               Mass       
    ------------   -----------------  -----------------  -----------------  -----------------
         O           -4.032904544172    -0.144227505432    -0.000580565616    15.994914619570
         H           -4.351834544172     0.759262494568     0.000059434384     1.007825032230
         H           -3.067414544172    -0.044357505432    -0.000330565616     1.007825032230
      Gh(N)          -0.476434544172     0.086372494568     0.000199434384    14.003074004430
      Gh(C)           0.219475455828     0.052392494568     1.144949434384    12.000000000000
      Gh(H)          -0.365204544172     0.076012494568     2.055809434384     1.007825032230
      Gh(C)           1.608495455828    -0.012787505432     1.194939434384    12.000000000000
      Gh(H)           2.114405455828    -0.037637505432     2.149269434384     1.007825032230
      Gh(C)           2.319655455828    -0.045907505432     0.000029434384    12.000000000000
      Gh(H)           3.399495455828    -0.097687505432    -0.000050565616     1.007825032230
      Gh(C)           1.608345455828    -0.012857505432    -1.194770565616    12.000000000000
      Gh(H)           2.114145455828    -0.037727505432    -2.149170565616     1.007825032230
      Gh(C)           0.219315455828     0.052342494568    -1.144620565616    12.000000000000
      Gh(H)          -0.365444544172     0.075942494568    -2.055420565616     1.007825032230

  Running in c1 symmetry.

  Rotational constants: A =      0.19913  B =      0.03816  C =      0.03216 [cm^-1]
  Rotational constants: A =   5969.75566  B =   1143.97861  C =    964.08413 [MHz]
  Nuclear repulsion =    9.129153413957313

  Charge       = 0
  Multiplicity = 1
  Electrons    = 10
  Nalpha       = 5
  Nbeta        = 5

  ==> Algorithm <==

  SCF Algorithm Type is DF.
  DIIS enabled.
  MOM disabled.
  Fractional occupation disabled.
  Guess Type is SAD.
  Energy threshold   = 1.00e-08
  Density threshold  = 1.00e-08
  Integral threshold = 0.00e+00

  ==> Primary Basis <==

  Basis Set: AUG-CC-PVDZ
    Blend: AUG-CC-PVDZ
    Number of shells: 98
    Number of basis function: 224
    Number of Cartesian functions: 238
    Spherical Harmonics?: true
    Max angular momentum: 2

   => Loading Basis Set <=

    Name: (AUG-CC-PVDZ AUX)
    Role: JKFIT
    Keyword: DF_BASIS_SCF
    atoms 1                     entry O          line   270 file /home/liuchw/anaconda3/envs/psi4env/share/psi4/basis/aug-cc-pvdz-jkfit.gbs 
    atoms 2-3, 6, 8, 10, 12, 14 entry H          line    70 file /home/liuchw/anaconda3/envs/psi4env/share/psi4/basis/aug-cc-pvdz-jkfit.gbs 
    atoms 4                     entry N          line   212 file /home/liuchw/anaconda3/envs/psi4env/share/psi4/basis/aug-cc-pvdz-jkfit.gbs 
    atoms 5, 7, 9, 11, 13       entry C          line   154 file /home/liuchw/anaconda3/envs/psi4env/share/psi4/basis/aug-cc-pvdz-jkfit.gbs 

  ==> Pre-Iterations <==

   -------------------------------------------------------
    Irrep   Nso     Nmo     Nalpha   Nbeta   Ndocc  Nsocc
   -------------------------------------------------------
     A        224     224       0       0       0       0
   -------------------------------------------------------
    Total     224     224       5       5       5       0
   -------------------------------------------------------

  ==> Integral Setup <==

  ==> DiskDFJK: Density-Fitted J/K Matrices <==

    J tasked:                  Yes
    K tasked:                  Yes
    wK tasked:                  No
    OpenMP threads:              8
    Integrals threads:           8
    Memory [MiB]:            14305
    Algorithm:                Core
    Integral Cache:           LOAD
    Schwarz Cutoff:          1E-12
    Fitting Condition:       1E-10

   => Auxiliary Basis Set <=

  Basis Set: (AUG-CC-PVDZ AUX)
    Blend: AUG-CC-PVDZ-JKFIT
    Number of shells: 280
    Number of basis function: 826
    Number of Cartesian functions: 952
    Spherical Harmonics?: true
    Max angular momentum: 3

  Minimum eigenvalue in the overlap matrix is 9.2194020924E-06.
  Using Symmetric Orthogonalization.

  SCF Guess: Superposition of Atomic Densities via on-the-fly atomic UHF.

  ==> Iterations <==

                           Total Energy        Delta E     RMS |[F,P]|

   @DF-RHF iter SAD:   -75.45869820698563   -7.54587e+01   0.00000e+00 
   @DF-RHF iter   1:   -75.95631751954571   -4.97619e-01   2.02288e-03 DIIS
   @DF-RHF iter   2:   -76.00940793100654   -5.30904e-02   1.33093e-03 DIIS
   @DF-RHF iter   3:   -76.04047621416633   -3.10683e-02   9.52126e-05 DIIS
   @DF-RHF iter   4:   -76.04085978568398   -3.83572e-04   2.16676e-05 DIIS
   @DF-RHF iter   5:   -76.04088217023055   -2.23845e-05   4.93791e-06 DIIS
   @DF-RHF iter   6:   -76.04088396883220   -1.79860e-06   9.92299e-07 DIIS
   @DF-RHF iter   7:   -76.04088404512589   -7.62937e-08   1.63498e-07 DIIS
   @DF-RHF iter   8:   -76.04088404703272   -1.90683e-09   2.56413e-08 DIIS
   @DF-RHF iter   9:   -76.04088404707386   -4.11404e-11   6.70163e-09 DIIS
  Energy and wave function converged.


  ==> Post-Iterations <==

    Orbital Energies [Eh]
    ---------------------

    Doubly Occupied:                                                      

       1A    -20.578898     2A     -1.353692     3A     -0.713468  
       4A     -0.586122     5A     -0.509100  

    Virtual:                                                              

       6A      0.017204     7A      0.033816     8A      0.036160  
       9A      0.051511    10A      0.058087    11A      0.064928  
      12A      0.073117    13A      0.086593    14A      0.097723  
      15A      0.105784    16A      0.112958    17A      0.118744  
      18A      0.123532    19A      0.127074    20A      0.136308  
      21A      0.146462    22A      0.147816    23A      0.157101  
      24A      0.163243    25A      0.164721    26A      0.167977  
      27A      0.187137    28A      0.188595    29A      0.197730  
      30A      0.215980    31A      0.222639    32A      0.223630  
      33A      0.237525    34A      0.247968    35A      0.255308  
      36A      0.262921    37A      0.282781    38A      0.302977  
      39A      0.304635    40A      0.311233    41A      0.339169  
      42A      0.358555    43A      0.360625    44A      0.374799  
      45A      0.385064    46A      0.386083    47A      0.388930  
      48A      0.401342    49A      0.411047    50A      0.417346  
      51A      0.424293    52A      0.428580    53A      0.447279  
      54A      0.451290    55A      0.459572    56A      0.463269  
      57A      0.469956    58A      0.477909    59A      0.492283  
      60A      0.493651    61A      0.515829    62A      0.521917  
      63A      0.539797    64A      0.541897    65A      0.544345  
      66A      0.548311    67A      0.564888    68A      0.582754  
      69A      0.594767    70A      0.602141    71A      0.613873  
      72A      0.633655    73A      0.642318    74A      0.651687  
      75A      0.661804    76A      0.666758    77A      0.670852  
      78A      0.695740    79A      0.743625    80A      0.757742  
      81A      0.775506    82A      0.783950    83A      0.788536  
      84A      0.806079    85A      0.816800    86A      0.823243  
      87A      0.835855    88A      0.847787    89A      0.864915  
      90A      0.865786    91A      0.874831    92A      0.881159  
      93A      0.886663    94A      0.891041    95A      0.918666  
      96A      0.926228    97A      0.932225    98A      0.953314  
      99A      1.010451   100A      1.011134   101A      1.027584  
     102A      1.031094   103A      1.048629   104A      1.081818  
     105A      1.101548   106A      1.122969   107A      1.125160  
     108A      1.130601   109A      1.137908   110A      1.150668  
     111A      1.165900   112A      1.195693   113A      1.202770  
     114A      1.221017   115A      1.228271   116A      1.281833  
     117A      1.288195   118A      1.314608   119A      1.320422  
     120A      1.359045   121A      1.367111   122A      1.401131  
     123A      1.420130   124A      1.466611   125A      1.488016  
     126A      1.496832   127A      1.518300   128A      1.573497  
     129A      1.580058   130A      1.680664   131A      1.716459  
     132A      2.015824   133A      2.020998   134A      2.062023  
     135A      2.086465   136A      2.115015   137A      2.134416  
     138A      2.143886   139A      2.153357   140A      2.157453  
     141A      2.188353   142A      2.196738   143A      2.202891  
     144A      2.218972   145A      2.226233   146A      2.240990  
     147A      2.277403   148A      2.300485   149A      2.318213  
     150A      2.350167   151A      2.373018   152A      2.399015  
     153A      2.401350   154A      2.434114   155A      2.454715  
     156A      2.494836   157A      2.509226   158A      2.515117  
     159A      2.526567   160A      2.581598   161A      2.601290  
     162A      2.607386   163A      2.640548   164A      2.641678  
     165A      2.671405   166A      2.709508   167A      2.714257  
     168A      2.735518   169A      2.739187   170A      2.811630  
     171A      2.837916   172A      2.849165   173A      2.863548  
     174A      2.929065   175A      2.937668   176A      2.985969  
     177A      3.007198   178A      3.041064   179A      3.048786  
     180A      3.141850   181A      3.169115   182A      3.272240  
     183A      3.293889   184A      3.345081   185A      3.388614  
     186A      3.404801   187A      3.414227   188A      3.446143  
     189A      3.476423   190A      3.514141   191A      3.531692  
     192A      3.608832   193A      3.627346   194A      3.686977  
     195A      3.726085   196A      3.757703   197A      3.865220  
     198A      3.874848   199A      3.885081   200A      4.003945  
     201A      4.044878   202A      4.095796   203A      4.176220  
     204A      4.351004   205A      4.428393   206A      4.526892  
     207A      4.596854   208A      4.667872   209A      4.762619  
     210A      4.924526   211A      5.138449   212A      5.394633  
     213A      5.484646   214A      5.547060   215A      5.595216  
     216A      5.609725   217A      5.783986   218A      6.142190  
     219A     18.058792   220A     18.345291   221A     18.698060  
     222A     19.045380   223A     19.915064   224A     25.315036  

    Final Occupation by Irrep:
              A 
    DOCC [     5 ]

  @DF-RHF Final Energy:   -76.04088404707386

   => Energetics <=

    Nuclear Repulsion Energy =              9.1291534139573134
    One-Electron Energy =                -122.8575148166895445
    Two-Electron Energy =                  37.6874773556583733
    Total Energy =                        -76.0408840470738596

Computation Completed


Properties will be evaluated at   0.000000,   0.000000,   0.000000 [a0]

Properties computed using the SCF density matrix

  Nuclear Dipole Moment: [e a0]
     X:   -74.9890      Y:    -0.8294      Z:    -0.0093

  Electronic Dipole Moment: [e a0]
     X:    75.4178      Y:     1.4989      Z:     0.0099

  Dipole Moment: [e a0]
     X:     0.4287      Y:     0.6695      Z:     0.0006     Total:     0.7950

  Dipole Moment: [D]
     X:     1.0898      Y:     1.7017      Z:     0.0015     Total:     2.0207


*** tstop() called on node100.bme.utexas.edu at Thu Apr 23 17:18:17 2020
Module time:
	user time   =      13.47 seconds =       0.22 minutes
	system time =       0.66 seconds =       0.01 minutes
	total time  =          2 seconds =       0.03 minutes
Total time:
	user time   =      48.09 seconds =       0.80 minutes
	system time =       2.06 seconds =       0.03 minutes
	total time  =          8 seconds =       0.13 minutes

  //>>>>>>>>>>>>>>>>>>>>>>>>>>>>>>>>>>>//
  //            Monomer B HF           //
  //<<<<<<<<<<<<<<<<<<<<<<<<<<<<<<<<<<<//


*** tstart() called on node100.bme.utexas.edu
*** at Thu Apr 23 17:18:17 2020

   => Loading Basis Set <=

    Name: AUG-CC-PVDZ
    Role: ORBITAL
    Keyword: BASIS
    atoms 1                     entry O          line   254 file /home/liuchw/anaconda3/envs/psi4env/share/psi4/basis/aug-cc-pvdz.gbs 
    atoms 2-3, 6, 8, 10, 12, 14 entry H          line    40 file /home/liuchw/anaconda3/envs/psi4env/share/psi4/basis/aug-cc-pvdz.gbs 
    atoms 4                     entry N          line   218 file /home/liuchw/anaconda3/envs/psi4env/share/psi4/basis/aug-cc-pvdz.gbs 
    atoms 5, 7, 9, 11, 13       entry C          line   182 file /home/liuchw/anaconda3/envs/psi4env/share/psi4/basis/aug-cc-pvdz.gbs 


         ---------------------------------------------------------
                                   SCF
               by Justin Turney, Rob Parrish, Andy Simmonett
                          and Daniel G. A. Smith
                              RHF Reference
                        8 Threads,  19073 MiB Core
         ---------------------------------------------------------

  ==> Geometry <==

    Molecular point group: c1
    Full point group: C1

    Geometry (in Angstrom), charge = 0, multiplicity = 1:

       Center              X                  Y                   Z               Mass       
    ------------   -----------------  -----------------  -----------------  -----------------
      Gh(O)          -4.032904544172    -0.144227505432    -0.000580565616    15.994914619570
      Gh(H)          -4.351834544172     0.759262494568     0.000059434384     1.007825032230
      Gh(H)          -3.067414544172    -0.044357505432    -0.000330565616     1.007825032230
         N           -0.476434544172     0.086372494568     0.000199434384    14.003074004430
         C            0.219475455828     0.052392494568     1.144949434384    12.000000000000
         H           -0.365204544172     0.076012494568     2.055809434384     1.007825032230
         C            1.608495455828    -0.012787505432     1.194939434384    12.000000000000
         H            2.114405455828    -0.037637505432     2.149269434384     1.007825032230
         C            2.319655455828    -0.045907505432     0.000029434384    12.000000000000
         H            3.399495455828    -0.097687505432    -0.000050565616     1.007825032230
         C            1.608345455828    -0.012857505432    -1.194770565616    12.000000000000
         H            2.114145455828    -0.037727505432    -2.149170565616     1.007825032230
         C            0.219315455828     0.052342494568    -1.144620565616    12.000000000000
         H           -0.365444544172     0.075942494568    -2.055420565616     1.007825032230

  Running in c1 symmetry.

  Rotational constants: A =      0.19913  B =      0.03816  C =      0.03216 [cm^-1]
  Rotational constants: A =   5969.75566  B =   1143.97861  C =    964.08413 [MHz]
  Nuclear repulsion =  206.285600193522896

  Charge       = 0
  Multiplicity = 1
  Electrons    = 42
  Nalpha       = 21
  Nbeta        = 21

  ==> Algorithm <==

  SCF Algorithm Type is DF.
  DIIS enabled.
  MOM disabled.
  Fractional occupation disabled.
  Guess Type is SAD.
  Energy threshold   = 1.00e-08
  Density threshold  = 1.00e-08
  Integral threshold = 0.00e+00

  ==> Primary Basis <==

  Basis Set: AUG-CC-PVDZ
    Blend: AUG-CC-PVDZ
    Number of shells: 98
    Number of basis function: 224
    Number of Cartesian functions: 238
    Spherical Harmonics?: true
    Max angular momentum: 2

   => Loading Basis Set <=

    Name: (AUG-CC-PVDZ AUX)
    Role: JKFIT
    Keyword: DF_BASIS_SCF
    atoms 1                     entry O          line   270 file /home/liuchw/anaconda3/envs/psi4env/share/psi4/basis/aug-cc-pvdz-jkfit.gbs 
    atoms 2-3, 6, 8, 10, 12, 14 entry H          line    70 file /home/liuchw/anaconda3/envs/psi4env/share/psi4/basis/aug-cc-pvdz-jkfit.gbs 
    atoms 4                     entry N          line   212 file /home/liuchw/anaconda3/envs/psi4env/share/psi4/basis/aug-cc-pvdz-jkfit.gbs 
    atoms 5, 7, 9, 11, 13       entry C          line   154 file /home/liuchw/anaconda3/envs/psi4env/share/psi4/basis/aug-cc-pvdz-jkfit.gbs 

  ==> Pre-Iterations <==

   -------------------------------------------------------
    Irrep   Nso     Nmo     Nalpha   Nbeta   Ndocc  Nsocc
   -------------------------------------------------------
     A        224     224       0       0       0       0
   -------------------------------------------------------
    Total     224     224      21      21      21       0
   -------------------------------------------------------

  ==> Integral Setup <==

  ==> DiskDFJK: Density-Fitted J/K Matrices <==

    J tasked:                  Yes
    K tasked:                  Yes
    wK tasked:                  No
    OpenMP threads:              8
    Integrals threads:           8
    Memory [MiB]:            14305
    Algorithm:                Core
    Integral Cache:           LOAD
    Schwarz Cutoff:          1E-12
    Fitting Condition:       1E-10

   => Auxiliary Basis Set <=

  Basis Set: (AUG-CC-PVDZ AUX)
    Blend: AUG-CC-PVDZ-JKFIT
    Number of shells: 280
    Number of basis function: 826
    Number of Cartesian functions: 952
    Spherical Harmonics?: true
    Max angular momentum: 3

  Minimum eigenvalue in the overlap matrix is 9.2194020924E-06.
  Using Symmetric Orthogonalization.

  SCF Guess: Superposition of Atomic Densities via on-the-fly atomic UHF.

  ==> Iterations <==

                           Total Energy        Delta E     RMS |[F,P]|

   @DF-RHF iter SAD:  -246.11372858183509   -2.46114e+02   0.00000e+00 
   @DF-RHF iter   1:  -246.58197778930327   -4.68249e-01   2.08685e-03 DIIS
   @DF-RHF iter   2:  -246.70009919759366   -1.18121e-01   9.47434e-04 DIIS
   @DF-RHF iter   3:  -246.72262500339613   -2.25258e-02   1.85071e-04 DIIS
   @DF-RHF iter   4:  -246.72393256538132   -1.30756e-03   5.83081e-05 DIIS
   @DF-RHF iter   5:  -246.72401745274431   -8.48874e-05   1.59958e-05 DIIS
   @DF-RHF iter   6:  -246.72402634715056   -8.89441e-06   4.03531e-06 DIIS
   @DF-RHF iter   7:  -246.72402707419224   -7.27042e-07   1.57730e-06 DIIS
   @DF-RHF iter   8:  -246.72402719364317   -1.19451e-07   6.50731e-07 DIIS
   @DF-RHF iter   9:  -246.72402723291265   -3.92695e-08   1.99865e-07 DIIS
   @DF-RHF iter  10:  -246.72402723804663   -5.13398e-09   7.03853e-08 DIIS
   @DF-RHF iter  11:  -246.72402723885318   -8.06551e-10   3.99220e-08 DIIS
   @DF-RHF iter  12:  -246.72402723901496   -1.61776e-10   9.40806e-09 DIIS
  Energy and wave function converged.


  ==> Post-Iterations <==

    Orbital Energies [Eh]
    ---------------------

    Doubly Occupied:                                                      

       1A    -15.575113     2A    -11.281771     3A    -11.281752  
       4A    -11.266505     5A    -11.248676     6A    -11.248625  
       7A     -1.259938     8A     -1.092462     9A     -1.037252  
      10A     -0.861352    11A     -0.858398    12A     -0.723241  
      13A     -0.661729    14A     -0.655457    15A     -0.600138  
      16A     -0.577577    17A     -0.541002    18A     -0.520911  
      19A     -0.418241    20A     -0.383339    21A     -0.348197  

    Virtual:                                                              

      22A      0.031751    23A      0.040410    24A      0.041194  
      25A      0.055053    26A      0.058627    27A      0.070901  
      28A      0.082047    29A      0.090547    30A      0.104681  
      31A      0.113777    32A      0.117495    33A      0.127532  
      34A      0.134561    35A      0.138270    36A      0.144737  
      37A      0.146134    38A      0.152512    39A      0.156933  
      40A      0.158876    41A      0.164554    42A      0.170624  
      43A      0.181719    44A      0.184824    45A      0.186676  
      46A      0.193938    47A      0.201102    48A      0.225621  
      49A      0.229945    50A      0.236835    51A      0.291833  
      52A      0.294690    53A      0.296584    54A      0.297647  
      55A      0.307114    56A      0.325089    57A      0.330597  
      58A      0.340179    59A      0.345167    60A      0.349672  
      61A      0.356968    62A      0.357785    63A      0.368183  
      64A      0.380114    65A      0.403846    66A      0.410975  
      67A      0.426339    68A      0.428144    69A      0.429686  
      70A      0.435949    71A      0.443243    72A      0.449454  
      73A      0.459753    74A      0.472431    75A      0.491310  
      76A      0.501693    77A      0.529719    78A      0.539901  
      79A      0.543335    80A      0.557116    81A      0.560001  
      82A      0.562168    83A      0.580896    84A      0.589470  
      85A      0.590469    86A      0.594870    87A      0.598367  
      88A      0.627627    89A      0.642151    90A      0.655005  
      91A      0.659213    92A      0.672045    93A      0.684382  
      94A      0.686960    95A      0.689490    96A      0.694915  
      97A      0.702528    98A      0.702579    99A      0.735060  
     100A      0.739960   101A      0.741817   102A      0.749485  
     103A      0.774550   104A      0.781060   105A      0.827255  
     106A      0.851726   107A      0.856058   108A      0.857716  
     109A      0.879270   110A      0.886446   111A      0.899468  
     112A      0.904785   113A      0.907998   114A      0.914633  
     115A      0.929351   116A      0.935097   117A      0.967310  
     118A      0.981161   119A      0.989051   120A      1.002596  
     121A      1.009265   122A      1.031743   123A      1.041526  
     124A      1.092129   125A      1.114295   126A      1.129011  
     127A      1.140672   128A      1.154281   129A      1.186232  
     130A      1.205803   131A      1.233295   132A      1.245348  
     133A      1.265718   134A      1.304377   135A      1.305662  
     136A      1.349077   137A      1.373600   138A      1.375158  
     139A      1.422501   140A      1.457136   141A      1.468075  
     142A      1.517090   143A      1.530628   144A      1.543127  
     145A      1.545020   146A      1.571578   147A      1.573382  
     148A      1.604501   149A      1.604951   150A      1.621554  
     151A      1.655068   152A      1.671677   153A      1.680861  
     154A      1.685784   155A      1.709224   156A      1.719479  
     157A      1.757491   158A      1.774169   159A      1.825214  
     160A      1.832408   161A      1.852480   162A      1.857379  
     163A      1.916355   164A      1.930787   165A      1.947291  
     166A      1.953089   167A      1.962648   168A      2.059268  
     169A      2.061821   170A      2.073219   171A      2.087850  
     172A      2.114072   173A      2.114262   174A      2.125989  
     175A      2.177806   176A      2.202237   177A      2.205188  
     178A      2.242321   179A      2.266375   180A      2.283446  
     181A      2.304098   182A      2.359032   183A      2.367242  
     184A      2.400191   185A      2.410843   186A      2.437574  
     187A      2.453516   188A      2.505511   189A      2.509980  
     190A      2.561988   191A      2.617972   192A      2.627161  
     193A      2.685895   194A      2.710083   195A      2.748936  
     196A      2.783466   197A      2.826512   198A      2.846346  
     199A      2.865389   200A      2.929510   201A      2.969041  
     202A      2.982754   203A      3.030363   204A      3.121261  
     205A      3.141300   206A      3.144103   207A      3.271027  
     208A      3.402437   209A      3.420027   210A      3.508528  
     211A      3.666463   212A      3.668765   213A      3.965221  
     214A      4.106971   215A      4.331357   216A      4.922440  
     217A      4.979164   218A      5.022478   219A      5.163827  
     220A      5.509195   221A      5.737568   222A      6.614950  
     223A      7.076184   224A     33.583984  

    Final Occupation by Irrep:
              A 
    DOCC [    21 ]

  @DF-RHF Final Energy:  -246.72402723901496

   => Energetics <=

    Nuclear Repulsion Energy =            206.2856001935228960
    One-Electron Energy =                -741.1359070936750868
    Two-Electron Energy =                 288.1262796611372323
    Total Energy =                       -246.7240272390149585

Computation Completed


Properties will be evaluated at   0.000000,   0.000000,   0.000000 [a0]

Properties computed using the SCF density matrix

  Nuclear Dipole Moment: [e a0]
     X:    74.4818      Y:     1.4789      Z:     0.0094

  Electronic Dipole Moment: [e a0]
     X:   -73.5684      Y:    -1.5254      Z:    -0.0095

  Dipole Moment: [e a0]
     X:     0.9134      Y:    -0.0465      Z:    -0.0001     Total:     0.9146

  Dipole Moment: [D]
     X:     2.3216      Y:    -0.1182      Z:    -0.0002     Total:     2.3246


*** tstop() called on node100.bme.utexas.edu at Thu Apr 23 17:18:20 2020
Module time:
	user time   =      19.33 seconds =       0.32 minutes
	system time =       0.91 seconds =       0.02 minutes
	total time  =          3 seconds =       0.05 minutes
Total time:
	user time   =      67.58 seconds =       1.13 minutes
	system time =       2.98 seconds =       0.05 minutes
	total time  =         11 seconds =       0.18 minutes
  Constructing Basis Sets for SAPT...

   => Loading Basis Set <=

    Name: (AUG-CC-PVDZ AUX)
    Role: RIFIT
    Keyword: DF_BASIS_SAPT
    atoms 1                     entry O          line   204 file /home/liuchw/anaconda3/envs/psi4env/share/psi4/basis/aug-cc-pvdz-ri.gbs 
    atoms 2-3, 6, 8, 10, 12, 14 entry H          line    30 file /home/liuchw/anaconda3/envs/psi4env/share/psi4/basis/aug-cc-pvdz-ri.gbs 
    atoms 4                     entry N          line   158 file /home/liuchw/anaconda3/envs/psi4env/share/psi4/basis/aug-cc-pvdz-ri.gbs 
    atoms 5, 7, 9, 11, 13       entry C          line   112 file /home/liuchw/anaconda3/envs/psi4env/share/psi4/basis/aug-cc-pvdz-ri.gbs 


  //>>>>>>>>>>>>>>>>>>>>>>>>>>>>>>>>>>>//
  //               SAPT2+              //
  //<<<<<<<<<<<<<<<<<<<<<<<<<<<<<<<<<<<//


*** tstart() called on node100.bme.utexas.edu
*** at Thu Apr 23 17:18:21 2020

        SAPT2+  
    Ed Hohenstein
     6 June 2009

      Orbital Information
  --------------------------
    NSO        =       224
    NMO        =       224
    NRI        =       665
    NOCC A     =         5
    NOCC B     =        21
    FOCC A     =         1
    FOCC B     =         6
    NVIR A     =       219
    NVIR B     =       203

    Estimated memory usage: 762.8 MB

    Natural Orbital Cutoff:   1.000E-06
    Disp(T3) Truncation:            Yes
    CCD (vv|vv) Truncation:         Yes
    MBPT T2 Truncation:             Yes

    Monomer A: 183 virtual orbitals dropped
    Monomer B: 48 virtual orbitals dropped

    Elst10,r            =    -0.006660401457 [Eh]
    Exch10 (S^2)        =     0.001960914177 [Eh]
    Exch10              =     0.001964282059 [Eh]
    Ind20,r (A<-B)      =    -0.000313702345 [Eh]
    Ind20,r (B<-A)      =    -0.000942320610 [Eh]
    Ind20,r             =    -0.001256022955 [Eh]
    Exch-Ind20,r (A<-B) =     0.000041621977 [Eh]
    Exch-Ind20,r (B<-A) =     0.000396005085 [Eh]
    Exch-Ind20,r        =     0.000437627062 [Eh]
    Disp20              =    -0.001724016173 [Eh]
    Disp20 (NO)         =    -0.001549540913 [Eh]
    Exch-Disp20         =     0.000161315814 [Eh]
    Elst12,r            =    -0.000021661442 [Eh]
    Exch11              =     0.000003523621 [Eh]
    Exch12              =     0.000546228215 [Eh]
    Ind22               =    -0.000195928255 [Eh]
    Disp21              =     0.000160505379 [Eh]
    Disp22 (SDQ)        =    -0.000100278916 [Eh]

    (i =   1 of  15)          0 seconds
    (i =   2 of  15)          0 seconds
    (i =   3 of  15)          0 seconds
    (i =   4 of  15)          0 seconds
    (i =   5 of  15)          0 seconds
    (i =   6 of  15)          0 seconds
    (i =   7 of  15)          0 seconds
    (i =   8 of  15)          0 seconds
    (i =   9 of  15)          1 seconds
    (i =  10 of  15)          1 seconds
    (i =  11 of  15)          1 seconds
    (i =  12 of  15)          1 seconds
    (i =  13 of  15)          1 seconds
    (i =  14 of  15)          1 seconds
    (i =  15 of  15)          1 seconds

    Disp220 (T)         =    -0.000145130688 [Eh]

    (i =   1 of   4)          4 seconds
    (i =   2 of   4)          8 seconds
    (i =   3 of   4)         12 seconds
    (i =   4 of   4)         15 seconds

    Disp202 (T)         =    -0.000161831475 [Eh]

    Disp22 (T)          =    -0.000306962162 [Eh]

    Est. Disp220 (T)    =    -0.000161472118 [Eh]
    Est. Disp202 (T)    =    -0.000180053380 [Eh]

    Est. Disp22 (T)     =    -0.000341525498 [Eh]

    SAPT Results 
  --------------------------------------------------------------------------------------------------------
    Electrostatics                 -6.68206290 [mEh]      -4.19305777 [kcal/mol]     -17.54375372 [kJ/mol]
      Elst10,r                     -6.66040146 [mEh]      -4.17946501 [kcal/mol]     -17.48688162 [kJ/mol]
      Elst12,r                     -0.02166144 [mEh]      -0.01359276 [kcal/mol]      -0.05687211 [kJ/mol]

    Exchange                        2.51403389 [mEh]       1.57758009 [kcal/mol]       6.60059508 [kJ/mol]
      Exch10                        1.96428206 [mEh]       1.23260560 [kcal/mol]       5.15722183 [kJ/mol]
      Exch10(S^2)                   1.96091418 [mEh]       1.23049222 [kcal/mol]       5.14837946 [kJ/mol]
      Exch11(S^2)                   0.00352362 [mEh]       0.00221111 [kcal/mol]       0.00925127 [kJ/mol]
      Exch12(S^2)                   0.54622821 [mEh]       0.34276338 [kcal/mol]       1.43412198 [kJ/mol]

    Induction                      -1.23909495 [mEh]      -0.77754382 [kcal/mol]      -3.25324334 [kJ/mol]
      Ind20,r                      -1.25602295 [mEh]      -0.78816630 [kcal/mol]      -3.29768781 [kJ/mol]
      Ind22                        -0.19592826 [mEh]      -0.12294684 [kcal/mol]      -0.51440956 [kJ/mol]
      Exch-Ind20,r                  0.43762706 [mEh]       0.27461513 [kcal/mol]       1.14898969 [kJ/mol]
      Exch-Ind22                    0.06826588 [mEh]       0.04283748 [kcal/mol]       0.17923203 [kJ/mol]
      delta HF,r (2)               -0.29303668 [mEh]      -0.18388329 [kcal/mol]      -0.76936768 [kJ/mol]

    Dispersion                     -1.84399939 [mEh]      -1.15712709 [kcal/mol]      -4.84141974 [kJ/mol]
      Disp20                       -1.72401617 [mEh]      -1.08183648 [kcal/mol]      -4.52640384 [kJ/mol]
      Disp21                        0.16050538 [mEh]       0.10071865 [kcal/mol]       0.42140682 [kJ/mol]
      Disp22 (SDQ)                 -0.10027892 [mEh]      -0.06292597 [kcal/mol]      -0.26328226 [kJ/mol]
      Disp22 (T)                   -0.30696216 [mEh]      -0.19262166 [kcal/mol]      -0.80592905 [kJ/mol]
      Est. Disp22 (T)              -0.34152550 [mEh]      -0.21431049 [kcal/mol]      -0.89667507 [kJ/mol]
      Exch-Disp20                   0.16131581 [mEh]       0.10122720 [kcal/mol]       0.42353461 [kJ/mol]

  Total HF                         -5.80755197 [mEh]      -3.64429388 [kcal/mol]     -15.24772559 [kJ/mol]
  Total SAPT0                      -7.37025232 [mEh]      -4.62490316 [kcal/mol]     -19.35059481 [kJ/mol]
  Total SAPT2                      -6.96982431 [mEh]      -4.37363079 [kcal/mol]     -18.29927121 [kJ/mol]
  Total SAPT2+                     -7.25112334 [mEh]      -4.55014859 [kcal/mol]     -19.03782172 [kJ/mol]

  Special recipe for scaled SAPT0 (see Manual):
    Electrostatics sSAPT0          -6.66040146 [mEh]      -4.17946501 [kcal/mol]     -17.48688162 [kJ/mol]
    Exchange sSAPT0                 1.96428206 [mEh]       1.23260560 [kcal/mol]       5.15722183 [kJ/mol]
    Induction sSAPT0               -1.10917381 [mEh]      -0.69601707 [kcal/mol]      -2.91213544 [kJ/mol]
    Dispersion sSAPT0              -1.56186775 [mEh]      -0.98008681 [kcal/mol]      -4.10068321 [kJ/mol]
  Total sSAPT0                     -7.36716096 [mEh]      -4.62296330 [kcal/mol]     -19.34247843 [kJ/mol]
  --------------------------------------------------------------------------------------------------------

*** tstop() called on node100.bme.utexas.edu at Thu Apr 23 17:19:13 2020
Module time:
	user time   =     393.38 seconds =       6.56 minutes
	system time =      20.34 seconds =       0.34 minutes
	total time  =         52 seconds =       0.87 minutes
Total time:
	user time   =     461.82 seconds =       7.70 minutes
	system time =      23.36 seconds =       0.39 minutes
	total time  =         64 seconds =       1.07 minutes

    Psi4 stopped on: Thursday, 23 April 2020 05:19PM
    Psi4 wall time for execution: 0:01:03.92

*** Psi4 exiting successfully. Buy a developer a beer!
