    -----------------------------------------------------------------------
          PSI4: An Open-Source Ab Initio Electronic Structure Package
                              PSI 4.0.0-beta4 Driver

    J. M. Turney, A. C. Simmonett, R. M. Parrish, E. G. Hohenstein,
    F. A. Evangelista, J. T. Fermann, B. J. Mintz, L. A. Burns, J. J. Wilke,
    M. L. Abrams, N. J. Russ, M. L. Leininger, C. L. Janssen, E. T. Seidl,
    W. D. Allen, H. F. Schaefer, R. A. King, E. F. Valeev, C. D. Sherrill,
    and T. D. Crawford, WIREs Comput. Mol. Sci., (2011) (doi: 10.1002/wcms.93)

                         Additional Contributions by
    A. E. DePrince, M. Saitow, U. Bozkaya, A. Yu. Sokolov
    -----------------------------------------------------------------------

    Process ID:   3292
    PSI4DATADIR: /home/xzhu216/psi4/psi4-install/share/psi

    Using LocalCommunicator (Number of processes = 1)

    Memory level set to 256.000 MB

  ==> Input File <==

--------------------------------------------------------------------------
#psi4
#
memory 3 gb

molecule Water_Pyridine {
0 1
O   -0.552831024  -0.101697490  -0.000498788
H   -0.871759633   0.801792198   0.000144400
H    0.412659497  -0.001832248  -0.000251810
--
0 1
N    2.206445648   0.088672301   0.000114613
C    2.902352287   0.054701509   1.144862459
H    2.317679736   0.078312451   2.055730487
C    4.291375879  -0.010480923   1.194858523
H    4.797282260  -0.035335078   2.149187645
C    5.002539024  -0.043606721  -0.000052623
H    6.082378975  -0.095380274  -0.000133051
C    4.291230726  -0.010547578  -1.194853920
H    4.797027673  -0.035420605  -2.149252521
C    2.902200712   0.054647413  -1.144707660
H    2.317431829   0.078248068  -2.055500213
units angstrom
no_reorient  #important for SAPT in psi4, default
symmetry c1  #important for SAPT in psi4, default
}

set {
basis aug-cc-pVDZ
scf_type DF
freeze_core True
}
energy('sapt2+')
--------------------------------------------------------------------------

  Memory set to   3.000 GiB by Python script.

  //>>>>>>>>>>>>>>>>>>>>>>>>>>>>>>>>>>>//
  //              Dimer HF             //
  //<<<<<<<<<<<<<<<<<<<<<<<<<<<<<<<<<<<//


  No DF_BASIS_SCF auxiliary basis selected, defaulting to aug-cc-pvdz-jkfit


*** tstart() called on node121.bme.utexas.edu
*** at Wed Sep 18 18:09:33 2013


         ---------------------------------------------------------
                                   SCF
            by Justin Turney, Rob Parrish, and Andy Simmonett
                              RHF Reference
                        4 Threads,   3000 MiB Core
         ---------------------------------------------------------

  ==> Geometry <==

    Molecular point group: c1
    Full point group: C1

    Geometry (in Angstrom), charge = 0, multiplicity = 1:

       Center              X                  Y                   Z       
    ------------   -----------------  -----------------  -----------------
           O         -3.383651679312    -0.111467184155    -0.000445544390
           H         -3.702580288312     0.792022503845     0.000197643610
           H         -2.418161158312    -0.011601942155    -0.000198566390
           N         -0.624375007312     0.078902606845     0.000167856610
           C          0.071531631688     0.044931814845     1.144915702610
           H         -0.513140919312     0.068542756845     2.055783730610
           C          1.460555223688    -0.020250617155     1.194911766610
           H          1.966461604688    -0.045104772155     2.149240888610
           C          2.171718368688    -0.053376415155     0.000000620610
           H          3.251558319688    -0.105149968155    -0.000079807390
           C          1.460410070688    -0.020317272155    -1.194800676390
           H          1.966207017688    -0.045190299155    -2.149199277390
           C          0.071380056688     0.044877718845    -1.144654416390
           H         -0.513388826312     0.068478373845    -2.055446969390

  Running in c1 symmetry.

  Nuclear repulsion =  271.646142501440522

  Charge       = 0
  Multiplicity = 1
  Electrons    = 52
  Nalpha       = 26
  Nbeta        = 26

  ==> Algorithm <==

  SCF Algorithm Type is DF.
  DIIS enabled.
  MOM disabled.
  Fractional occupation disabled.
  Guess Type is CORE.
  Energy threshold   = 1.00e-08
  Density threshold  = 1.00e-08
  Integral threshold = 0.00e+00

  ==> Primary Basis <==

  Basis Set: AUG-CC-PVDZ
    Number of shells: 98
    Number of basis function: 224
    Number of Cartesian functions: 238
    Spherical Harmonics?: true
    Max angular momentum: 2

  ==> Pre-Iterations <==

   -------------------------------------------------------
    Irrep   Nso     Nmo     Nalpha   Nbeta   Ndocc  Nsocc
   -------------------------------------------------------
     A        224     224       0       0       0       0
   -------------------------------------------------------
    Total     224     224      26      26      26       0
   -------------------------------------------------------

 OEINTS: Wrapper to libmints.
   by Justin Turney

   Calculation information:
      Number of atoms:                  14
      Number of AO shells:              98
      Number of SO shells:              98
      Number of primitives:            224
      Number of atomic orbitals:       238
      Number of basis functions:       224

      Number of irreps:                  1
      Number of functions per irrep: [ 224 ]

      Overlap, kinetic, potential, dipole, and quadrupole integrals
        stored in file 35.

  ==> Integral Setup <==

  ==> DFJK: Density-Fitted J/K Matrices <==

    J tasked:                  Yes
    K tasked:                  Yes
    wK tasked:                  No
    OpenMP threads:              4
    Integrals threads:           4
    Memory (MB):              2145
    Algorithm:                Core
    Integral Cache:           SAVE
    Schwarz Cutoff:          0E+00
    Fitting Condition:       1E-12

   => Auxiliary Basis Set <=

  Basis Set: aug-cc-pvdz-jkfit
    Number of shells: 280
    Number of basis function: 826
    Number of Cartesian functions: 952
    Spherical Harmonics?: true
    Max angular momentum: 3

  Minimum eigenvalue in the overlap matrix is 8.1599777290E-06.
  Using Symmetric Orthogonalization.
  SCF Guess: Core (One-Electron) Hamiltonian.

  Guess energy:  -254.54886543781117

  ==> Iterations <==

                        Total Energy        Delta E     RMS |[F,P]|

   @RHF iter   1:  -242.93751198590462   -2.42938e+02   3.26357e-02 
   @RHF iter   2:   -78.32139708816328    1.64616e+02   6.75574e-02 DIIS
   @RHF iter   3:  -259.43035230684734   -1.81109e+02   2.82109e-02 DIIS
   @RHF iter   4:  -316.63123526645029   -5.72009e+01   1.20460e-02 DIIS
   @RHF iter   5:  -312.60320577118307    4.02803e+00   1.56716e-02 DIIS
   @RHF iter   6:  -322.40319400095234   -9.79999e+00   3.56128e-03 DIIS
   @RHF iter   7:  -322.72319436745056   -3.20000e-01   1.13452e-03 DIIS
   @RHF iter   8:  -322.76242467805594   -3.92303e-02   4.60263e-04 DIIS
   @RHF iter   9:  -322.76950393750724   -7.07926e-03   1.39013e-04 DIIS
   @RHF iter  10:  -322.77021914470379   -7.15207e-04   5.83493e-05 DIIS
   @RHF iter  11:  -322.77035573250987   -1.36588e-04   1.60986e-05 DIIS
   @RHF iter  12:  -322.77036558065231   -9.84814e-06   6.45755e-06 DIIS
   @RHF iter  13:  -322.77036756714097   -1.98649e-06   2.23569e-06 DIIS
   @RHF iter  14:  -322.77036802397799   -4.56837e-07   9.15972e-07 DIIS
   @RHF iter  15:  -322.77036811143080   -8.74528e-08   3.59040e-07 DIIS
   @RHF iter  16:  -322.77036812622498   -1.47942e-08   1.15714e-07 DIIS
   @RHF iter  17:  -322.77036812764152   -1.41654e-09   2.33709e-08 DIIS
   @RHF iter  18:  -322.77036812766914   -2.76259e-11   1.28346e-08 DIIS
   @RHF iter  19:  -322.77036812767574   -6.59384e-12   3.25851e-09 DIIS

  ==> Post-Iterations <==

	Orbital Energies (a.u.)
	-----------------------

	Doubly Occupied:                                                      

	   1A    -20.523275     2A    -15.593451     3A    -11.297713  
	   4A    -11.297693     5A    -11.280373     6A    -11.261275  
	   7A    -11.261226     8A     -1.306726     9A     -1.278328  
	  10A     -1.107519    11A     -1.051721    12A     -0.876271  
	  13A     -0.874117    14A     -0.741035    15A     -0.677467  
	  16A     -0.676483    17A     -0.666030    18A     -0.613607  
	  19A     -0.593117    20A     -0.558140    21A     -0.542221  
	  22A     -0.534531    23A     -0.460226    24A     -0.437311  
	  25A     -0.400214    26A     -0.361311  

	Virtual:                                                              

	  27A      0.027394    28A      0.037254    29A      0.042257  
	  30A      0.056341    31A      0.059189    32A      0.072420  
	  33A      0.077104    34A      0.094175    35A      0.095588  
	  36A      0.106757    37A      0.121157    38A      0.126084  
	  39A      0.132257    40A      0.133979    41A      0.141169  
	  42A      0.141458    43A      0.150765    44A      0.157185  
	  45A      0.161790    46A      0.168359    47A      0.175012  
	  48A      0.179517    49A      0.184320    50A      0.187506  
	  51A      0.189078    52A      0.231514    53A      0.268738  
	  54A      0.277479    55A      0.280104    56A      0.288025  
	  57A      0.290461    58A      0.294853    59A      0.299202  
	  60A      0.314485    61A      0.316265    62A      0.330157  
	  63A      0.332997    64A      0.338488    65A      0.342369  
	  66A      0.354708    67A      0.355450    68A      0.373172  
	  69A      0.379523    70A      0.395826    71A      0.404058  
	  72A      0.416597    73A      0.420934    74A      0.424897  
	  75A      0.427609    76A      0.439184    77A      0.443487  
	  78A      0.452871    79A      0.492627    80A      0.494777  
	  81A      0.519966    82A      0.525453    83A      0.526765  
	  84A      0.550501    85A      0.556281    86A      0.556756  
	  87A      0.574316    88A      0.577187    89A      0.584816  
	  90A      0.594199    91A      0.628977    92A      0.636836  
	  93A      0.639888    94A      0.649731    95A      0.660389  
	  96A      0.670603    97A      0.677457    98A      0.683146  
	  99A      0.687863   100A      0.689037   101A      0.698751  
	 102A      0.705934   103A      0.725369   104A      0.731873  
	 105A      0.744955   106A      0.748411   107A      0.764254  
	 108A      0.772755   109A      0.807818   110A      0.836113  
	 111A      0.846680   112A      0.857186   113A      0.867267  
	 114A      0.873575   115A      0.888865   116A      0.896358  
	 117A      0.907433   118A      0.913692   119A      0.923362  
	 120A      0.925186   121A      0.959064   122A      0.972163  
	 123A      0.980115   124A      0.986138   125A      1.005773  
	 126A      1.033816   127A      1.049148   128A      1.085192  
	 129A      1.125637   130A      1.132027   131A      1.155858  
	 132A      1.167720   133A      1.180731   134A      1.194794  
	 135A      1.210737   136A      1.230486   137A      1.246765  
	 138A      1.249247   139A      1.263822   140A      1.321595  
	 141A      1.398899   142A      1.428451   143A      1.431819  
	 144A      1.447598   145A      1.476112   146A      1.527154  
	 147A      1.543457   148A      1.551397   149A      1.559272  
	 150A      1.581282   151A      1.594118   152A      1.596632  
	 153A      1.605589   154A      1.657302   155A      1.661770  
	 156A      1.668548   157A      1.673028   158A      1.718909  
	 159A      1.733508   160A      1.746073   161A      1.766605  
	 162A      1.797604   163A      1.805977   164A      1.828480  
	 165A      1.830679   166A      1.839348   167A      1.910965  
	 168A      1.925183   169A      1.935841   170A      1.946162  
	 171A      1.948813   172A      2.031796   173A      2.040126  
	 174A      2.075387   175A      2.077708   176A      2.083964  
	 177A      2.099622   178A      2.102893   179A      2.115697  
	 180A      2.123499   181A      2.179390   182A      2.194637  
	 183A      2.204931   184A      2.245692   185A      2.292375  
	 186A      2.298341   187A      2.302455   188A      2.344890  
	 189A      2.358140   190A      2.392097   191A      2.428361  
	 192A      2.460773   193A      2.489437   194A      2.536392  
	 195A      2.604122   196A      2.612669   197A      2.623514  
	 198A      2.673520   199A      2.762147   200A      2.764741  
	 201A      2.824963   202A      2.861158   203A      2.884440  
	 204A      2.889816   205A      2.947752   206A      2.962504  
	 207A      2.979700   208A      2.997390   209A      3.084022  
	 210A      3.109687   211A      3.129798   212A      3.132181  
	 213A      3.246768   214A      3.290540   215A      3.391887  
	 216A      3.419709   217A      3.662577   218A      3.672215  
	 219A      3.744579   220A      3.787060   221A      3.860569  
	 222A      4.205313   223A      4.356847   224A      4.503997  

	Final Occupation by Irrep:
	          A 
	DOCC [    26 ]

  Energy converged.

  @RHF Final Energy:  -322.77036812767574

   => Energetics <=

    Nuclear Repulsion Energy =            271.6461425014405222
    One-Electron Energy =                -976.2902624674027265
    Two-Electron Energy =                 381.8737518382874896
    DFT Exchange-Correlation Energy =       0.0000000000000000
    Empirical Dispersion Energy =           0.0000000000000000
    Total Energy =                       -322.7703681276747147



Properties will be evaluated at   0.000000,   0.000000,   0.000000 Bohr
  ==> Properties <==


Properties computed using the SCF density density matrix
  Nuclear Dipole Moment: (a.u.)
     X:     0.0202      Y:     0.6761      Z:     0.0003

  Electronic Dipole Moment: (a.u.)
     X:     1.8183      Y:    -0.0897      Z:     0.0003

  Dipole Moment: (a.u.)
     X:     1.8385      Y:     0.5864      Z:     0.0005     Total:     1.9297

  Dipole Moment: (Debye)
     X:     4.6730      Y:     1.4904      Z:     0.0014     Total:     4.9049


  Saving occupied orbitals to File 180.

  Saving SAPT 2-DIMER file.

*** tstop() called on node121.bme.utexas.edu at Wed Sep 18 18:09:52 2013
Module time:
	user time   =      72.90 seconds =       1.21 minutes
	system time =       0.71 seconds =       0.01 minutes
	total time  =         19 seconds =       0.32 minutes
Total time:
	user time   =      72.90 seconds =       1.21 minutes
	system time =       0.71 seconds =       0.01 minutes
	total time  =         19 seconds =       0.32 minutes

  //>>>>>>>>>>>>>>>>>>>>>>>>>>>>>>>>>>>//
  //            Monomer A HF           //
  //<<<<<<<<<<<<<<<<<<<<<<<<<<<<<<<<<<<//


  No DF_BASIS_SCF auxiliary basis selected, defaulting to aug-cc-pvdz-jkfit


*** tstart() called on node121.bme.utexas.edu
*** at Wed Sep 18 18:09:52 2013


         ---------------------------------------------------------
                                   SCF
            by Justin Turney, Rob Parrish, and Andy Simmonett
                              RHF Reference
                        4 Threads,   3000 MiB Core
         ---------------------------------------------------------

  ==> Geometry <==

    Molecular point group: c1
    Full point group: C1

    Geometry (in Angstrom), charge = 0, multiplicity = 1:

       Center              X                  Y                   Z       
    ------------   -----------------  -----------------  -----------------
           O         -3.383651679312    -0.111467184155    -0.000445544390
           H         -3.702580288312     0.792022503845     0.000197643610
           H         -2.418161158312    -0.011601942155    -0.000198566390
           N(Gh)     -0.624375007312     0.078902606845     0.000167856610
           C(Gh)      0.071531631688     0.044931814845     1.144915702610
           H(Gh)     -0.513140919312     0.068542756845     2.055783730610
           C(Gh)      1.460555223688    -0.020250617155     1.194911766610
           H(Gh)      1.966461604688    -0.045104772155     2.149240888610
           C(Gh)      2.171718368688    -0.053376415155     0.000000620610
           H(Gh)      3.251558319688    -0.105149968155    -0.000079807390
           C(Gh)      1.460410070688    -0.020317272155    -1.194800676390
           H(Gh)      1.966207017688    -0.045190299155    -2.149199277390
           C(Gh)      0.071380056688     0.044877718845    -1.144654416390
           H(Gh)     -0.513388826312     0.068478373845    -2.055446969390

  Running in c1 symmetry.

  Nuclear repulsion =    9.129156360765405

  Charge       = 0
  Multiplicity = 1
  Electrons    = 10
  Nalpha       = 5
  Nbeta        = 5

  ==> Algorithm <==

  SCF Algorithm Type is DF.
  DIIS enabled.
  MOM disabled.
  Fractional occupation disabled.
  Guess Type is CORE.
  Energy threshold   = 1.00e-08
  Density threshold  = 1.00e-08
  Integral threshold = 0.00e+00

  ==> Primary Basis <==

  Basis Set: AUG-CC-PVDZ
    Number of shells: 98
    Number of basis function: 224
    Number of Cartesian functions: 238
    Spherical Harmonics?: true
    Max angular momentum: 2

  ==> Pre-Iterations <==

   -------------------------------------------------------
    Irrep   Nso     Nmo     Nalpha   Nbeta   Ndocc  Nsocc
   -------------------------------------------------------
     A        224     224       0       0       0       0
   -------------------------------------------------------
    Total     224     224       5       5       5       0
   -------------------------------------------------------

 OEINTS: Wrapper to libmints.
   by Justin Turney

   Calculation information:
      Number of atoms:                  14
      Number of AO shells:              98
      Number of SO shells:              98
      Number of primitives:            224
      Number of atomic orbitals:       238
      Number of basis functions:       224

      Number of irreps:                  1
      Number of functions per irrep: [ 224 ]

      Overlap, kinetic, potential, dipole, and quadrupole integrals
        stored in file 35.

  ==> Integral Setup <==

  ==> DFJK: Density-Fitted J/K Matrices <==

    J tasked:                  Yes
    K tasked:                  Yes
    wK tasked:                  No
    OpenMP threads:              4
    Integrals threads:           4
    Memory (MB):              2145
    Algorithm:                Core
    Integral Cache:           LOAD
    Schwarz Cutoff:          0E+00
    Fitting Condition:       1E-12

   => Auxiliary Basis Set <=

  Basis Set: aug-cc-pvdz-jkfit
    Number of shells: 280
    Number of basis function: 826
    Number of Cartesian functions: 952
    Spherical Harmonics?: true
    Max angular momentum: 3

  Minimum eigenvalue in the overlap matrix is 8.1599777292E-06.
  Using Symmetric Orthogonalization.
  SCF Guess: Core (One-Electron) Hamiltonian.

  Guess energy:   -58.68824963180698

  ==> Iterations <==

                        Total Energy        Delta E     RMS |[F,P]|

   @RHF iter   1:   -68.38171140122002   -6.83817e+01   1.54173e-02 
   @RHF iter   2:   -64.29967642484841    4.08203e+00   1.17120e-02 DIIS
   @RHF iter   3:   -74.96660522330880   -1.06669e+01   7.34445e-03 DIIS
   @RHF iter   4:   -75.81735725972010   -8.50752e-01   3.23024e-03 DIIS
   @RHF iter   5:   -76.03974452607332   -2.22387e-01   2.48117e-04 DIIS
   @RHF iter   6:   -76.04085177121114   -1.10725e-03   1.24957e-04 DIIS
   @RHF iter   7:   -76.04111874174477   -2.66971e-04   1.57020e-05 DIIS
   @RHF iter   8:   -76.04112464942230   -5.90768e-06   2.55815e-06 DIIS
   @RHF iter   9:   -76.04112491853202   -2.69110e-07   5.28359e-07 DIIS
   @RHF iter  10:   -76.04112492785947   -9.32745e-09   1.11660e-07 DIIS
   @RHF iter  11:   -76.04112492825307   -3.93598e-10   9.71748e-09 DIIS

  ==> Post-Iterations <==

	Orbital Energies (a.u.)
	-----------------------

	Doubly Occupied:                                                      

	   1A    -20.578728     2A     -1.353629     3A     -0.713392  
	   4A     -0.585982     5A     -0.508987  

	Virtual:                                                              

	   6A      0.017442     7A      0.035000     8A      0.036436  
	   9A      0.053491    10A      0.058934    11A      0.065798  
	  12A      0.073891    13A      0.086749    14A      0.101788  
	  15A      0.107808    16A      0.112325    17A      0.118564  
	  18A      0.122657    19A      0.132184    20A      0.135664  
	  21A      0.149160    22A      0.150793    23A      0.159018  
	  24A      0.163240    25A      0.165187    26A      0.171066  
	  27A      0.189013    28A      0.189038    29A      0.207740  
	  30A      0.218134    31A      0.221355    32A      0.225962  
	  33A      0.238429    34A      0.262012    35A      0.272078  
	  36A      0.273441    37A      0.288915    38A      0.305350  
	  39A      0.311442    40A      0.324311    41A      0.338496  
	  42A      0.360120    43A      0.366723    44A      0.378963  
	  45A      0.385199    46A      0.389542    47A      0.399686  
	  48A      0.413502    49A      0.415839    50A      0.418035  
	  51A      0.428531    52A      0.450588    53A      0.457326  
	  54A      0.458366    55A      0.459729    56A      0.473365  
	  57A      0.475501    58A      0.479712    59A      0.490185  
	  60A      0.494868    61A      0.524859    62A      0.527608  
	  63A      0.542902    64A      0.550211    65A      0.559025  
	  66A      0.569134    67A      0.569229    68A      0.578917  
	  69A      0.599640    70A      0.624766    71A      0.631379  
	  72A      0.633013    73A      0.653232    74A      0.665393  
	  75A      0.677913    76A      0.691601    77A      0.703722  
	  78A      0.721539    79A      0.744596    80A      0.761883  
	  81A      0.781367    82A      0.784120    83A      0.805195  
	  84A      0.806758    85A      0.848482    86A      0.852310  
	  87A      0.853071    88A      0.866517    89A      0.867052  
	  90A      0.875099    91A      0.882187    92A      0.900331  
	  93A      0.907032    94A      0.912050    95A      0.924430  
	  96A      0.928499    97A      0.945256    98A      1.004415  
	  99A      1.021857   100A      1.021981   101A      1.033649  
	 102A      1.051289   103A      1.091196   104A      1.098595  
	 105A      1.106088   106A      1.126206   107A      1.133918  
	 108A      1.134115   109A      1.153079   110A      1.174352  
	 111A      1.180225   112A      1.209666   113A      1.210456  
	 114A      1.227797   115A      1.236156   116A      1.276101  
	 117A      1.313251   118A      1.316607   119A      1.344843  
	 120A      1.374804   121A      1.386564   122A      1.419720  
	 123A      1.451160   124A      1.479789   125A      1.485895  
	 126A      1.542314   127A      1.566454   128A      1.618122  
	 129A      1.639326   130A      1.771063   131A      1.933410  
	 132A      2.040479   133A      2.054041   134A      2.071794  
	 135A      2.093007   136A      2.137100   137A      2.145693  
	 138A      2.151091   139A      2.156224   140A      2.187583  
	 141A      2.191521   142A      2.201820   143A      2.203550  
	 144A      2.235964   145A      2.246805   146A      2.277656  
	 147A      2.298895   148A      2.302332   149A      2.332000  
	 150A      2.360314   151A      2.396308   152A      2.399532  
	 153A      2.433770   154A      2.442412   155A      2.475834  
	 156A      2.508231   157A      2.521235   158A      2.532301  
	 159A      2.562407   160A      2.598584   161A      2.623239  
	 162A      2.630762   163A      2.640111   164A      2.642506  
	 165A      2.679094   166A      2.741564   167A      2.748679  
	 168A      2.749122   169A      2.788860   170A      2.817156  
	 171A      2.847147   172A      2.866158   173A      2.884983  
	 174A      2.928246   175A      2.984674   176A      3.019371  
	 177A      3.040687   178A      3.063906   179A      3.069529  
	 180A      3.169061   181A      3.202581   182A      3.292214  
	 183A      3.314556   184A      3.386622   185A      3.388128  
	 186A      3.404088   187A      3.425878   188A      3.457680  
	 189A      3.500685   190A      3.590634   191A      3.605605  
	 192A      3.674197   193A      3.696479   194A      3.738884  
	 195A      3.796802   196A      3.806657   197A      3.854994  
	 198A      3.885289   199A      3.888863   200A      4.032811  
	 201A      4.062095   202A      4.141935   203A      4.191432  
	 204A      4.409717   205A      4.434724   206A      4.544161  
	 207A      4.603133   208A      4.723690   209A      4.773445  
	 210A      4.931482   211A      5.229741   212A      5.433345  
	 213A      5.483977   214A      5.547612   215A      5.608873  
	 216A      5.635267   217A      5.837416   218A      6.150208  
	 219A     18.060118   220A     18.342741   221A     18.700200  
	 222A     19.048344   223A     19.980518   224A     25.319602  

	Final Occupation by Irrep:
	          A 
	DOCC [     5 ]

  Energy converged.

  @RHF Final Energy:   -76.04112492825307

   => Energetics <=

    Nuclear Repulsion Energy =              9.1291563607654052
    One-Electron Energy =                -122.8591223971907880
    Two-Electron Energy =                  37.6888411081721415
    DFT Exchange-Correlation Energy =       0.0000000000000000
    Empirical Dispersion Energy =           0.0000000000000000
    Total Energy =                        -76.0411249282532395



Properties will be evaluated at   0.000000,   0.000000,   0.000000 Bohr
  ==> Properties <==


Properties computed using the SCF density density matrix
  Nuclear Dipole Moment: (a.u.)
     X:   -62.7199      Y:    -0.2104      Z:    -0.0067

  Electronic Dipole Moment: (a.u.)
     X:    63.1486      Y:     0.8791      Z:     0.0073

  Dipole Moment: (a.u.)
     X:     0.4286      Y:     0.6687      Z:     0.0006     Total:     0.7943

  Dipole Moment: (Debye)
     X:     1.0895      Y:     1.6996      Z:     0.0015     Total:     2.0189


  Saving occupied orbitals to File 180.

  Saving SAPT 2-MONOMER_A file.

*** tstop() called on node121.bme.utexas.edu at Wed Sep 18 18:10:01 2013
Module time:
	user time   =      30.37 seconds =       0.51 minutes
	system time =       0.28 seconds =       0.00 minutes
	total time  =          9 seconds =       0.15 minutes
Total time:
	user time   =     103.29 seconds =       1.72 minutes
	system time =       0.99 seconds =       0.02 minutes
	total time  =         28 seconds =       0.47 minutes

  //>>>>>>>>>>>>>>>>>>>>>>>>>>>>>>>>>>>//
  //            Monomer B HF           //
  //<<<<<<<<<<<<<<<<<<<<<<<<<<<<<<<<<<<//


  No DF_BASIS_SCF auxiliary basis selected, defaulting to aug-cc-pvdz-jkfit


*** tstart() called on node121.bme.utexas.edu
*** at Wed Sep 18 18:10:01 2013


         ---------------------------------------------------------
                                   SCF
            by Justin Turney, Rob Parrish, and Andy Simmonett
                              RHF Reference
                        4 Threads,   3000 MiB Core
         ---------------------------------------------------------

  ==> Geometry <==

    Molecular point group: c1
    Full point group: C1

    Geometry (in Angstrom), charge = 0, multiplicity = 1:

       Center              X                  Y                   Z       
    ------------   -----------------  -----------------  -----------------
           O(Gh)     -3.383651679312    -0.111467184155    -0.000445544390
           H(Gh)     -3.702580288312     0.792022503845     0.000197643610
           H(Gh)     -2.418161158312    -0.011601942155    -0.000198566390
           N         -0.624375007312     0.078902606845     0.000167856610
           C          0.071531631688     0.044931814845     1.144915702610
           H         -0.513140919312     0.068542756845     2.055783730610
           C          1.460555223688    -0.020250617155     1.194911766610
           H          1.966461604688    -0.045104772155     2.149240888610
           C          2.171718368688    -0.053376415155     0.000000620610
           H          3.251558319688    -0.105149968155    -0.000079807390
           C          1.460410070688    -0.020317272155    -1.194800676390
           H          1.966207017688    -0.045190299155    -2.149199277390
           C          0.071380056688     0.044877718845    -1.144654416390
           H         -0.513388826312     0.068478373845    -2.055446969390

  Running in c1 symmetry.

  Nuclear repulsion =  206.285463431529280

  Charge       = 0
  Multiplicity = 1
  Electrons    = 42
  Nalpha       = 21
  Nbeta        = 21

  ==> Algorithm <==

  SCF Algorithm Type is DF.
  DIIS enabled.
  MOM disabled.
  Fractional occupation disabled.
  Guess Type is CORE.
  Energy threshold   = 1.00e-08
  Density threshold  = 1.00e-08
  Integral threshold = 0.00e+00

  ==> Primary Basis <==

  Basis Set: AUG-CC-PVDZ
    Number of shells: 98
    Number of basis function: 224
    Number of Cartesian functions: 238
    Spherical Harmonics?: true
    Max angular momentum: 2

  ==> Pre-Iterations <==

   -------------------------------------------------------
    Irrep   Nso     Nmo     Nalpha   Nbeta   Ndocc  Nsocc
   -------------------------------------------------------
     A        224     224       0       0       0       0
   -------------------------------------------------------
    Total     224     224      21      21      21       0
   -------------------------------------------------------

 OEINTS: Wrapper to libmints.
   by Justin Turney

   Calculation information:
      Number of atoms:                  14
      Number of AO shells:              98
      Number of SO shells:              98
      Number of primitives:            224
      Number of atomic orbitals:       238
      Number of basis functions:       224

      Number of irreps:                  1
      Number of functions per irrep: [ 224 ]

      Overlap, kinetic, potential, dipole, and quadrupole integrals
        stored in file 35.

  ==> Integral Setup <==

  ==> DFJK: Density-Fitted J/K Matrices <==

    J tasked:                  Yes
    K tasked:                  Yes
    wK tasked:                  No
    OpenMP threads:              4
    Integrals threads:           4
    Memory (MB):              2145
    Algorithm:                Core
    Integral Cache:           LOAD
    Schwarz Cutoff:          0E+00
    Fitting Condition:       1E-12

   => Auxiliary Basis Set <=

  Basis Set: aug-cc-pvdz-jkfit
    Number of shells: 280
    Number of basis function: 826
    Number of Cartesian functions: 952
    Spherical Harmonics?: true
    Max angular momentum: 3

  Minimum eigenvalue in the overlap matrix is 8.1599777292E-06.
  Using Symmetric Orthogonalization.
  SCF Guess: Core (One-Electron) Hamiltonian.

  Guess energy:  -190.87860763478935

  ==> Iterations <==

                        Total Energy        Delta E     RMS |[F,P]|

   @RHF iter   1:  -206.23156986259104   -2.06232e+02   2.69486e-02 
   @RHF iter   2:  -181.74837916149815    2.44832e+01   2.53139e-02 DIIS
   @RHF iter   3:  -236.72261995433607   -5.49742e+01   1.45750e-02 DIIS
   @RHF iter   4:  -244.46101935341633   -7.73840e+00   9.28215e-03 DIIS
   @RHF iter   5:  -246.34409304517132   -1.88307e+00   3.48525e-03 DIIS
   @RHF iter   6:  -246.67181856655046   -3.27726e-01   1.13868e-03 DIIS
   @RHF iter   7:  -246.71444687187361   -4.26283e-02   4.98388e-04 DIIS
   @RHF iter   8:  -246.72381128004733   -9.36441e-03   7.17874e-05 DIIS
   @RHF iter   9:  -246.72412807312386   -3.16793e-04   2.77780e-05 DIIS
   @RHF iter  10:  -246.72417003711612   -4.19640e-05   1.16736e-05 DIIS
   @RHF iter  11:  -246.72417493127543   -4.89416e-06   4.98154e-06 DIIS
   @RHF iter  12:  -246.72417654233820   -1.61106e-06   1.17775e-06 DIIS
   @RHF iter  13:  -246.72417669133480   -1.48997e-07   5.98348e-07 DIIS
   @RHF iter  14:  -246.72417673141720   -4.00824e-08   1.60408e-07 DIIS
   @RHF iter  15:  -246.72417673443530   -3.01810e-09   2.96651e-08 DIIS
   @RHF iter  16:  -246.72417673449533   -6.00267e-11   7.86476e-09 DIIS

  ==> Post-Iterations <==

	Orbital Energies (a.u.)
	-----------------------

	Doubly Occupied:                                                      

	   1A    -15.575164     2A    -11.281668     3A    -11.281649  
	   4A    -11.266482     5A    -11.248652     6A    -11.248601  
	   7A     -1.259920     8A     -1.092448     9A     -1.037232  
	  10A     -0.861337    11A     -0.858398    12A     -0.723234  
	  13A     -0.661729    14A     -0.655450    15A     -0.600122  
	  16A     -0.577569    17A     -0.540992    18A     -0.520899  
	  19A     -0.418231    20A     -0.383325    21A     -0.348193  

	Virtual:                                                              

	  22A      0.031757    23A      0.040396    24A      0.042442  
	  25A      0.056899    26A      0.058602    27A      0.071909  
	  28A      0.083600    29A      0.091149    30A      0.104684  
	  31A      0.113314    32A      0.119049    33A      0.126954  
	  34A      0.138288    35A      0.138888    36A      0.144975  
	  37A      0.146459    38A      0.155690    39A      0.158988  
	  40A      0.160540    41A      0.165683    42A      0.172942  
	  43A      0.182858    44A      0.186444    45A      0.187527  
	  46A      0.194277    47A      0.211227    48A      0.232969  
	  49A      0.245659    50A      0.257862    51A      0.292450  
	  52A      0.296911    53A      0.301020    54A      0.302116  
	  55A      0.315888    56A      0.325723    57A      0.334886  
	  58A      0.343666    59A      0.343852    60A      0.345372  
	  61A      0.360073    62A      0.364276    63A      0.378271  
	  64A      0.381385    65A      0.405287    66A      0.415310  
	  67A      0.425392    68A      0.426401    69A      0.431051  
	  70A      0.438098    71A      0.447053    72A      0.473259  
	  73A      0.473358    74A      0.490909    75A      0.500023  
	  76A      0.521265    77A      0.533087    78A      0.536310  
	  79A      0.559106    80A      0.560288    81A      0.568459  
	  82A      0.571794    83A      0.585880    84A      0.594471  
	  85A      0.599380    86A      0.605303    87A      0.642820  
	  88A      0.643165    89A      0.657936    90A      0.663443  
	  91A      0.675787    92A      0.677170    93A      0.686007  
	  94A      0.693996    95A      0.696269    96A      0.699522  
	  97A      0.705956    98A      0.734539    99A      0.734828  
	 100A      0.741879   101A      0.744127   102A      0.772919  
	 103A      0.784663   104A      0.834695   105A      0.849606  
	 106A      0.857679   107A      0.863426   108A      0.866559  
	 109A      0.884427   110A      0.900696   111A      0.900924  
	 112A      0.908246   113A      0.917243   114A      0.935456  
	 115A      0.944911   116A      0.970895   117A      0.972434  
	 118A      0.985019   119A      0.990466   120A      1.017279  
	 121A      1.049409   122A      1.072551   123A      1.079421  
	 124A      1.108722   125A      1.140654   126A      1.146846  
	 127A      1.164131   128A      1.207773   129A      1.209393  
	 130A      1.236025   131A      1.249957   132A      1.268099  
	 133A      1.304420   134A      1.320449   135A      1.339352  
	 136A      1.375647   137A      1.399056   138A      1.441032  
	 139A      1.442625   140A      1.482444   141A      1.483821  
	 142A      1.541427   143A      1.549046   144A      1.564056  
	 145A      1.573009   146A      1.598131   147A      1.604014  
	 148A      1.614556   149A      1.615887   150A      1.641579  
	 151A      1.673067   152A      1.681891   153A      1.686813  
	 154A      1.694155   155A      1.738806   156A      1.744038  
	 157A      1.760852   158A      1.784279   159A      1.827526  
	 160A      1.839545   161A      1.852679   162A      1.865965  
	 163A      1.922910   164A      1.948524   165A      1.950533  
	 166A      1.956582   167A      1.975571   168A      2.054314  
	 169A      2.060596   170A      2.088791   171A      2.114213  
	 172A      2.117571   173A      2.132851   174A      2.193617  
	 175A      2.203670   176A      2.206874   177A      2.244195  
	 178A      2.274109   179A      2.298330   180A      2.304844  
	 181A      2.337114   182A      2.359093   183A      2.412343  
	 184A      2.429725   185A      2.447687   186A      2.468240  
	 187A      2.480041   188A      2.568676   189A      2.577201  
	 190A      2.586700   191A      2.634139   192A      2.683750  
	 193A      2.760304   194A      2.783987   195A      2.789977  
	 196A      2.836494   197A      2.904637   198A      2.929147  
	 199A      2.948871   200A      2.983229   201A      2.986416  
	 202A      3.026124   203A      3.122177   204A      3.135201  
	 205A      3.155592   206A      3.247684   207A      3.292880  
	 208A      3.397750   209A      3.445230   210A      3.594382  
	 211A      3.680750   212A      3.691770   213A      4.006548  
	 214A      4.149759   215A      4.407655   216A      4.948048  
	 217A      4.999827   218A      5.054902   219A      5.236364  
	 220A      5.548409   221A      5.915463   222A      6.800049  
	 223A      7.211897   224A     33.603537  

	Final Occupation by Irrep:
	          A 
	DOCC [    21 ]

  Energy converged.

  @RHF Final Energy:  -246.72417673449533

   => Energetics <=

    Nuclear Repulsion Energy =            206.2854634315292799
    One-Electron Energy =                -741.1366956935482904
    Two-Electron Energy =                 288.1270555275232823
    DFT Exchange-Correlation Energy =       0.0000000000000000
    Empirical Dispersion Energy =           0.0000000000000000
    Total Energy =                       -246.7241767344957566



Properties will be evaluated at   0.000000,   0.000000,   0.000000 Bohr
  ==> Properties <==


Properties computed using the SCF density density matrix
  Nuclear Dipole Moment: (a.u.)
     X:    62.7401      Y:     0.8864      Z:     0.0070

  Electronic Dipole Moment: (a.u.)
     X:   -61.8275      Y:    -0.9328      Z:    -0.0071

  Dipole Moment: (a.u.)
     X:     0.9126      Y:    -0.0464      Z:    -0.0001     Total:     0.9138

  Dipole Moment: (Debye)
     X:     2.3197      Y:    -0.1179      Z:    -0.0002     Total:     2.3227


  Saving occupied orbitals to File 180.

  Saving SAPT 2-MONOMER_B file.

*** tstop() called on node121.bme.utexas.edu at Wed Sep 18 18:10:14 2013
Module time:
	user time   =      49.94 seconds =       0.83 minutes
	system time =       0.45 seconds =       0.01 minutes
	total time  =         13 seconds =       0.22 minutes
Total time:
	user time   =     153.30 seconds =       2.56 minutes
	system time =       1.45 seconds =       0.02 minutes
	total time  =         41 seconds =       0.68 minutes
  No DF_BASIS_SAPT auxiliary basis selected, defaulting to aug-cc-pvdz-ri

  //>>>>>>>>>>>>>>>>>>>>>>>>>>>>>>>>>>>//
  //               SAPT2+              //
  //<<<<<<<<<<<<<<<<<<<<<<<<<<<<<<<<<<<//


*** tstart() called on node121.bme.utexas.edu
*** at Wed Sep 18 18:10:14 2013

        SAPT2+  
    Ed Hohenstein
     6 June 2009

      Orbital Information
  --------------------------
    NSO        =       224
    NMO        =       224
    NRI        =       665
    NOCC A     =         5
    NOCC B     =        21
    FOCC A     =         1
    FOCC B     =         6
    NVIR A     =       219
    NVIR B     =       203

    Estimated memory usage: 762.8 MB

    Elst10,r            =    -0.024519427514 H
    Exch10 (S^2)        =     0.028429618432 H
    Exch10              =     0.028966160972 H
    Ind20,r (A<-B)      =    -0.003190852068 H
    Ind20,r (B<-A)      =    -0.010240666443 H
    Ind20,r             =    -0.013431518511 H
    Exch-Ind20,r (A<-B) =     0.002072006436 H
    Exch-Ind20,r (B<-A) =     0.005835538571 H
    Exch-Ind20,r        =     0.007907545007 H
    Disp20              =    -0.008374167743 H
    Exch-Disp20         =     0.001765705192 H
    Elst12,r            =    -0.000818057003 H
    Exch11              =     0.000259119211 H
    Exch12              =     0.003892013486 H
    Ind22               =    -0.002118439664 H
    Disp21              =     0.000926430792 H
    Disp22 (SDQ)        =    -0.000429317641 H

    (i =   1 of  15)         48 seconds
    (i =   2 of  15)         93 seconds
    (i =   3 of  15)        137 seconds
    (i =   4 of  15)        183 seconds
    (i =   5 of  15)        227 seconds
    (i =   6 of  15)        272 seconds
    (i =   7 of  15)        315 seconds
    (i =   8 of  15)        360 seconds
    (i =   9 of  15)        406 seconds
    (i =  10 of  15)        450 seconds
    (i =  11 of  15)        494 seconds
    (i =  12 of  15)        538 seconds
    (i =  13 of  15)        581 seconds
    (i =  14 of  15)        625 seconds
    (i =  15 of  15)        667 seconds

    Disp220 (T)         =    -0.000701084999 H

    (i =   1 of   4)        256 seconds
    (i =   2 of   4)        518 seconds
    (i =   3 of   4)        781 seconds
    (i =   4 of   4)       1048 seconds

    Disp202 (T)         =    -0.000741327398 H

    Disp22 (T)          =    -0.001442412397 H

    SAPT Results  
  -----------------------------------------------------------------------
    Electrostatics         -25.33748452 mH     -15.89951224 kcal mol^-1
      Elst10,r             -24.51942751 mH     -15.38617370 kcal mol^-1
      Elst12,r              -0.81805700 mH      -0.51333854 kcal mol^-1

    Exchange                33.11729367 mH      20.78141639 kcal mol^-1
      Exch10                28.96616097 mH      18.17654119 kcal mol^-1
      Exch10(S^2)           28.42961843 mH      17.83985565 kcal mol^-1
      Exch11(S^2)            0.25911921 mH       0.16259977 kcal mol^-1
      Exch12(S^2)            3.89201349 mH       2.44227544 kcal mol^-1

    Induction              -10.38444794 mH      -6.51633974 kcal mol^-1
      Ind20,r              -13.43151851 mH      -8.42840547 kcal mol^-1
      Ind22                 -2.11843966 mH      -1.32934101 kcal mol^-1
      Exch-Ind20,r           7.90754501 mH       4.96205961 kcal mol^-1
      Exch-Ind22             1.24719011 mH       0.78262364 kcal mol^-1
      delta HF,r (2)        -3.98922488 mH      -2.50327651 kcal mol^-1

    Dispersion              -7.55376180 mH      -4.74005729 kcal mol^-1
      Disp20                -8.37416774 mH      -5.25486981 kcal mol^-1
      Disp21                 0.92643079 mH       0.58134412 kcal mol^-1
      Disp22 (SDQ)          -0.42931764 mH      -0.26940090 kcal mol^-1
      Disp22 (T)            -1.44241240 mH      -0.90512748 kcal mol^-1
      Exch-Disp20            1.76570519 mH       1.10799678 kcal mol^-1

    Total HF                -5.06646493 mH      -3.17925487 kcal mol^-1
    Total SAPT0            -11.67492748 mH      -7.32612790 kcal mol^-1
    Total SAPT2             -9.21310134 mH      -5.78130862 kcal mol^-1
    Total SAPT2+           -10.15840059 mH      -6.37449287 kcal mol^-1

*** tstop() called on node121.bme.utexas.edu at Wed Sep 18 18:45:03 2013
Module time:
	user time   =    7534.05 seconds =     125.57 minutes
	system time =      56.15 seconds =       0.94 minutes
	total time  =       2089 seconds =      34.82 minutes
Total time:
	user time   =    7687.35 seconds =     128.12 minutes
	system time =      57.60 seconds =       0.96 minutes
	total time  =       2130 seconds =      35.50 minutes

*** PSI4 exiting successfully. Buy a developer a beer!
