    -----------------------------------------------------------------------
          PSI4: An Open-Source Ab Initio Electronic Structure Package
                              PSI 4.0.0-beta4 Driver

    J. M. Turney, A. C. Simmonett, R. M. Parrish, E. G. Hohenstein,
    F. A. Evangelista, J. T. Fermann, B. J. Mintz, L. A. Burns, J. J. Wilke,
    M. L. Abrams, N. J. Russ, M. L. Leininger, C. L. Janssen, E. T. Seidl,
    W. D. Allen, H. F. Schaefer, R. A. King, E. F. Valeev, C. D. Sherrill,
    and T. D. Crawford, WIREs Comput. Mol. Sci., (2011) (doi: 10.1002/wcms.93)

                         Additional Contributions by
    A. E. DePrince, M. Saitow, U. Bozkaya, A. Yu. Sokolov
    -----------------------------------------------------------------------

    Process ID:  16244
    PSI4DATADIR: /home/xzhu216/psi4/psi4-install/share/psi

    Using LocalCommunicator (Number of processes = 1)

    Memory level set to 256.000 MB

  ==> Input File <==

--------------------------------------------------------------------------
#psi4
#
memory 7 gb

molecule MeOH_Pyridine {
0 1
    O    -0.627651774     0.087467269     0.001471285
    H     0.343602034     0.122303329    -0.000600445
    C    -0.977931231    -1.278556006     0.001238407
    H    -2.063392094    -1.342043324     0.005008980
    H    -0.614883686    -1.806375837    -0.885383954
    H    -0.608640326    -1.808236824     0.884172732
--
0 1
    N     1.903486068     0.036679043    -0.001430551
    C     2.599854457     0.012243712    -1.146150155
    H     2.015375860     0.035467247    -2.057125593
    C     3.989491520    -0.037499152    -1.194835405
    H     4.496843868    -0.054791184    -2.148618129
    C     4.699864748    -0.063211769     0.000777622
    H     5.780200751    -0.100976522     0.001626917
    C     3.987617296    -0.038190662     1.195317475
    H     4.493416030    -0.056014989     2.149803167
    C     2.598063653     0.011559025     1.144363390
    H     2.012057867     0.034233452     2.054482076
units angstrom
no_reorient  #important for SAPT in psi4, default
symmetry c1  #important for SAPT in psi4, default
}

set {
basis aug-cc-pVDZ
scf_type DF
freeze_core True
}
energy('sapt2+')
--------------------------------------------------------------------------

  Memory set to   7.000 GiB by Python script.

  //>>>>>>>>>>>>>>>>>>>>>>>>>>>>>>>>>>>//
  //              Dimer HF             //
  //<<<<<<<<<<<<<<<<<<<<<<<<<<<<<<<<<<<//


  No DF_BASIS_SCF auxiliary basis selected, defaulting to aug-cc-pvdz-jkfit


*** tstart() called on node116.bme.utexas.edu
*** at Fri Feb 14 14:48:01 2014


         ---------------------------------------------------------
                                   SCF
            by Justin Turney, Rob Parrish, and Andy Simmonett
                              RHF Reference
                        4 Threads,   7000 MiB Core
         ---------------------------------------------------------

  ==> Geometry <==

    Molecular point group: c1
    Full point group: C1

    Geometry (in Angstrom), charge = 0, multiplicity = 1:

       Center              X                  Y                   Z       
    ------------   -----------------  -----------------  -----------------
           O         -2.746684356432     0.265975110114     0.001332370056
           H         -1.775430548432     0.300811170114    -0.000739359944
           C         -3.096963813432    -1.100048164886     0.001099492056
           H         -4.182424676432    -1.163535482886     0.004870065056
           H         -2.733916268432    -1.627867995886    -0.885522868944
           H         -2.727672908432    -1.629728982886     0.884033817056
           N         -0.215546514432     0.215186884114    -0.001569465944
           C          0.480821874568     0.190751553114    -1.146289069944
           H         -0.103656722432     0.213975088114    -2.057264507944
           C          1.870458937568     0.141008689114    -1.194974319944
           H          2.377811285568     0.123716657114    -2.148757043944
           C          2.580832165568     0.115296072114     0.000638707056
           H          3.661168168568     0.077531319114     0.001488002056
           C          1.868584713568     0.140317179114     1.195178560056
           H          2.374383447568     0.122492852114     2.149664252056
           C          0.479031070568     0.190066866114     1.144224475056
           H         -0.106974715432     0.212741293114     2.054343161056

  Running in c1 symmetry.

  Nuclear repulsion =  345.904324128883786

  Charge       = 0
  Multiplicity = 1
  Electrons    = 60
  Nalpha       = 30
  Nbeta        = 30

  ==> Algorithm <==

  SCF Algorithm Type is DF.
  DIIS enabled.
  MOM disabled.
  Fractional occupation disabled.
  Guess Type is CORE.
  Energy threshold   = 1.00e-08
  Density threshold  = 1.00e-08
  Integral threshold = 0.00e+00

  ==> Primary Basis <==

  Basis Set: AUG-CC-PVDZ
    Number of shells: 117
    Number of basis function: 265
    Number of Cartesian functions: 281
    Spherical Harmonics?: true
    Max angular momentum: 2

  ==> Pre-Iterations <==

   -------------------------------------------------------
    Irrep   Nso     Nmo     Nalpha   Nbeta   Ndocc  Nsocc
   -------------------------------------------------------
     A        265     265       0       0       0       0
   -------------------------------------------------------
    Total     265     265      30      30      30       0
   -------------------------------------------------------

 OEINTS: Wrapper to libmints.
   by Justin Turney

   Calculation information:
      Number of atoms:                  17
      Number of AO shells:             117
      Number of SO shells:             117
      Number of primitives:            263
      Number of atomic orbitals:       281
      Number of basis functions:       265

      Number of irreps:                  1
      Number of functions per irrep: [ 265 ]

      Overlap, kinetic, potential, dipole, and quadrupole integrals
        stored in file 35.

  ==> Integral Setup <==

  ==> DFJK: Density-Fitted J/K Matrices <==

    J tasked:                  Yes
    K tasked:                  Yes
    wK tasked:                  No
    OpenMP threads:              4
    Integrals threads:           4
    Memory (MB):              5006
    Algorithm:                Core
    Integral Cache:           SAVE
    Schwarz Cutoff:          0E+00
    Fitting Condition:       1E-12

   => Auxiliary Basis Set <=

  Basis Set: aug-cc-pvdz-jkfit
    Number of shells: 332
    Number of basis function: 976
    Number of Cartesian functions: 1123
    Spherical Harmonics?: true
    Max angular momentum: 3

  Minimum eigenvalue in the overlap matrix is 7.2863902139E-06.
  Using Symmetric Orthogonalization.
  SCF Guess: Core (One-Electron) Hamiltonian.

  Guess energy:  -290.44227107679569

  ==> Iterations <==

                        Total Energy        Delta E     RMS |[F,P]|

   @RHF iter   1:  -283.05780777330847   -2.83058e+02   3.07669e-02 
   @RHF iter   2:  -186.06327847423518    9.69945e+01   4.27324e-02 DIIS
   @RHF iter   3:  -259.99243000083993   -7.39292e+01   3.03381e-02 DIIS
   @RHF iter   4:  -267.98300363735075   -7.99057e+00   3.18688e-02 DIIS
   @RHF iter   5:  -356.28970656711670   -8.83067e+01   7.48279e-03 DIIS
   @RHF iter   6:  -339.81555853437828    1.64741e+01   1.76483e-02 DIIS
   @RHF iter   7:  -361.40037656791708   -2.15848e+01   3.17639e-03 DIIS
   @RHF iter   8:  -361.70632422341396   -3.05948e-01   1.14367e-03 DIIS
   @RHF iter   9:  -361.76317437266982   -5.68501e-02   6.05879e-04 DIIS
   @RHF iter  10:  -361.78010485313882   -1.69305e-02   1.80249e-04 DIIS
   @RHF iter  11:  -361.78185155290055   -1.74670e-03   6.96571e-05 DIIS
   @RHF iter  12:  -361.78207300774943   -2.21455e-04   1.68315e-05 DIIS
   @RHF iter  13:  -361.78208911661022   -1.61089e-05   4.61139e-06 DIIS
   @RHF iter  14:  -361.78209039515048   -1.27854e-06   1.65114e-06 DIIS
   @RHF iter  15:  -361.78209076467363   -3.69523e-07   8.05899e-07 DIIS
   @RHF iter  16:  -361.78209084383070   -7.91571e-08   3.43475e-07 DIIS
   @RHF iter  17:  -361.78209086473089   -2.09002e-08   1.27162e-07 DIIS
   @RHF iter  18:  -361.78209086717800   -2.44711e-09   3.57085e-08 DIIS
   @RHF iter  19:  -361.78209086734614   -1.68143e-10   1.26265e-08 DIIS
   @RHF iter  20:  -361.78209086736422   -1.80762e-11   3.92499e-09 DIIS

  ==> Post-Iterations <==

	Orbital Energies (a.u.)
	-----------------------

	Doubly Occupied:                                                      

	   1A    -20.502202     2A    -15.596248     3A    -11.302509  
	   4A    -11.302487     5A    -11.284575     6A    -11.265008  
	   7A    -11.264960     8A    -11.244782     9A     -1.314286  
	  10A     -1.282862    11A     -1.112394    12A     -1.056147  
	  13A     -0.892811    14A     -0.879052    15A     -0.879024  
	  16A     -0.747801    17A     -0.682398    18A     -0.677582  
	  19A     -0.663765    20A     -0.617790    21A     -0.589623  
	  22A     -0.580808    23A     -0.565410    24A     -0.549474  
	  25A     -0.538648    26A     -0.485098    27A     -0.419397  
	  28A     -0.405294    29A     -0.400355    30A     -0.365214  

	Virtual:                                                              

	  31A      0.025982    32A      0.035991    33A      0.042572  
	  34A      0.054269    35A      0.058091    36A      0.064681  
	  37A      0.071667    38A      0.076740    39A      0.081384  
	  40A      0.092263    41A      0.096334    42A      0.106488  
	  43A      0.117989    44A      0.125591    45A      0.135211  
	  46A      0.136886    47A      0.143478    48A      0.144708  
	  49A      0.147606    50A      0.156147    51A      0.161857  
	  52A      0.164265    53A      0.166478    54A      0.173517  
	  55A      0.178136    56A      0.179263    57A      0.193581  
	  58A      0.193733    59A      0.198021    60A      0.205647  
	  61A      0.229156    62A      0.271651    63A      0.279122  
	  64A      0.287745    65A      0.288900    66A      0.292448  
	  67A      0.294708    68A      0.304247    69A      0.313108  
	  70A      0.322537    71A      0.332554    72A      0.335135  
	  73A      0.335503    74A      0.341229    75A      0.350724  
	  76A      0.356590    77A      0.366539    78A      0.373289  
	  79A      0.384515    80A      0.389037    81A      0.391493  
	  82A      0.402830    83A      0.403235    84A      0.418244  
	  85A      0.427094    86A      0.429309    87A      0.433092  
	  88A      0.434072    89A      0.446914    90A      0.452003  
	  91A      0.472768    92A      0.492935    93A      0.506233  
	  94A      0.507605    95A      0.517127    96A      0.528449  
	  97A      0.539592    98A      0.541568    99A      0.548686  
	 100A      0.553532   101A      0.569507   102A      0.580985  
	 103A      0.585399   104A      0.589064   105A      0.599912  
	 106A      0.603887   107A      0.617567   108A      0.631448  
	 109A      0.637951   110A      0.650138   111A      0.651465  
	 112A      0.656313   113A      0.661393   114A      0.664234  
	 115A      0.672097   116A      0.675004   117A      0.688072  
	 118A      0.691469   119A      0.707615   120A      0.710230  
	 121A      0.715007   122A      0.728898   123A      0.732218  
	 124A      0.736503   125A      0.753932   126A      0.759940  
	 127A      0.774728   128A      0.776657   129A      0.800592  
	 130A      0.802794   131A      0.814760   132A      0.841409  
	 133A      0.851370   134A      0.857780   135A      0.863376  
	 136A      0.866133   137A      0.884291   138A      0.896138  
	 139A      0.897344   140A      0.912824   141A      0.913650  
	 142A      0.928356   143A      0.934517   144A      0.965796  
	 145A      0.969193   146A      0.973758   147A      1.006981  
	 148A      1.011341   149A      1.039180   150A      1.054038  
	 151A      1.063570   152A      1.064007   153A      1.097637  
	 154A      1.124480   155A      1.130251   156A      1.136397  
	 157A      1.173067   158A      1.192367   159A      1.195042  
	 160A      1.242279   161A      1.249780   162A      1.258840  
	 163A      1.277358   164A      1.306707   165A      1.322074  
	 166A      1.336277   167A      1.379351   168A      1.441781  
	 169A      1.455627   170A      1.466787   171A      1.480791  
	 172A      1.522950   173A      1.526953   174A      1.548198  
	 175A      1.557090   176A      1.584827   177A      1.591624  
	 178A      1.602035   179A      1.611049   180A      1.634987  
	 181A      1.657172   182A      1.666450   183A      1.670404  
	 184A      1.675404   185A      1.679857   186A      1.701161  
	 187A      1.739240   188A      1.743493   189A      1.768492  
	 190A      1.785620   191A      1.790728   192A      1.818889  
	 193A      1.841408   194A      1.841699   195A      1.865357  
	 196A      1.888986   197A      1.910119   198A      1.915855  
	 199A      1.924987   200A      1.931478   201A      1.951798  
	 202A      1.965931   203A      1.979023   204A      2.040897  
	 205A      2.044114   206A      2.075103   207A      2.081396  
	 208A      2.103995   209A      2.120474   210A      2.126100  
	 211A      2.174314   212A      2.185955   213A      2.189379  
	 214A      2.191080   215A      2.212671   216A      2.226081  
	 217A      2.228926   218A      2.264734   219A      2.279033  
	 220A      2.292104   221A      2.321098   222A      2.325818  
	 223A      2.345692   224A      2.376229   225A      2.392376  
	 226A      2.431885   227A      2.439482   228A      2.455300  
	 229A      2.457094   230A      2.516788   231A      2.554209  
	 232A      2.619373   233A      2.632793   234A      2.678030  
	 235A      2.702614   236A      2.742456   237A      2.776278  
	 238A      2.791338   239A      2.836224   240A      2.866883  
	 241A      2.886801   242A      2.912871   243A      2.921619  
	 244A      2.948869   245A      2.991176   246A      2.997218  
	 247A      3.019085   248A      3.104798   249A      3.107685  
	 250A      3.136142   251A      3.159243   252A      3.191984  
	 253A      3.228108   254A      3.315524   255A      3.356041  
	 256A      3.408246   257A      3.487045   258A      3.679381  
	 259A      3.718718   260A      3.855016   261A      3.856206  
	 262A      4.018561   263A      4.018935   264A      4.368792  
	 265A      4.640380  

	Final Occupation by Irrep:
	          A 
	DOCC [    30 ]

  Energy converged.

  @RHF Final Energy:  -361.78209086736422

   => Energetics <=

    Nuclear Repulsion Energy =            345.9043241288837862
    One-Electron Energy =               -1176.4368187365732865
    Two-Electron Energy =                 468.7504037403251687
    DFT Exchange-Correlation Energy =       0.0000000000000000
    Empirical Dispersion Energy =           0.0000000000000000
    Total Energy =                       -361.7820908673643316



Properties will be evaluated at   0.000000,   0.000000,   0.000000 Bohr
  ==> Properties <==


Properties computed using the SCF density density matrix
  Nuclear Dipole Moment: (a.u.)
     X:    -3.0281      Y:    -3.1585      Z:     0.0020

  Electronic Dipole Moment: (a.u.)
     X:     5.0858      Y:     2.7196      Z:    -0.0029

  Dipole Moment: (a.u.)
     X:     2.0577      Y:    -0.4389      Z:    -0.0009     Total:     2.1039

  Dipole Moment: (Debye)
     X:     5.2300      Y:    -1.1155      Z:    -0.0024     Total:     5.3477


  Saving occupied orbitals to File 180.

  Saving SAPT 2-DIMER file.

*** tstop() called on node116.bme.utexas.edu at Fri Feb 14 14:48:37 2014
Module time:
	user time   =     132.04 seconds =       2.20 minutes
	system time =       1.32 seconds =       0.02 minutes
	total time  =         36 seconds =       0.60 minutes
Total time:
	user time   =     132.04 seconds =       2.20 minutes
	system time =       1.32 seconds =       0.02 minutes
	total time  =         36 seconds =       0.60 minutes

  //>>>>>>>>>>>>>>>>>>>>>>>>>>>>>>>>>>>//
  //            Monomer A HF           //
  //<<<<<<<<<<<<<<<<<<<<<<<<<<<<<<<<<<<//


  No DF_BASIS_SCF auxiliary basis selected, defaulting to aug-cc-pvdz-jkfit


*** tstart() called on node116.bme.utexas.edu
*** at Fri Feb 14 14:48:37 2014


         ---------------------------------------------------------
                                   SCF
            by Justin Turney, Rob Parrish, and Andy Simmonett
                              RHF Reference
                        4 Threads,   7000 MiB Core
         ---------------------------------------------------------

  ==> Geometry <==

    Molecular point group: c1
    Full point group: C1

    Geometry (in Angstrom), charge = 0, multiplicity = 1:

       Center              X                  Y                   Z       
    ------------   -----------------  -----------------  -----------------
           O         -2.746684356432     0.265975110114     0.001332370056
           H         -1.775430548432     0.300811170114    -0.000739359944
           C         -3.096963813432    -1.100048164886     0.001099492056
           H         -4.182424676432    -1.163535482886     0.004870065056
           H         -2.733916268432    -1.627867995886    -0.885522868944
           H         -2.727672908432    -1.629728982886     0.884033817056
           N(Gh)     -0.215546514432     0.215186884114    -0.001569465944
           C(Gh)      0.480821874568     0.190751553114    -1.146289069944
           H(Gh)     -0.103656722432     0.213975088114    -2.057264507944
           C(Gh)      1.870458937568     0.141008689114    -1.194974319944
           H(Gh)      2.377811285568     0.123716657114    -2.148757043944
           C(Gh)      2.580832165568     0.115296072114     0.000638707056
           H(Gh)      3.661168168568     0.077531319114     0.001488002056
           C(Gh)      1.868584713568     0.140317179114     1.195178560056
           H(Gh)      2.374383447568     0.122492852114     2.149664252056
           C(Gh)      0.479031070568     0.190066866114     1.144224475056
           H(Gh)     -0.106974715432     0.212741293114     2.054343161056

  Running in c1 symmetry.

  Nuclear repulsion =   40.421907994388285

  Charge       = 0
  Multiplicity = 1
  Electrons    = 18
  Nalpha       = 9
  Nbeta        = 9

  ==> Algorithm <==

  SCF Algorithm Type is DF.
  DIIS enabled.
  MOM disabled.
  Fractional occupation disabled.
  Guess Type is CORE.
  Energy threshold   = 1.00e-08
  Density threshold  = 1.00e-08
  Integral threshold = 0.00e+00

  ==> Primary Basis <==

  Basis Set: AUG-CC-PVDZ
    Number of shells: 117
    Number of basis function: 265
    Number of Cartesian functions: 281
    Spherical Harmonics?: true
    Max angular momentum: 2

  ==> Pre-Iterations <==

   -------------------------------------------------------
    Irrep   Nso     Nmo     Nalpha   Nbeta   Ndocc  Nsocc
   -------------------------------------------------------
     A        265     265       0       0       0       0
   -------------------------------------------------------
    Total     265     265       9       9       9       0
   -------------------------------------------------------

 OEINTS: Wrapper to libmints.
   by Justin Turney

   Calculation information:
      Number of atoms:                  17
      Number of AO shells:             117
      Number of SO shells:             117
      Number of primitives:            263
      Number of atomic orbitals:       281
      Number of basis functions:       265

      Number of irreps:                  1
      Number of functions per irrep: [ 265 ]

      Overlap, kinetic, potential, dipole, and quadrupole integrals
        stored in file 35.

  ==> Integral Setup <==

  ==> DFJK: Density-Fitted J/K Matrices <==

    J tasked:                  Yes
    K tasked:                  Yes
    wK tasked:                  No
    OpenMP threads:              4
    Integrals threads:           4
    Memory (MB):              5006
    Algorithm:                Core
    Integral Cache:           LOAD
    Schwarz Cutoff:          0E+00
    Fitting Condition:       1E-12

   => Auxiliary Basis Set <=

  Basis Set: aug-cc-pvdz-jkfit
    Number of shells: 332
    Number of basis function: 976
    Number of Cartesian functions: 1123
    Spherical Harmonics?: true
    Max angular momentum: 3

  Minimum eigenvalue in the overlap matrix is 7.2863902137E-06.
  Using Symmetric Orthogonalization.
  SCF Guess: Core (One-Electron) Hamiltonian.

  Guess energy:   -90.05437490756785

  ==> Iterations <==

                        Total Energy        Delta E     RMS |[F,P]|

   @RHF iter   1:   -99.16716280888883   -9.91672e+01   1.68457e-02 
   @RHF iter   2:   -89.56658797363175    9.60057e+00   1.05157e-02 DIIS
   @RHF iter   3:  -110.15460107367917   -2.05880e+01   1.20647e-02 DIIS
   @RHF iter   4:  -112.22104623665126   -2.06645e+00   9.36823e-03 DIIS
   @RHF iter   5:  -113.93714805645843   -1.71610e+00   5.94498e-03 DIIS
   @RHF iter   6:  -114.91829439739340   -9.81146e-01   1.94899e-03 DIIS
   @RHF iter   7:  -115.03785700246235   -1.19563e-01   8.48283e-04 DIIS
   @RHF iter   8:  -115.06072829842773   -2.28713e-02   1.25637e-04 DIIS
   @RHF iter   9:  -115.06120741469451   -4.79116e-04   1.19788e-05 DIIS
   @RHF iter  10:  -115.06121869668584   -1.12820e-05   4.51046e-06 DIIS
   @RHF iter  11:  -115.06121962468183   -9.27996e-07   7.77532e-07 DIIS
   @RHF iter  12:  -115.06121966577194   -4.10901e-08   1.39986e-07 DIIS
   @RHF iter  13:  -115.06121966676932   -9.97375e-10   2.74440e-08 DIIS
   @RHF iter  14:  -115.06121966680880   -3.94778e-11   4.74213e-09 DIIS

  ==> Post-Iterations <==

	Orbital Energies (a.u.)
	-----------------------

	Doubly Occupied:                                                      

	   1A    -20.571301     2A    -11.278011     3A     -1.363871  
	   4A     -0.925510     5A     -0.692741     6A     -0.620160  
	   7A     -0.596254     8A     -0.503895     9A     -0.449441  

	Virtual:                                                              

	  10A      0.018609    11A      0.035852    12A      0.038405  
	  13A      0.048960    14A      0.057539    15A      0.057893  
	  16A      0.066576    17A      0.077079    18A      0.080602  
	  19A      0.088426    20A      0.099252    21A      0.111627  
	  22A      0.111793    23A      0.123060    24A      0.123563  
	  25A      0.128750    26A      0.139784    27A      0.145144  
	  28A      0.150162    29A      0.155461    30A      0.156445  
	  31A      0.165779    32A      0.166880    33A      0.176851  
	  34A      0.183582    35A      0.186803    36A      0.195221  
	  37A      0.200895    38A      0.208751    39A      0.224548  
	  40A      0.228170    41A      0.238171    42A      0.238229  
	  43A      0.258004    44A      0.272197    45A      0.284158  
	  46A      0.290968    47A      0.304702    48A      0.305289  
	  49A      0.322476    50A      0.347168    51A      0.354576  
	  52A      0.356760    53A      0.363676    54A      0.375462  
	  55A      0.375998    56A      0.383827    57A      0.389449  
	  58A      0.393416    59A      0.401082    60A      0.407753  
	  61A      0.415521    62A      0.430056    63A      0.439534  
	  64A      0.449081    65A      0.456503    66A      0.464503  
	  67A      0.464747    68A      0.467575    69A      0.474127  
	  70A      0.479992    71A      0.488465    72A      0.494958  
	  73A      0.495321    74A      0.506118    75A      0.520943  
	  76A      0.528347    77A      0.539943    78A      0.544473  
	  79A      0.546821    80A      0.553798    81A      0.560571  
	  82A      0.566415    83A      0.580509    84A      0.588339  
	  85A      0.606914    86A      0.621719    87A      0.626403  
	  88A      0.634197    89A      0.637696    90A      0.648591  
	  91A      0.649158    92A      0.675422    93A      0.681213  
	  94A      0.690590    95A      0.696680    96A      0.707138  
	  97A      0.724574    98A      0.734454    99A      0.744233  
	 100A      0.748559   101A      0.773333   102A      0.782249  
	 103A      0.785541   104A      0.789651   105A      0.806654  
	 106A      0.816686   107A      0.839860   108A      0.846275  
	 109A      0.856332   110A      0.870390   111A      0.877004  
	 112A      0.881825   113A      0.883843   114A      0.899224  
	 115A      0.908356   116A      0.909935   117A      0.927730  
	 118A      0.938665   119A      0.944602   120A      0.951644  
	 121A      0.999678   122A      1.015436   123A      1.020023  
	 124A      1.031349   125A      1.032983   126A      1.053248  
	 127A      1.071162   128A      1.076594   129A      1.106480  
	 130A      1.119954   131A      1.130701   132A      1.132383  
	 133A      1.150915   134A      1.171142   135A      1.202395  
	 136A      1.203401   137A      1.212091   138A      1.235675  
	 139A      1.237209   140A      1.253592   141A      1.294437  
	 142A      1.299847   143A      1.325358   144A      1.334306  
	 145A      1.384439   146A      1.392646   147A      1.400359  
	 148A      1.416531   149A      1.451645   150A      1.484124  
	 151A      1.487374   152A      1.557827   153A      1.569716  
	 154A      1.605853   155A      1.616726   156A      1.653021  
	 157A      1.657547   158A      1.762440   159A      1.784452  
	 160A      1.844150   161A      1.873193   162A      1.927169  
	 163A      1.957210   164A      2.050218   165A      2.070822  
	 166A      2.101694   167A      2.136892   168A      2.148229  
	 169A      2.151725   170A      2.158307   171A      2.162530  
	 172A      2.184027   173A      2.187742   174A      2.189899  
	 175A      2.211654   176A      2.214152   177A      2.222680  
	 178A      2.244844   179A      2.249609   180A      2.255131  
	 181A      2.277754   182A      2.297794   183A      2.301000  
	 184A      2.330094   185A      2.389334   186A      2.395070  
	 187A      2.405000   188A      2.417534   189A      2.428541  
	 190A      2.455337   191A      2.462653   192A      2.510575  
	 193A      2.517508   194A      2.525117   195A      2.543820  
	 196A      2.613219   197A      2.625676   198A      2.636735  
	 199A      2.650811   200A      2.659922   201A      2.669159  
	 202A      2.704901   203A      2.725912   204A      2.751670  
	 205A      2.770718   206A      2.776105   207A      2.813639  
	 208A      2.818335   209A      2.849233   210A      2.869528  
	 211A      2.880173   212A      2.912463   213A      2.924780  
	 214A      2.945083   215A      2.997672   216A      3.066730  
	 217A      3.081519   218A      3.105842   219A      3.170626  
	 220A      3.184070   221A      3.228932   222A      3.307332  
	 223A      3.326043   224A      3.345034   225A      3.389111  
	 226A      3.399810   227A      3.424151   228A      3.440809  
	 229A      3.491550   230A      3.512613   231A      3.604522  
	 232A      3.607366   233A      3.704806   234A      3.763820  
	 235A      3.802555   236A      3.849584   237A      3.859323  
	 238A      3.879422   239A      3.942182   240A      3.954437  
	 241A      3.979847   242A      4.062233   243A      4.097653  
	 244A      4.197612   245A      4.448210   246A      4.511490  
	 247A      4.602617   248A      4.615959   249A      4.765124  
	 250A      4.792173   251A      4.966621   252A      5.276005  
	 253A      5.454701   254A      5.483702   255A      5.552196  
	 256A      5.632349   257A      5.655938   258A      5.887801  
	 259A      6.159191   260A     18.060430   261A     18.345368  
	 262A     18.710965   263A     19.054463   264A     20.027783  
	 265A     25.314027  

	Final Occupation by Irrep:
	          A 
	DOCC [     9 ]

  Energy converged.

  @RHF Final Energy:  -115.06121966680880

   => Energetics <=

    Nuclear Repulsion Energy =             40.4219079943882846
    One-Electron Energy =                -236.9638906931488975
    Two-Electron Energy =                  81.4807630319527050
    DFT Exchange-Correlation Energy =       0.0000000000000000
    Empirical Dispersion Energy =           0.0000000000000000
    Total Energy =                       -115.0612196668079150



Properties will be evaluated at   0.000000,   0.000000,   0.000000 Bohr
  ==> Properties <==


Properties computed using the SCF density density matrix
  Nuclear Dipole Moment: (a.u.)
     X:   -98.2180      Y:   -16.2381      Z:     0.0376

  Electronic Dipole Moment: (a.u.)
     X:    98.6707      Y:    15.6856      Z:    -0.0389

  Dipole Moment: (a.u.)
     X:     0.4528      Y:    -0.5524      Z:    -0.0013     Total:     0.7143

  Dipole Moment: (Debye)
     X:     1.1509      Y:    -1.4041      Z:    -0.0034     Total:     1.8155


  Saving occupied orbitals to File 180.

  Saving SAPT 2-MONOMER_A file.

*** tstop() called on node116.bme.utexas.edu at Fri Feb 14 14:48:56 2014
Module time:
	user time   =      67.83 seconds =       1.13 minutes
	system time =       0.78 seconds =       0.01 minutes
	total time  =         19 seconds =       0.32 minutes
Total time:
	user time   =     199.89 seconds =       3.33 minutes
	system time =       2.10 seconds =       0.03 minutes
	total time  =         55 seconds =       0.92 minutes

  //>>>>>>>>>>>>>>>>>>>>>>>>>>>>>>>>>>>//
  //            Monomer B HF           //
  //<<<<<<<<<<<<<<<<<<<<<<<<<<<<<<<<<<<//


  No DF_BASIS_SCF auxiliary basis selected, defaulting to aug-cc-pvdz-jkfit


*** tstart() called on node116.bme.utexas.edu
*** at Fri Feb 14 14:48:56 2014


         ---------------------------------------------------------
                                   SCF
            by Justin Turney, Rob Parrish, and Andy Simmonett
                              RHF Reference
                        4 Threads,   7000 MiB Core
         ---------------------------------------------------------

  ==> Geometry <==

    Molecular point group: c1
    Full point group: C1

    Geometry (in Angstrom), charge = 0, multiplicity = 1:

       Center              X                  Y                   Z       
    ------------   -----------------  -----------------  -----------------
           O(Gh)     -2.746684356432     0.265975110114     0.001332370056
           H(Gh)     -1.775430548432     0.300811170114    -0.000739359944
           C(Gh)     -3.096963813432    -1.100048164886     0.001099492056
           H(Gh)     -4.182424676432    -1.163535482886     0.004870065056
           H(Gh)     -2.733916268432    -1.627867995886    -0.885522868944
           H(Gh)     -2.727672908432    -1.629728982886     0.884033817056
           N         -0.215546514432     0.215186884114    -0.001569465944
           C          0.480821874568     0.190751553114    -1.146289069944
           H         -0.103656722432     0.213975088114    -2.057264507944
           C          1.870458937568     0.141008689114    -1.194974319944
           H          2.377811285568     0.123716657114    -2.148757043944
           C          2.580832165568     0.115296072114     0.000638707056
           H          3.661168168568     0.077531319114     0.001488002056
           C          1.868584713568     0.140317179114     1.195178560056
           H          2.374383447568     0.122492852114     2.149664252056
           C          0.479031070568     0.190066866114     1.144224475056
           H         -0.106974715432     0.212741293114     2.054343161056

  Running in c1 symmetry.

  Nuclear repulsion =  206.284267381200294

  Charge       = 0
  Multiplicity = 1
  Electrons    = 42
  Nalpha       = 21
  Nbeta        = 21

  ==> Algorithm <==

  SCF Algorithm Type is DF.
  DIIS enabled.
  MOM disabled.
  Fractional occupation disabled.
  Guess Type is CORE.
  Energy threshold   = 1.00e-08
  Density threshold  = 1.00e-08
  Integral threshold = 0.00e+00

  ==> Primary Basis <==

  Basis Set: AUG-CC-PVDZ
    Number of shells: 117
    Number of basis function: 265
    Number of Cartesian functions: 281
    Spherical Harmonics?: true
    Max angular momentum: 2

  ==> Pre-Iterations <==

   -------------------------------------------------------
    Irrep   Nso     Nmo     Nalpha   Nbeta   Ndocc  Nsocc
   -------------------------------------------------------
     A        265     265       0       0       0       0
   -------------------------------------------------------
    Total     265     265      21      21      21       0
   -------------------------------------------------------

 OEINTS: Wrapper to libmints.
   by Justin Turney

   Calculation information:
      Number of atoms:                  17
      Number of AO shells:             117
      Number of SO shells:             117
      Number of primitives:            263
      Number of atomic orbitals:       281
      Number of basis functions:       265

      Number of irreps:                  1
      Number of functions per irrep: [ 265 ]

      Overlap, kinetic, potential, dipole, and quadrupole integrals
        stored in file 35.

  ==> Integral Setup <==

  ==> DFJK: Density-Fitted J/K Matrices <==

    J tasked:                  Yes
    K tasked:                  Yes
    wK tasked:                  No
    OpenMP threads:              4
    Integrals threads:           4
    Memory (MB):              5006
    Algorithm:                Core
    Integral Cache:           LOAD
    Schwarz Cutoff:          0E+00
    Fitting Condition:       1E-12

   => Auxiliary Basis Set <=

  Basis Set: aug-cc-pvdz-jkfit
    Number of shells: 332
    Number of basis function: 976
    Number of Cartesian functions: 1123
    Spherical Harmonics?: true
    Max angular momentum: 3

  Minimum eigenvalue in the overlap matrix is 7.2863902137E-06.
  Using Symmetric Orthogonalization.
  SCF Guess: Core (One-Electron) Hamiltonian.

  Guess energy:  -190.90499635012188

  ==> Iterations <==

                        Total Energy        Delta E     RMS |[F,P]|

   @RHF iter   1:  -206.14842714528228   -2.06148e+02   2.28640e-02 
   @RHF iter   2:  -181.67794743666590    2.44705e+01   2.13372e-02 DIIS
   @RHF iter   3:  -236.56686627274516   -5.48889e+01   1.24924e-02 DIIS
   @RHF iter   4:  -244.54515319552112   -7.97829e+00   7.69723e-03 DIIS
   @RHF iter   5:  -246.31979788819771   -1.77464e+00   3.04261e-03 DIIS
   @RHF iter   6:  -246.66830061727708   -3.48503e-01   9.94885e-04 DIIS
   @RHF iter   7:  -246.71418100936623   -4.58804e-02   4.34152e-04 DIIS
   @RHF iter   8:  -246.72395996977397   -9.77896e-03   6.14314e-05 DIIS
   @RHF iter   9:  -246.72428793801245   -3.27968e-04   2.38548e-05 DIIS
   @RHF iter  10:  -246.72433197276732   -4.40348e-05   1.00889e-05 DIIS
   @RHF iter  11:  -246.72433750692878   -5.53416e-06   4.12516e-06 DIIS
   @RHF iter  12:  -246.72433927247832   -1.76555e-06   1.13866e-06 DIIS
   @RHF iter  13:  -246.72433946757675   -1.95098e-07   5.51152e-07 DIIS
   @RHF iter  14:  -246.72433951542584   -4.78491e-08   1.30758e-07 DIIS
   @RHF iter  15:  -246.72433951808691   -2.66107e-09   2.95640e-08 DIIS
   @RHF iter  16:  -246.72433951814909   -6.21867e-11   1.26503e-08 DIIS
   @RHF iter  17:  -246.72433951815893   -9.83391e-12   2.64159e-09 DIIS

  ==> Post-Iterations <==

	Orbital Energies (a.u.)
	-----------------------

	Doubly Occupied:                                                      

	   1A    -15.574933     2A    -11.281596     3A    -11.281575  
	   4A    -11.266433     5A    -11.248632     6A    -11.248581  
	   7A     -1.259828     8A     -1.092335     9A     -1.037275  
	  10A     -0.861278    11A     -0.858414    12A     -0.723229  
	  13A     -0.661716    14A     -0.655456    15A     -0.600225  
	  16A     -0.577491    17A     -0.540963    18A     -0.520952  
	  19A     -0.418049    20A     -0.383247    21A     -0.348231  

	Virtual:                                                              

	  22A      0.030882    23A      0.037584    24A      0.040004  
	  25A      0.052265    26A      0.057211    27A      0.061425  
	  28A      0.070346    29A      0.080651    30A      0.089859  
	  31A      0.094082    32A      0.105659    33A      0.110313  
	  34A      0.113607    35A      0.125520    36A      0.132394  
	  37A      0.138673    38A      0.142210    39A      0.148434  
	  40A      0.150455    41A      0.152114    42A      0.154705  
	  43A      0.162421    44A      0.164792    45A      0.171299  
	  46A      0.180916    47A      0.181686    48A      0.186169  
	  49A      0.193536    50A      0.197930    51A      0.210525  
	  52A      0.218098    53A      0.237013    54A      0.272294  
	  55A      0.274935    56A      0.287592    57A      0.296886  
	  58A      0.302215    59A      0.302517    60A      0.317660  
	  61A      0.323581    62A      0.328887    63A      0.331710  
	  64A      0.337908    65A      0.347001    66A      0.359587  
	  67A      0.361507    68A      0.361782    69A      0.372429  
	  70A      0.373855    71A      0.384365    72A      0.386800  
	  73A      0.403834    74A      0.406141    75A      0.418611  
	  76A      0.423166    77A      0.435991    78A      0.444041  
	  79A      0.446218    80A      0.456231    81A      0.462734  
	  82A      0.482160    83A      0.486843    84A      0.512995  
	  85A      0.517098    86A      0.526029    87A      0.544821  
	  88A      0.553702    89A      0.553879    90A      0.560073  
	  91A      0.563878    92A      0.566578    93A      0.580528  
	  94A      0.588228    95A      0.606921    96A      0.607808  
	  97A      0.615541    98A      0.617265    99A      0.643826  
	 100A      0.651888   101A      0.665102   102A      0.667321  
	 103A      0.675012   104A      0.676521   105A      0.682842  
	 106A      0.691699   107A      0.693954   108A      0.701483  
	 109A      0.716621   110A      0.723301   111A      0.730716  
	 112A      0.740859   113A      0.743123   114A      0.746674  
	 115A      0.764773   116A      0.769186   117A      0.770896  
	 118A      0.778415   119A      0.803961   120A      0.808958  
	 121A      0.814332   122A      0.825690   123A      0.851066  
	 124A      0.855516   125A      0.869644   126A      0.871234  
	 127A      0.888898   128A      0.893036   129A      0.899154  
	 130A      0.907766   131A      0.910350   132A      0.921231  
	 133A      0.928477   134A      0.932825   135A      0.933494  
	 136A      0.948799   137A      0.975450   138A      0.988818  
	 139A      1.003394   140A      1.021365   141A      1.024062  
	 142A      1.058432   143A      1.079436   144A      1.092026  
	 145A      1.109261   146A      1.153926   147A      1.158636  
	 148A      1.202440   149A      1.208459   150A      1.225506  
	 151A      1.228097   152A      1.267014   153A      1.284179  
	 154A      1.325874   155A      1.349264   156A      1.372492  
	 157A      1.391033   158A      1.442682   159A      1.453308  
	 160A      1.503855   161A      1.513924   162A      1.531142  
	 163A      1.536232   164A      1.551953   165A      1.568025  
	 166A      1.571653   167A      1.578627   168A      1.605901  
	 169A      1.611539   170A      1.626903   171A      1.630157  
	 172A      1.655024   173A      1.677941   174A      1.688840  
	 175A      1.692277   176A      1.719131   177A      1.731001  
	 178A      1.755794   179A      1.789951   180A      1.794275  
	 181A      1.813854   182A      1.848147   183A      1.854619  
	 184A      1.860087   185A      1.907816   186A      1.927742  
	 187A      1.950693   188A      1.951234   189A      1.958519  
	 190A      1.979280   191A      2.001886   192A      2.020972  
	 193A      2.070643   194A      2.071774   195A      2.091282  
	 196A      2.111222   197A      2.118440   198A      2.147886  
	 199A      2.150108   200A      2.207101   201A      2.210574  
	 202A      2.218560   203A      2.252696   204A      2.273077  
	 205A      2.287286   206A      2.303384   207A      2.306806  
	 208A      2.334009   209A      2.356502   210A      2.362773  
	 211A      2.371012   212A      2.409603   213A      2.415831  
	 214A      2.459707   215A      2.465928   216A      2.524667  
	 217A      2.552897   218A      2.597137   219A      2.605727  
	 220A      2.637315   221A      2.677736   222A      2.697605  
	 223A      2.732987   224A      2.768851   225A      2.803687  
	 226A      2.804094   227A      2.858650   228A      2.872040  
	 229A      2.894686   230A      2.943812   231A      2.949359  
	 232A      2.980182   233A      2.995851   234A      3.042417  
	 235A      3.047882   236A      3.105995   237A      3.126805  
	 238A      3.129194   239A      3.162756   240A      3.207074  
	 241A      3.247175   242A      3.289252   243A      3.306831  
	 244A      3.365863   245A      3.398929   246A      3.443156  
	 247A      3.520688   248A      3.722652   249A      3.723356  
	 250A      4.062632   251A      4.322063   252A      4.484699  
	 253A      4.750618   254A      5.032302   255A      5.051441  
	 256A      5.077528   257A      5.184439   258A      5.273554  
	 259A      5.471126   260A      5.675672   261A      6.132930  
	 262A      6.616232   263A      7.316792   264A     18.534014  
	 265A     33.612610  

	Final Occupation by Irrep:
	          A 
	DOCC [    21 ]

  Energy converged.

  @RHF Final Energy:  -246.72433951815893

   => Energetics <=

    Nuclear Repulsion Energy =            206.2842673812002943
    One-Electron Energy =                -741.1363381132924815
    Two-Electron Energy =                 288.1277312139331457
    DFT Exchange-Correlation Energy =       0.0000000000000000
    Empirical Dispersion Energy =           0.0000000000000000
    Total Energy =                       -246.7243395181590699



Properties will be evaluated at   0.000000,   0.000000,   0.000000 Bohr
  ==> Properties <==


Properties computed using the SCF density density matrix
  Nuclear Dipole Moment: (a.u.)
     X:    95.1898      Y:    13.0796      Z:    -0.0356

  Electronic Dipole Moment: (a.u.)
     X:   -94.2775      Y:   -13.1108      Z:     0.0363

  Dipole Moment: (a.u.)
     X:     0.9123      Y:    -0.0313      Z:     0.0007     Total:     0.9128

  Dipole Moment: (Debye)
     X:     2.3189      Y:    -0.0795      Z:     0.0018     Total:     2.3202


  Saving occupied orbitals to File 180.

  Saving SAPT 2-MONOMER_B file.

*** tstop() called on node116.bme.utexas.edu at Fri Feb 14 14:49:20 2014
Module time:
	user time   =      88.71 seconds =       1.48 minutes
	system time =       0.77 seconds =       0.01 minutes
	total time  =         24 seconds =       0.40 minutes
Total time:
	user time   =     288.62 seconds =       4.81 minutes
	system time =       2.87 seconds =       0.05 minutes
	total time  =         79 seconds =       1.32 minutes
  No DF_BASIS_SAPT auxiliary basis selected, defaulting to aug-cc-pvdz-ri

  //>>>>>>>>>>>>>>>>>>>>>>>>>>>>>>>>>>>//
  //               SAPT2+              //
  //<<<<<<<<<<<<<<<<<<<<<<<<<<<<<<<<<<<//


*** tstart() called on node116.bme.utexas.edu
*** at Fri Feb 14 14:49:20 2014

        SAPT2+  
    Ed Hohenstein
     6 June 2009

      Orbital Information
  --------------------------
    NSO        =       265
    NMO        =       265
    NRI        =       783
    NOCC A     =         9
    NOCC B     =        21
    FOCC A     =         2
    FOCC B     =         6
    NVIR A     =       256
    NVIR B     =       244

    Estimated memory usage: 1104.2 MB

    Elst10,r            =    -0.040826158612 H
    Exch10 (S^2)        =     0.061744216206 H
    Exch10              =     0.064099634517 H
    Ind20,r (A<-B)      =    -0.009353652471 H
    Ind20,r (B<-A)      =    -0.022075501833 H
    Ind20,r             =    -0.031429154304 H
    Exch-Ind20,r (A<-B) =     0.007297211539 H
    Exch-Ind20,r (B<-A) =     0.012641601801 H
    Exch-Ind20,r        =     0.019938813341 H
    Disp20              =    -0.016101694431 H
    Exch-Disp20         =     0.003659465329 H
    Elst12,r            =    -0.001949198729 H
    Exch11              =     0.000424791682 H
    Exch12              =     0.006851674092 H
    Ind22               =    -0.005155136808 H
    Disp21              =     0.002267391135 H
    Disp22 (SDQ)        =    -0.000785780032 H

    (i =   1 of  15)        169 seconds
    (i =   2 of  15)        337 seconds
    (i =   3 of  15)        506 seconds
    (i =   4 of  15)        675 seconds
    (i =   5 of  15)        843 seconds
    (i =   6 of  15)       1011 seconds
    (i =   7 of  15)       1179 seconds
    (i =   8 of  15)       1348 seconds
    (i =   9 of  15)       1516 seconds
    (i =  10 of  15)       1685 seconds
    (i =  11 of  15)       1854 seconds
    (i =  12 of  15)       2023 seconds
    (i =  13 of  15)       2192 seconds
    (i =  14 of  15)       2362 seconds
    (i =  15 of  15)       2530 seconds

    Disp220 (T)         =    -0.001314331384 H

    (i =   1 of   7)        363 seconds
    (i =   2 of   7)        726 seconds
    (i =   3 of   7)       1089 seconds
    (i =   4 of   7)       1452 seconds
    (i =   5 of   7)       1816 seconds
    (i =   6 of   7)       2180 seconds
    (i =   7 of   7)       2542 seconds

    Disp202 (T)         =    -0.001381796996 H

    Disp22 (T)          =    -0.002696128380 H

    SAPT Results  
  -----------------------------------------------------------------------
    Electrostatics         -42.77535734 mH     -26.84194310 kcal mol^-1
      Elst10,r             -40.82615861 mH     -25.61880238 kcal mol^-1
      Elst12,r              -1.94919873 mH      -1.22314072 kcal mol^-1

    Exchange                71.37610029 mH      44.78918101 kcal mol^-1
      Exch10                64.09963452 mH      40.22312961 kcal mol^-1
      Exch10(S^2)           61.74421621 mH      38.74508224 kcal mol^-1
      Exch11(S^2)            0.42479168 mH       0.26656082 kcal mol^-1
      Exch12(S^2)            6.85167409 mH       4.29949058 kcal mol^-1

    Induction              -21.68985043 mH     -13.61058720 kcal mol^-1
      Ind20,r              -31.42915430 mH     -19.72209290 kcal mol^-1
      Ind22                 -5.15513681 mH      -3.23489732 kcal mol^-1
      Exch-Ind20,r          19.93881334 mH      12.51179479 kcal mol^-1
      Exch-Ind22             3.27044468 mH       2.05223511 kcal mol^-1
      delta HF,r (2)        -8.31481734 mH      -5.21762687 kcal mol^-1

    Dispersion             -13.65674638 mH      -8.56973809 kcal mol^-1
      Disp20               -16.10169443 mH     -10.10396622 kcal mol^-1
      Disp21                 2.26739113 mH       1.42280948 kcal mol^-1
      Disp22 (SDQ)          -0.78578003 mH      -0.49308443 kcal mol^-1
      Disp22 (T)            -2.69612838 mH      -1.69184617 kcal mol^-1
      Exch-Disp20            3.65946533 mH       2.29634926 kcal mol^-1

    Total HF                 3.46831760 mH       2.17640225 kcal mol^-1
    Total SAPT0             -8.97391150 mH      -5.63121472 kcal mol^-1
    Total SAPT2             -5.53133658 mH      -3.47096625 kcal mol^-1
    Total SAPT2+            -6.74585386 mH      -4.23308738 kcal mol^-1

*** tstop() called on node116.bme.utexas.edu at Fri Feb 14 16:24:56 2014
Module time:
	user time   =   19372.41 seconds =     322.87 minutes
	system time =     103.36 seconds =       1.72 minutes
	total time  =       5736 seconds =      95.60 minutes
Total time:
	user time   =   19661.04 seconds =     327.68 minutes
	system time =     106.23 seconds =       1.77 minutes
	total time  =       5815 seconds =      96.92 minutes

*** PSI4 exiting successfully. Buy a developer a beer!
