
    -----------------------------------------------------------------------
          Psi4: An Open-Source Ab Initio Electronic Structure Package
                               Psi4 1.4a2.dev224 

                         Git: Rev {master} e453b16 


    R. M. Parrish, L. A. Burns, D. G. A. Smith, A. C. Simmonett,
    A. E. DePrince III, E. G. Hohenstein, U. Bozkaya, A. Yu. Sokolov,
    R. Di Remigio, R. M. Richard, J. F. Gonthier, A. M. James,
    H. R. McAlexander, A. Kumar, M. Saitow, X. Wang, B. P. Pritchard,
    P. Verma, H. F. Schaefer III, K. Patkowski, R. A. King, E. F. Valeev,
    F. A. Evangelista, J. M. Turney, T. D. Crawford, and C. D. Sherrill,
    J. Chem. Theory Comput. 13(7) pp 3185--3197 (2017).
    (doi: 10.1021/acs.jctc.7b00174)


                         Additional Contributions by
    P. Kraus, H. Kruse, M. H. Lechner, M. C. Schieber, R. A. Shaw,
    A. Alenaizan, R. Galvelis, Z. L. Glick, S. Lehtola, and J. P. Misiewicz

    -----------------------------------------------------------------------


    Psi4 started on: Thursday, 23 April 2020 05:20PM

    Process ID: 33079
    Host:       g2-node38.bme.utexas.edu
    PSIDATADIR: /home/liuchw/anaconda3/envs/psi4env/share/psi4
    Memory:     500.0 MiB
    Threads:    8
    
  ==> Input File <==

--------------------------------------------------------------------------
#Generated by lconvert.py for sapt job

memory 20 GB

molecule  {
0 1
  O      -0.627650    0.087470    0.001470
  H       0.343600    0.122300   -0.000600
  C      -0.977930   -1.278560    0.001240
  H      -2.063390   -1.342040    0.005010
  H      -0.614880   -1.806380   -0.885380
  H      -0.608640   -1.808240    0.884170
--
0 1
  N       3.463470   -0.048950   -0.002260
  C       4.159840   -0.073390   -1.146980
  H       3.575360   -0.050160   -2.057960
  C       5.549470   -0.123130   -1.195670
  H       6.056820   -0.140420   -2.149450
  C       6.259850   -0.148840   -0.000050
  H       7.340180   -0.186610    0.000800
  C       5.547600   -0.123820    1.194490
  H       6.053400   -0.141640    2.148970
  C       4.158050   -0.074070    1.143530
  H       3.572040   -0.051400    2.053650
units angstrom
no_reorient
symmetry c1
}

set {
scf_type DF
basis aug-cc-pvdz
freeze_core True
guess SAD
}
energy('sapt2+')
--------------------------------------------------------------------------

  Memory set to  18.626 GiB by Python driver.

Scratch directory: /scratch/liuchw/

  //>>>>>>>>>>>>>>>>>>>>>>>>>>>>>>>>>>>//
  //              Dimer HF             //
  //<<<<<<<<<<<<<<<<<<<<<<<<<<<<<<<<<<<//


*** tstart() called on g2-node38.bme.utexas.edu
*** at Thu Apr 23 17:20:34 2020

   => Loading Basis Set <=

    Name: AUG-CC-PVDZ
    Role: ORBITAL
    Keyword: BASIS
    atoms 1                         entry O          line   254 file /home/liuchw/anaconda3/envs/psi4env/share/psi4/basis/aug-cc-pvdz.gbs 
    atoms 2, 4-6, 9, 11, 13, 15, 17 entry H          line    40 file /home/liuchw/anaconda3/envs/psi4env/share/psi4/basis/aug-cc-pvdz.gbs 
    atoms 3, 8, 10, 12, 14, 16      entry C          line   182 file /home/liuchw/anaconda3/envs/psi4env/share/psi4/basis/aug-cc-pvdz.gbs 
    atoms 7                         entry N          line   218 file /home/liuchw/anaconda3/envs/psi4env/share/psi4/basis/aug-cc-pvdz.gbs 


         ---------------------------------------------------------
                                   SCF
               by Justin Turney, Rob Parrish, Andy Simmonett
                          and Daniel G. A. Smith
                              RHF Reference
                        8 Threads,  19073 MiB Core
         ---------------------------------------------------------

  ==> Geometry <==

    Molecular point group: c1
    Full point group: C1

    Geometry (in Angstrom), charge = 0, multiplicity = 1:

       Center              X                  Y                   Z               Mass       
    ------------   -----------------  -----------------  -----------------  -----------------
         O           -3.856850391619     0.326916800800     0.001922069160    15.994914619570
         H           -2.885600391619     0.361746800800    -0.000147930840     1.007825032230
         C           -4.207130391619    -1.039113199200     0.001692069160    12.000000000000
         H           -5.292590391619    -1.102593199200     0.005462069160     1.007825032230
         H           -3.844080391619    -1.566933199200    -0.884927930840     1.007825032230
         H           -3.837840391619    -1.568793199200     0.884622069160     1.007825032230
         N            0.234269608381     0.190496800800    -0.001807930840    14.003074004430
         C            0.930639608381     0.166056800800    -1.146527930840    12.000000000000
         H            0.346159608381     0.189286800800    -2.057507930840     1.007825032230
         C            2.320269608381     0.116316800800    -1.195217930840    12.000000000000
         H            2.827619608381     0.099026800800    -2.148997930840     1.007825032230
         C            3.030649608381     0.090606800800     0.000402069160    12.000000000000
         H            4.110979608381     0.052836800800     0.001252069160     1.007825032230
         C            2.318399608381     0.115626800800     1.194942069160    12.000000000000
         H            2.824199608381     0.097806800800     2.149422069160     1.007825032230
         C            0.928849608381     0.165376800800     1.143982069160    12.000000000000
         H            0.342839608381     0.188046800800     2.054102069160     1.007825032230

  Running in c1 symmetry.

  Rotational constants: A =      0.16427  B =      0.02022  C =      0.01870 [cm^-1]
  Rotational constants: A =   4924.64697  B =    606.29459  C =    560.74881 [MHz]
  Nuclear repulsion =  318.097837303509095

  Charge       = 0
  Multiplicity = 1
  Electrons    = 60
  Nalpha       = 30
  Nbeta        = 30

  ==> Algorithm <==

  SCF Algorithm Type is DF.
  DIIS enabled.
  MOM disabled.
  Fractional occupation disabled.
  Guess Type is SAD.
  Energy threshold   = 1.00e-08
  Density threshold  = 1.00e-08
  Integral threshold = 0.00e+00

  ==> Primary Basis <==

  Basis Set: AUG-CC-PVDZ
    Blend: AUG-CC-PVDZ
    Number of shells: 117
    Number of basis function: 265
    Number of Cartesian functions: 281
    Spherical Harmonics?: true
    Max angular momentum: 2

   => Loading Basis Set <=

    Name: (AUG-CC-PVDZ AUX)
    Role: JKFIT
    Keyword: DF_BASIS_SCF
    atoms 1                         entry O          line   270 file /home/liuchw/anaconda3/envs/psi4env/share/psi4/basis/aug-cc-pvdz-jkfit.gbs 
    atoms 2, 4-6, 9, 11, 13, 15, 17 entry H          line    70 file /home/liuchw/anaconda3/envs/psi4env/share/psi4/basis/aug-cc-pvdz-jkfit.gbs 
    atoms 3, 8, 10, 12, 14, 16      entry C          line   154 file /home/liuchw/anaconda3/envs/psi4env/share/psi4/basis/aug-cc-pvdz-jkfit.gbs 
    atoms 7                         entry N          line   212 file /home/liuchw/anaconda3/envs/psi4env/share/psi4/basis/aug-cc-pvdz-jkfit.gbs 

  ==> Pre-Iterations <==

   -------------------------------------------------------
    Irrep   Nso     Nmo     Nalpha   Nbeta   Ndocc  Nsocc
   -------------------------------------------------------
     A        265     265       0       0       0       0
   -------------------------------------------------------
    Total     265     265      30      30      30       0
   -------------------------------------------------------

  ==> Integral Setup <==

  ==> DiskDFJK: Density-Fitted J/K Matrices <==

    J tasked:                  Yes
    K tasked:                  Yes
    wK tasked:                  No
    OpenMP threads:              8
    Integrals threads:           8
    Memory [MiB]:            14305
    Algorithm:                Core
    Integral Cache:           SAVE
    Schwarz Cutoff:          1E-12
    Fitting Condition:       1E-10

   => Auxiliary Basis Set <=

  Basis Set: (AUG-CC-PVDZ AUX)
    Blend: AUG-CC-PVDZ-JKFIT
    Number of shells: 332
    Number of basis function: 976
    Number of Cartesian functions: 1123
    Spherical Harmonics?: true
    Max angular momentum: 3

  Minimum eigenvalue in the overlap matrix is 9.3608219132E-06.
  Using Symmetric Orthogonalization.

  SCF Guess: Superposition of Atomic Densities via on-the-fly atomic UHF.

  ==> Iterations <==

                           Total Energy        Delta E     RMS |[F,P]|

   @DF-RHF iter SAD:  -360.50289629212222   -3.60503e+02   0.00000e+00 
   @DF-RHF iter   1:  -361.56361604467895   -1.06072e+00   2.33161e-03 DIIS
   @DF-RHF iter   2:  -361.74399540825578   -1.80379e-01   1.17683e-03 DIIS
   @DF-RHF iter   3:  -361.78591827287613   -4.19229e-02   2.17767e-04 DIIS
   @DF-RHF iter   4:  -361.78822674022825   -2.30847e-03   7.07828e-05 DIIS
   @DF-RHF iter   5:  -361.78841747293990   -1.90733e-04   1.45141e-05 DIIS
   @DF-RHF iter   6:  -361.78842969357760   -1.22206e-05   4.46227e-06 DIIS
   @DF-RHF iter   7:  -361.78843088130066   -1.18772e-06   1.88779e-06 DIIS
   @DF-RHF iter   8:  -361.78843111202104   -2.30720e-07   6.46549e-07 DIIS
   @DF-RHF iter   9:  -361.78843114841629   -3.63952e-08   2.09187e-07 DIIS
   @DF-RHF iter  10:  -361.78843115381454   -5.39825e-09   1.01400e-07 DIIS
   @DF-RHF iter  11:  -361.78843115554548   -1.73094e-09   4.06349e-08 DIIS
   @DF-RHF iter  12:  -361.78843115584777   -3.02293e-10   1.96626e-08 DIIS
   @DF-RHF iter  13:  -361.78843115590854   -6.07656e-11   5.29634e-09 DIIS
  Energy and wave function converged.


  ==> Post-Iterations <==

    Orbital Energies [Eh]
    ---------------------

    Doubly Occupied:                                                      

       1A    -20.555316     2A    -15.583943     3A    -11.288992  
       4A    -11.288972     5A    -11.272702     6A    -11.266321  
       7A    -11.254761     8A    -11.254710     9A     -1.348523  
      10A     -1.267826    11A     -1.098944    12A     -1.044028  
      13A     -0.912909    14A     -0.867806    15A     -0.865478  
      16A     -0.729982    17A     -0.678143    18A     -0.668702  
      19A     -0.661608    20A     -0.607254    21A     -0.606701  
      22A     -0.584444    23A     -0.582647    24A     -0.548409  
      25A     -0.527463    26A     -0.490761    27A     -0.435445  
      28A     -0.427718    29A     -0.390479    30A     -0.354555  

    Virtual:                                                              

      31A      0.029093    32A      0.037865    33A      0.040488  
      34A      0.051427    35A      0.055740    36A      0.066004  
      37A      0.067114    38A      0.078546    39A      0.083424  
      40A      0.098086    41A      0.099864    42A      0.106407  
      43A      0.112159    44A      0.127327    45A      0.130340  
      46A      0.133825    47A      0.136974    48A      0.145751  
      49A      0.146465    50A      0.153597    51A      0.154874  
      52A      0.158206    53A      0.158325    54A      0.168582  
      55A      0.171551    56A      0.181671    57A      0.185939  
      58A      0.190723    59A      0.197757    60A      0.199879  
      61A      0.205496    62A      0.233126    63A      0.259099  
      64A      0.274364    65A      0.279748    66A      0.289177  
      67A      0.291597    68A      0.295064    69A      0.303804  
      70A      0.314014    71A      0.321021    72A      0.325969  
      73A      0.330789    74A      0.337724    75A      0.342343  
      76A      0.343397    77A      0.354459    78A      0.356067  
      79A      0.360895    80A      0.367435    81A      0.379862  
      82A      0.398528    83A      0.406662    84A      0.406791  
      85A      0.412300    86A      0.422866    87A      0.426354  
      88A      0.427958    89A      0.433745    90A      0.438287  
      91A      0.448072    92A      0.459530    93A      0.477889  
      94A      0.495574    95A      0.496929    96A      0.499621  
      97A      0.520114    98A      0.526917    99A      0.534667  
     100A      0.551033   101A      0.552353   102A      0.561802  
     103A      0.571497   104A      0.576253   105A      0.576408  
     106A      0.587956   107A      0.592843   108A      0.603570  
     109A      0.610678   110A      0.631108   111A      0.636489  
     112A      0.642147   113A      0.646263   114A      0.659776  
     115A      0.659901   116A      0.669470   117A      0.675025  
     118A      0.680315   119A      0.683517   120A      0.687390  
     121A      0.693686   122A      0.698138   123A      0.709765  
     124A      0.724190   125A      0.732800   126A      0.736272  
     127A      0.743956   128A      0.744385   129A      0.750489  
     130A      0.770993   131A      0.776137   132A      0.792374  
     133A      0.799287   134A      0.831669   135A      0.848687  
     136A      0.854704   137A      0.861063   138A      0.886215  
     139A      0.888904   140A      0.894527   141A      0.899064  
     142A      0.902760   143A      0.921638   144A      0.930790  
     145A      0.942893   146A      0.964599   147A      0.969048  
     148A      0.979110   149A      0.989328   150A      0.993977  
     151A      1.007370   152A      1.036842   153A      1.048050  
     154A      1.072907   155A      1.095222   156A      1.107815  
     157A      1.134425   158A      1.145923   159A      1.150327  
     160A      1.172046   161A      1.200349   162A      1.213291  
     163A      1.238991   164A      1.260674   165A      1.268248  
     166A      1.275554   167A      1.322764   168A      1.383837  
     169A      1.401377   170A      1.414017   171A      1.438604  
     172A      1.450451   173A      1.485217   174A      1.530767  
     175A      1.535813   176A      1.561151   177A      1.567797  
     178A      1.576409   179A      1.590192   180A      1.599916  
     181A      1.614824   182A      1.636075   183A      1.653629  
     184A      1.670074   185A      1.675520   186A      1.680024  
     187A      1.702647   188A      1.710531   189A      1.736331  
     190A      1.744494   191A      1.763894   192A      1.778026  
     193A      1.804668   194A      1.814318   195A      1.820214  
     196A      1.820987   197A      1.833117   198A      1.846951  
     199A      1.907067   200A      1.910608   201A      1.918636  
     202A      1.928850   203A      1.939991   204A      1.945396  
     205A      1.956363   206A      2.054110   207A      2.058044  
     208A      2.082699   209A      2.083765   210A      2.108494  
     211A      2.111179   212A      2.128842   213A      2.130162  
     214A      2.139077   215A      2.166910   216A      2.195473  
     217A      2.197971   218A      2.199083   219A      2.232096  
     220A      2.264074   221A      2.271376   222A      2.278425  
     223A      2.285026   224A      2.299085   225A      2.344279  
     226A      2.353229   227A      2.382360   228A      2.431937  
     229A      2.434360   230A      2.451123   231A      2.496511  
     232A      2.553165   233A      2.614196   234A      2.621614  
     235A      2.642823   236A      2.681092   237A      2.700855  
     238A      2.737911   239A      2.776795   240A      2.793534  
     241A      2.808988   242A      2.840362   243A      2.848503  
     244A      2.906264   245A      2.926324   246A      2.926970  
     247A      2.962678   248A      2.974612   249A      3.013365  
     250A      3.099015   251A      3.114197   252A      3.135629  
     253A      3.136064   254A      3.206319   255A      3.263879  
     256A      3.394671   257A      3.400538   258A      3.635606  
     259A      3.658279   260A      3.773327   261A      3.787305  
     262A      3.852174   263A      3.917038   264A      4.291754  
     265A      4.298219  

    Final Occupation by Irrep:
              A 
    DOCC [    30 ]

  @DF-RHF Final Energy:  -361.78843115590854

   => Energetics <=

    Nuclear Repulsion Energy =            318.0978373035090954
    One-Electron Energy =               -1120.8414523006445052
    Two-Electron Energy =                 440.9551838412268694
    Total Energy =                       -361.7884311559085404

Computation Completed


Properties will be evaluated at   0.000000,   0.000000,   0.000000 [a0]

Properties computed using the SCF density matrix

  Nuclear Dipole Moment: [e a0]
     X:    -5.0893      Y:    -3.0454      Z:     0.0031

  Electronic Dipole Moment: [e a0]
     X:     6.6240      Y:     2.4899      Z:    -0.0037

  Dipole Moment: [e a0]
     X:     1.5346      Y:    -0.5555      Z:    -0.0007     Total:     1.6320

  Dipole Moment: [D]
     X:     3.9006      Y:    -1.4119      Z:    -0.0017     Total:     4.1482


*** tstop() called on g2-node38.bme.utexas.edu at Thu Apr 23 17:20:43 2020
Module time:
	user time   =      61.83 seconds =       1.03 minutes
	system time =       1.90 seconds =       0.03 minutes
	total time  =          9 seconds =       0.15 minutes
Total time:
	user time   =      61.83 seconds =       1.03 minutes
	system time =       1.90 seconds =       0.03 minutes
	total time  =          9 seconds =       0.15 minutes

  //>>>>>>>>>>>>>>>>>>>>>>>>>>>>>>>>>>>//
  //            Monomer A HF           //
  //<<<<<<<<<<<<<<<<<<<<<<<<<<<<<<<<<<<//


*** tstart() called on g2-node38.bme.utexas.edu
*** at Thu Apr 23 17:20:43 2020

   => Loading Basis Set <=

    Name: AUG-CC-PVDZ
    Role: ORBITAL
    Keyword: BASIS
    atoms 1                         entry O          line   254 file /home/liuchw/anaconda3/envs/psi4env/share/psi4/basis/aug-cc-pvdz.gbs 
    atoms 2, 4-6, 9, 11, 13, 15, 17 entry H          line    40 file /home/liuchw/anaconda3/envs/psi4env/share/psi4/basis/aug-cc-pvdz.gbs 
    atoms 3, 8, 10, 12, 14, 16      entry C          line   182 file /home/liuchw/anaconda3/envs/psi4env/share/psi4/basis/aug-cc-pvdz.gbs 
    atoms 7                         entry N          line   218 file /home/liuchw/anaconda3/envs/psi4env/share/psi4/basis/aug-cc-pvdz.gbs 


         ---------------------------------------------------------
                                   SCF
               by Justin Turney, Rob Parrish, Andy Simmonett
                          and Daniel G. A. Smith
                              RHF Reference
                        8 Threads,  19073 MiB Core
         ---------------------------------------------------------

  ==> Geometry <==

    Molecular point group: c1
    Full point group: C1

    Geometry (in Angstrom), charge = 0, multiplicity = 1:

       Center              X                  Y                   Z               Mass       
    ------------   -----------------  -----------------  -----------------  -----------------
         O           -3.856850391619     0.326916800800     0.001922069160    15.994914619570
         H           -2.885600391619     0.361746800800    -0.000147930840     1.007825032230
         C           -4.207130391619    -1.039113199200     0.001692069160    12.000000000000
         H           -5.292590391619    -1.102593199200     0.005462069160     1.007825032230
         H           -3.844080391619    -1.566933199200    -0.884927930840     1.007825032230
         H           -3.837840391619    -1.568793199200     0.884622069160     1.007825032230
      Gh(N)           0.234269608381     0.190496800800    -0.001807930840    14.003074004430
      Gh(C)           0.930639608381     0.166056800800    -1.146527930840    12.000000000000
      Gh(H)           0.346159608381     0.189286800800    -2.057507930840     1.007825032230
      Gh(C)           2.320269608381     0.116316800800    -1.195217930840    12.000000000000
      Gh(H)           2.827619608381     0.099026800800    -2.148997930840     1.007825032230
      Gh(C)           3.030649608381     0.090606800800     0.000402069160    12.000000000000
      Gh(H)           4.110979608381     0.052836800800     0.001252069160     1.007825032230
      Gh(C)           2.318399608381     0.115626800800     1.194942069160    12.000000000000
      Gh(H)           2.824199608381     0.097806800800     2.149422069160     1.007825032230
      Gh(C)           0.928849608381     0.165376800800     1.143982069160    12.000000000000
      Gh(H)           0.342839608381     0.188046800800     2.054102069160     1.007825032230

  Running in c1 symmetry.

  Rotational constants: A =      0.16427  B =      0.02022  C =      0.01870 [cm^-1]
  Rotational constants: A =   4924.64697  B =    606.29459  C =    560.74881 [MHz]
  Nuclear repulsion =   40.421854336720251

  Charge       = 0
  Multiplicity = 1
  Electrons    = 18
  Nalpha       = 9
  Nbeta        = 9

  ==> Algorithm <==

  SCF Algorithm Type is DF.
  DIIS enabled.
  MOM disabled.
  Fractional occupation disabled.
  Guess Type is SAD.
  Energy threshold   = 1.00e-08
  Density threshold  = 1.00e-08
  Integral threshold = 0.00e+00

  ==> Primary Basis <==

  Basis Set: AUG-CC-PVDZ
    Blend: AUG-CC-PVDZ
    Number of shells: 117
    Number of basis function: 265
    Number of Cartesian functions: 281
    Spherical Harmonics?: true
    Max angular momentum: 2

   => Loading Basis Set <=

    Name: (AUG-CC-PVDZ AUX)
    Role: JKFIT
    Keyword: DF_BASIS_SCF
    atoms 1                         entry O          line   270 file /home/liuchw/anaconda3/envs/psi4env/share/psi4/basis/aug-cc-pvdz-jkfit.gbs 
    atoms 2, 4-6, 9, 11, 13, 15, 17 entry H          line    70 file /home/liuchw/anaconda3/envs/psi4env/share/psi4/basis/aug-cc-pvdz-jkfit.gbs 
    atoms 3, 8, 10, 12, 14, 16      entry C          line   154 file /home/liuchw/anaconda3/envs/psi4env/share/psi4/basis/aug-cc-pvdz-jkfit.gbs 
    atoms 7                         entry N          line   212 file /home/liuchw/anaconda3/envs/psi4env/share/psi4/basis/aug-cc-pvdz-jkfit.gbs 

  ==> Pre-Iterations <==

   -------------------------------------------------------
    Irrep   Nso     Nmo     Nalpha   Nbeta   Ndocc  Nsocc
   -------------------------------------------------------
     A        265     265       0       0       0       0
   -------------------------------------------------------
    Total     265     265       9       9       9       0
   -------------------------------------------------------

  ==> Integral Setup <==

  ==> DiskDFJK: Density-Fitted J/K Matrices <==

    J tasked:                  Yes
    K tasked:                  Yes
    wK tasked:                  No
    OpenMP threads:              8
    Integrals threads:           8
    Memory [MiB]:            14305
    Algorithm:                Core
    Integral Cache:           LOAD
    Schwarz Cutoff:          1E-12
    Fitting Condition:       1E-10

   => Auxiliary Basis Set <=

  Basis Set: (AUG-CC-PVDZ AUX)
    Blend: AUG-CC-PVDZ-JKFIT
    Number of shells: 332
    Number of basis function: 976
    Number of Cartesian functions: 1123
    Spherical Harmonics?: true
    Max angular momentum: 3

  Minimum eigenvalue in the overlap matrix is 9.3608219132E-06.
  Using Symmetric Orthogonalization.

  SCF Guess: Superposition of Atomic Densities via on-the-fly atomic UHF.

  ==> Iterations <==

                           Total Energy        Delta E     RMS |[F,P]|

   @DF-RHF iter SAD:  -114.37654858953690   -1.14377e+02   0.00000e+00 
   @DF-RHF iter   1:  -114.97484424382637   -5.98296e-01   1.54756e-03 DIIS
   @DF-RHF iter   2:  -115.03909530843882   -6.42511e-02   8.86426e-04 DIIS
   @DF-RHF iter   3:  -115.05974212595297   -2.06468e-02   1.36696e-04 DIIS
   @DF-RHF iter   4:  -115.06071002302571   -9.67897e-04   4.16440e-05 DIIS
   @DF-RHF iter   5:  -115.06079731129853   -8.72883e-05   9.14376e-06 DIIS
   @DF-RHF iter   6:  -115.06080299270820   -5.68141e-06   2.14308e-06 DIIS
   @DF-RHF iter   7:  -115.06080346538441   -4.72676e-07   4.78969e-07 DIIS
   @DF-RHF iter   8:  -115.06080349068073   -2.52963e-08   9.54365e-08 DIIS
   @DF-RHF iter   9:  -115.06080349158611   -9.05388e-10   1.84854e-08 DIIS
   @DF-RHF iter  10:  -115.06080349161915   -3.30402e-11   4.10765e-09 DIIS
  Energy and wave function converged.


  ==> Post-Iterations <==

    Orbital Energies [Eh]
    ---------------------

    Doubly Occupied:                                                      

       1A    -20.571443     2A    -11.278174     3A     -1.364039  
       4A     -0.925600     5A     -0.692802     6A     -0.620299  
       7A     -0.596350     8A     -0.504005     9A     -0.449598  

    Virtual:                                                              

      10A      0.017699    11A      0.035266    12A      0.035318  
      13A      0.046900    14A      0.054707    15A      0.058441  
      16A      0.063634    17A      0.075468    18A      0.078227  
      19A      0.086182    20A      0.094588    21A      0.103873  
      22A      0.113428    23A      0.114354    24A      0.120115  
      25A      0.125436    26A      0.138678    27A      0.139950  
      28A      0.145525    29A      0.145847    30A      0.152762  
      31A      0.162463    32A      0.162903    33A      0.171414  
      34A      0.172675    35A      0.179926    36A      0.185758  
      37A      0.193550    38A      0.203739    39A      0.207638  
      40A      0.223368    41A      0.228234    42A      0.236788  
      43A      0.237838    44A      0.256407    45A      0.272260  
      46A      0.280876    47A      0.286890    48A      0.302870  
      49A      0.305949    50A      0.324073    51A      0.327067  
      52A      0.340892    53A      0.350944    54A      0.361115  
      55A      0.363182    56A      0.383717    57A      0.387238  
      58A      0.388978    59A      0.393041    60A      0.397324  
      61A      0.400305    62A      0.419494    63A      0.429244  
      64A      0.432925    65A      0.440798    66A      0.444779  
      67A      0.458309    68A      0.461591    69A      0.471024  
      70A      0.471753    71A      0.473920    72A      0.481109  
      73A      0.484255    74A      0.495527    75A      0.503459  
      76A      0.509136    77A      0.518595    78A      0.523880  
      79A      0.542757    80A      0.542885    81A      0.545706  
      82A      0.555598    83A      0.572260    84A      0.572981  
      85A      0.586744    86A      0.602006    87A      0.609535  
      88A      0.621956    89A      0.624875    90A      0.629280  
      91A      0.636783    92A      0.642199    93A      0.649357  
      94A      0.658554    95A      0.668020    96A      0.674381  
      97A      0.683379    98A      0.687933    99A      0.699591  
     100A      0.729552   101A      0.741318   102A      0.752777  
     103A      0.764130   104A      0.768945   105A      0.779754  
     106A      0.788121   107A      0.805933   108A      0.814593  
     109A      0.822840   110A      0.835618   111A      0.846548  
     112A      0.867228   113A      0.868477   114A      0.872568  
     115A      0.886096   116A      0.886394   117A      0.892002  
     118A      0.904008   119A      0.920340   120A      0.927936  
     121A      0.934818   122A      0.948748   123A      0.978809  
     124A      0.992806   125A      1.013225   126A      1.015663  
     127A      1.033691   128A      1.047603   129A      1.072157  
     130A      1.085297   131A      1.098670   132A      1.116893  
     133A      1.131520   134A      1.133042   135A      1.147980  
     136A      1.166476   137A      1.167748   138A      1.201239  
     139A      1.210790   140A      1.213595   141A      1.257188  
     142A      1.283134   143A      1.286919   144A      1.307113  
     145A      1.311997   146A      1.323539   147A      1.370242  
     148A      1.389058   149A      1.409551   150A      1.421597  
     151A      1.462915   152A      1.463279   153A      1.491892  
     154A      1.495831   155A      1.568872   156A      1.577679  
     157A      1.630403   158A      1.631530   159A      1.725357  
     160A      1.791063   161A      1.798183   162A      1.805873  
     163A      1.895451   164A      1.910042   165A      2.061875  
     166A      2.090723   167A      2.109990   168A      2.115626  
     169A      2.124064   170A      2.135934   171A      2.147019  
     172A      2.147939   173A      2.158664   174A      2.187017  
     175A      2.190491   176A      2.197860   177A      2.204623  
     178A      2.218391   179A      2.223673   180A      2.240930  
     181A      2.259536   182A      2.267810   183A      2.278634  
     184A      2.302230   185A      2.316492   186A      2.326402  
     187A      2.358420   188A      2.399415   189A      2.400794  
     190A      2.422125   191A      2.434729   192A      2.451362  
     193A      2.489181   194A      2.513235   195A      2.527655  
     196A      2.581757   197A      2.587145   198A      2.593066  
     199A      2.626731   200A      2.631392   201A      2.641023  
     202A      2.646614   203A      2.670321   204A      2.706140  
     205A      2.720771   206A      2.733110   207A      2.734507  
     208A      2.786828   209A      2.815734   210A      2.850262  
     211A      2.862289   212A      2.910041   213A      2.913834  
     214A      2.914500   215A      2.929585   216A      2.987483  
     217A      3.043311   218A      3.047874   219A      3.061320  
     220A      3.131987   221A      3.158330   222A      3.181885  
     223A      3.274427   224A      3.275589   225A      3.334760  
     226A      3.389712   227A      3.407608   228A      3.413360  
     229A      3.414968   230A      3.461632   231A      3.481337  
     232A      3.526616   233A      3.617167   234A      3.626243  
     235A      3.753925   236A      3.772106   237A      3.831812  
     238A      3.868333   239A      3.869457   240A      3.878839  
     241A      3.903091   242A      4.006356   243A      4.058963  
     244A      4.175860   245A      4.276307   246A      4.429563  
     247A      4.527445   248A      4.595218   249A      4.671275  
     250A      4.770795   251A      4.920960   252A      5.115704  
     253A      5.394786   254A      5.485263   255A      5.547056  
     256A      5.598444   257A      5.615391   258A      5.772748  
     259A      6.151173   260A     18.058559   261A     18.346429  
     262A     18.699096   263A     19.043551   264A     19.884570  
     265A     25.315669  

    Final Occupation by Irrep:
              A 
    DOCC [     9 ]

  @DF-RHF Final Energy:  -115.06080349161915

   => Energetics <=

    Nuclear Repulsion Energy =             40.4218543367202514
    One-Electron Energy =                -236.9606950082281571
    Two-Electron Energy =                  81.4780371798887444
    Total Energy =                       -115.0608034916191542

Computation Completed


Properties will be evaluated at   0.000000,   0.000000,   0.000000 [a0]

Properties computed using the SCF density matrix

  Nuclear Dipole Moment: [e a0]
     X:  -135.9803      Y:   -14.1652      Z:     0.0577

  Electronic Dipole Moment: [e a0]
     X:   136.4328      Y:    13.6109      Z:    -0.0590

  Dipole Moment: [e a0]
     X:     0.4525      Y:    -0.5543      Z:    -0.0013     Total:     0.7156

  Dipole Moment: [D]
     X:     1.1501      Y:    -1.4090      Z:    -0.0034     Total:     1.8188


*** tstop() called on g2-node38.bme.utexas.edu at Thu Apr 23 17:20:48 2020
Module time:
	user time   =      26.23 seconds =       0.44 minutes
	system time =       0.93 seconds =       0.02 minutes
	total time  =          5 seconds =       0.08 minutes
Total time:
	user time   =      88.13 seconds =       1.47 minutes
	system time =       2.83 seconds =       0.05 minutes
	total time  =         14 seconds =       0.23 minutes

  //>>>>>>>>>>>>>>>>>>>>>>>>>>>>>>>>>>>//
  //            Monomer B HF           //
  //<<<<<<<<<<<<<<<<<<<<<<<<<<<<<<<<<<<//


*** tstart() called on g2-node38.bme.utexas.edu
*** at Thu Apr 23 17:20:48 2020

   => Loading Basis Set <=

    Name: AUG-CC-PVDZ
    Role: ORBITAL
    Keyword: BASIS
    atoms 1                         entry O          line   254 file /home/liuchw/anaconda3/envs/psi4env/share/psi4/basis/aug-cc-pvdz.gbs 
    atoms 2, 4-6, 9, 11, 13, 15, 17 entry H          line    40 file /home/liuchw/anaconda3/envs/psi4env/share/psi4/basis/aug-cc-pvdz.gbs 
    atoms 3, 8, 10, 12, 14, 16      entry C          line   182 file /home/liuchw/anaconda3/envs/psi4env/share/psi4/basis/aug-cc-pvdz.gbs 
    atoms 7                         entry N          line   218 file /home/liuchw/anaconda3/envs/psi4env/share/psi4/basis/aug-cc-pvdz.gbs 


         ---------------------------------------------------------
                                   SCF
               by Justin Turney, Rob Parrish, Andy Simmonett
                          and Daniel G. A. Smith
                              RHF Reference
                        8 Threads,  19073 MiB Core
         ---------------------------------------------------------

  ==> Geometry <==

    Molecular point group: c1
    Full point group: C1

    Geometry (in Angstrom), charge = 0, multiplicity = 1:

       Center              X                  Y                   Z               Mass       
    ------------   -----------------  -----------------  -----------------  -----------------
      Gh(O)          -3.856850391619     0.326916800800     0.001922069160    15.994914619570
      Gh(H)          -2.885600391619     0.361746800800    -0.000147930840     1.007825032230
      Gh(C)          -4.207130391619    -1.039113199200     0.001692069160    12.000000000000
      Gh(H)          -5.292590391619    -1.102593199200     0.005462069160     1.007825032230
      Gh(H)          -3.844080391619    -1.566933199200    -0.884927930840     1.007825032230
      Gh(H)          -3.837840391619    -1.568793199200     0.884622069160     1.007825032230
         N            0.234269608381     0.190496800800    -0.001807930840    14.003074004430
         C            0.930639608381     0.166056800800    -1.146527930840    12.000000000000
         H            0.346159608381     0.189286800800    -2.057507930840     1.007825032230
         C            2.320269608381     0.116316800800    -1.195217930840    12.000000000000
         H            2.827619608381     0.099026800800    -2.148997930840     1.007825032230
         C            3.030649608381     0.090606800800     0.000402069160    12.000000000000
         H            4.110979608381     0.052836800800     0.001252069160     1.007825032230
         C            2.318399608381     0.115626800800     1.194942069160    12.000000000000
         H            2.824199608381     0.097806800800     2.149422069160     1.007825032230
         C            0.928849608381     0.165376800800     1.143982069160    12.000000000000
         H            0.342839608381     0.188046800800     2.054102069160     1.007825032230

  Running in c1 symmetry.

  Rotational constants: A =      0.16427  B =      0.02022  C =      0.01870 [cm^-1]
  Rotational constants: A =   4924.64697  B =    606.29459  C =    560.74881 [MHz]
  Nuclear repulsion =  206.284315517190805

  Charge       = 0
  Multiplicity = 1
  Electrons    = 42
  Nalpha       = 21
  Nbeta        = 21

  ==> Algorithm <==

  SCF Algorithm Type is DF.
  DIIS enabled.
  MOM disabled.
  Fractional occupation disabled.
  Guess Type is SAD.
  Energy threshold   = 1.00e-08
  Density threshold  = 1.00e-08
  Integral threshold = 0.00e+00

  ==> Primary Basis <==

  Basis Set: AUG-CC-PVDZ
    Blend: AUG-CC-PVDZ
    Number of shells: 117
    Number of basis function: 265
    Number of Cartesian functions: 281
    Spherical Harmonics?: true
    Max angular momentum: 2

   => Loading Basis Set <=

    Name: (AUG-CC-PVDZ AUX)
    Role: JKFIT
    Keyword: DF_BASIS_SCF
    atoms 1                         entry O          line   270 file /home/liuchw/anaconda3/envs/psi4env/share/psi4/basis/aug-cc-pvdz-jkfit.gbs 
    atoms 2, 4-6, 9, 11, 13, 15, 17 entry H          line    70 file /home/liuchw/anaconda3/envs/psi4env/share/psi4/basis/aug-cc-pvdz-jkfit.gbs 
    atoms 3, 8, 10, 12, 14, 16      entry C          line   154 file /home/liuchw/anaconda3/envs/psi4env/share/psi4/basis/aug-cc-pvdz-jkfit.gbs 
    atoms 7                         entry N          line   212 file /home/liuchw/anaconda3/envs/psi4env/share/psi4/basis/aug-cc-pvdz-jkfit.gbs 

  ==> Pre-Iterations <==

   -------------------------------------------------------
    Irrep   Nso     Nmo     Nalpha   Nbeta   Ndocc  Nsocc
   -------------------------------------------------------
     A        265     265       0       0       0       0
   -------------------------------------------------------
    Total     265     265      21      21      21       0
   -------------------------------------------------------

  ==> Integral Setup <==

  ==> DiskDFJK: Density-Fitted J/K Matrices <==

    J tasked:                  Yes
    K tasked:                  Yes
    wK tasked:                  No
    OpenMP threads:              8
    Integrals threads:           8
    Memory [MiB]:            14305
    Algorithm:                Core
    Integral Cache:           LOAD
    Schwarz Cutoff:          1E-12
    Fitting Condition:       1E-10

   => Auxiliary Basis Set <=

  Basis Set: (AUG-CC-PVDZ AUX)
    Blend: AUG-CC-PVDZ-JKFIT
    Number of shells: 332
    Number of basis function: 976
    Number of Cartesian functions: 1123
    Spherical Harmonics?: true
    Max angular momentum: 3

  Minimum eigenvalue in the overlap matrix is 9.3608219132E-06.
  Using Symmetric Orthogonalization.

  SCF Guess: Superposition of Atomic Densities via on-the-fly atomic UHF.

  ==> Iterations <==

                           Total Energy        Delta E     RMS |[F,P]|

   @DF-RHF iter SAD:  -246.11344973262169   -2.46113e+02   0.00000e+00 
   @DF-RHF iter   1:  -246.58194209802031   -4.68492e-01   1.76412e-03 DIIS
   @DF-RHF iter   2:  -246.70006720051174   -1.18125e-01   8.01218e-04 DIIS
   @DF-RHF iter   3:  -246.72260975092919   -2.25426e-02   1.56540e-04 DIIS
   @DF-RHF iter   4:  -246.72391810864156   -1.30836e-03   4.94673e-05 DIIS
   @DF-RHF iter   5:  -246.72400359987358   -8.54912e-05   1.35098e-05 DIIS
   @DF-RHF iter   6:  -246.72401249998418   -8.90011e-06   3.41909e-06 DIIS
   @DF-RHF iter   7:  -246.72401323190786   -7.31924e-07   1.34014e-06 DIIS
   @DF-RHF iter   8:  -246.72401335320134   -1.21293e-07   5.54160e-07 DIIS
   @DF-RHF iter   9:  -246.72401339339586   -4.01945e-08   1.70562e-07 DIIS
   @DF-RHF iter  10:  -246.72401339867289   -5.27703e-09   5.97172e-08 DIIS
   @DF-RHF iter  11:  -246.72401339948470   -8.11809e-10   3.38333e-08 DIIS
   @DF-RHF iter  12:  -246.72401339964628   -1.61577e-10   7.91835e-09 DIIS
  Energy and wave function converged.


  ==> Post-Iterations <==

    Orbital Energies [Eh]
    ---------------------

    Doubly Occupied:                                                      

       1A    -15.575040     2A    -11.281776     3A    -11.281756  
       4A    -11.266480     5A    -11.248682     6A    -11.248630  
       7A     -1.259888     8A     -1.092369     9A     -1.037325  
      10A     -0.861319    11A     -0.858424    12A     -0.723245  
      13A     -0.661727    14A     -0.655480    15A     -0.600267  
      16A     -0.577516    17A     -0.540986    18A     -0.520986  
      19A     -0.418073    20A     -0.383274    21A     -0.348244  

    Virtual:                                                              

      22A      0.030569    23A      0.034927    24A      0.039952  
      25A      0.049859    26A      0.055999    27A      0.062457  
      28A      0.065592    29A      0.078606    30A      0.088389  
      31A      0.090232    32A      0.105195    33A      0.107765  
      34A      0.115730    35A      0.125494    36A      0.128840  
      37A      0.130695    38A      0.139588    39A      0.142908  
      40A      0.147384    41A      0.147760    42A      0.149916  
      43A      0.156105    44A      0.161209    45A      0.162212  
      46A      0.170041    47A      0.173440    48A      0.186355  
      49A      0.192454    50A      0.195617    51A      0.198936  
      52A      0.202538    53A      0.218068    54A      0.237256  
      55A      0.254237    56A      0.287511    57A      0.287741  
      58A      0.293446    59A      0.296841    60A      0.299005  
      61A      0.307832    62A      0.326997    63A      0.328804  
      64A      0.329361    65A      0.340227    66A      0.345853  
      67A      0.348943    68A      0.350492    69A      0.360271  
      70A      0.361029    71A      0.367012    72A      0.378754  
      73A      0.394812    74A      0.407438    75A      0.416924  
      76A      0.417228    77A      0.427996    78A      0.433308  
      79A      0.437899    80A      0.443404    81A      0.446731  
      82A      0.459202    83A      0.472851    84A      0.492832  
      85A      0.493753    86A      0.503452    87A      0.506363  
      88A      0.537051    89A      0.546235    90A      0.550811  
      91A      0.554559    92A      0.559723    93A      0.564712  
      94A      0.570769    95A      0.578343    96A      0.589659  
      97A      0.594436    98A      0.595757    99A      0.600819  
     100A      0.614296   101A      0.642357   102A      0.646435  
     103A      0.661256   104A      0.670102   105A      0.672375  
     106A      0.678546   107A      0.685653   108A      0.689557  
     109A      0.693438   110A      0.696414   111A      0.698892  
     112A      0.708749   113A      0.719469   114A      0.732507  
     115A      0.737279   116A      0.743207   117A      0.744758  
     118A      0.752884   119A      0.753763   120A      0.764926  
     121A      0.775430   122A      0.800330   123A      0.810812  
     124A      0.818428   125A      0.838119   126A      0.847452  
     127A      0.859406   128A      0.859462   129A      0.872907  
     130A      0.878133   131A      0.888451   132A      0.896672  
     133A      0.902023   134A      0.908243   135A      0.908490  
     136A      0.923288   137A      0.935193   138A      0.937204  
     139A      0.971364   140A      0.982163   141A      0.987666  
     142A      1.000167   143A      1.028527   144A      1.045309  
     145A      1.082905   146A      1.099102   147A      1.109702  
     148A      1.126601   149A      1.140993   150A      1.148765  
     151A      1.163454   152A      1.208395   153A      1.225699  
     154A      1.245167   155A      1.270245   156A      1.309249  
     157A      1.358180   158A      1.383573   159A      1.391344  
     160A      1.440096   161A      1.454589   162A      1.480052  
     163A      1.480667   164A      1.502163   165A      1.536471  
     166A      1.542293   167A      1.557826   168A      1.569550  
     169A      1.583951   170A      1.589993   171A      1.599592  
     172A      1.605642   173A      1.621951   174A      1.659502  
     175A      1.676897   176A      1.681707   177A      1.686217  
     178A      1.708354   179A      1.717396   180A      1.752209  
     181A      1.773022   182A      1.792967   183A      1.826807  
     184A      1.835645   185A      1.853143   186A      1.877589  
     187A      1.916659   188A      1.931665   189A      1.944529  
     190A      1.952244   191A      1.960637   192A      1.974395  
     193A      2.054695   194A      2.060338   195A      2.065163  
     196A      2.088279   197A      2.092366   198A      2.114545  
     199A      2.118300   200A      2.170884   201A      2.201445  
     202A      2.203560   203A      2.209171   204A      2.229422  
     205A      2.263718   206A      2.269960   207A      2.277051  
     208A      2.290672   209A      2.304987   210A      2.308038  
     211A      2.332874   212A      2.359577   213A      2.365361  
     214A      2.404695   215A      2.424882   216A      2.438373  
     217A      2.457109   218A      2.513842   219A      2.525067  
     220A      2.561918   221A      2.617442   222A      2.629803  
     223A      2.631440   224A      2.680360   225A      2.714099  
     226A      2.728507   227A      2.745285   228A      2.790093  
     229A      2.813645   230A      2.844066   231A      2.846625  
     232A      2.848700   233A      2.905360   234A      2.968845  
     235A      2.982941   236A      3.019499   237A      3.075774  
     238A      3.120419   239A      3.139568   240A      3.140915  
     241A      3.143098   242A      3.226844   243A      3.245207  
     244A      3.272852   245A      3.367813   246A      3.401105  
     247A      3.410336   248A      3.634702   249A      3.666830  
     250A      3.865367   251A      4.200287   252A      4.306314  
     253A      4.628090   254A      4.978561   255A      5.017948  
     256A      5.020107   257A      5.132889   258A      5.147267  
     259A      5.386043   260A      5.589323   261A      5.969746  
     262A      6.442328   263A      6.987095   264A     18.511281  
     265A     33.569459  

    Final Occupation by Irrep:
              A 
    DOCC [    21 ]

  @DF-RHF Final Energy:  -246.72401339964628

   => Energetics <=

    Nuclear Repulsion Energy =            206.2843155171908052
    One-Electron Energy =                -741.1336851874755212
    Two-Electron Energy =                 288.1253562706383491
    Total Energy =                       -246.7240133996463101

Computation Completed


Properties will be evaluated at   0.000000,   0.000000,   0.000000 [a0]

Properties computed using the SCF density matrix

  Nuclear Dipole Moment: [e a0]
     X:   130.8910      Y:    11.1199      Z:    -0.0546

  Electronic Dipole Moment: [e a0]
     X:  -129.9773      Y:   -11.1510      Z:     0.0553

  Dipole Moment: [e a0]
     X:     0.9137      Y:    -0.0312      Z:     0.0007     Total:     0.9142

  Dipole Moment: [D]
     X:     2.3223      Y:    -0.0792      Z:     0.0018     Total:     2.3237


*** tstop() called on g2-node38.bme.utexas.edu at Thu Apr 23 17:20:53 2020
Module time:
	user time   =      33.70 seconds =       0.56 minutes
	system time =       1.18 seconds =       0.02 minutes
	total time  =          5 seconds =       0.08 minutes
Total time:
	user time   =     121.90 seconds =       2.03 minutes
	system time =       4.01 seconds =       0.07 minutes
	total time  =         19 seconds =       0.32 minutes
  Constructing Basis Sets for SAPT...

   => Loading Basis Set <=

    Name: (AUG-CC-PVDZ AUX)
    Role: RIFIT
    Keyword: DF_BASIS_SAPT
    atoms 1                         entry O          line   204 file /home/liuchw/anaconda3/envs/psi4env/share/psi4/basis/aug-cc-pvdz-ri.gbs 
    atoms 2, 4-6, 9, 11, 13, 15, 17 entry H          line    30 file /home/liuchw/anaconda3/envs/psi4env/share/psi4/basis/aug-cc-pvdz-ri.gbs 
    atoms 3, 8, 10, 12, 14, 16      entry C          line   112 file /home/liuchw/anaconda3/envs/psi4env/share/psi4/basis/aug-cc-pvdz-ri.gbs 
    atoms 7                         entry N          line   158 file /home/liuchw/anaconda3/envs/psi4env/share/psi4/basis/aug-cc-pvdz-ri.gbs 


  //>>>>>>>>>>>>>>>>>>>>>>>>>>>>>>>>>>>//
  //               SAPT2+              //
  //<<<<<<<<<<<<<<<<<<<<<<<<<<<<<<<<<<<//


*** tstart() called on g2-node38.bme.utexas.edu
*** at Thu Apr 23 17:20:53 2020

        SAPT2+  
    Ed Hohenstein
     6 June 2009

      Orbital Information
  --------------------------
    NSO        =       265
    NMO        =       265
    NRI        =       783
    NOCC A     =         9
    NOCC B     =        21
    FOCC A     =         2
    FOCC B     =         6
    NVIR A     =       256
    NVIR B     =       244

    Estimated memory usage: 1104.2 MB

    Natural Orbital Cutoff:   1.000E-06
    Disp(T3) Truncation:            Yes
    CCD (vv|vv) Truncation:         Yes
    MBPT T2 Truncation:             Yes

    Monomer A: 186 virtual orbitals dropped
    Monomer B: 90 virtual orbitals dropped

    Elst10,r            =    -0.003569898075 [Eh]
    Exch10 (S^2)        =     0.000330011008 [Eh]
    Exch10              =     0.000330125107 [Eh]
    Ind20,r (A<-B)      =    -0.000144130149 [Eh]
    Ind20,r (B<-A)      =    -0.000245140276 [Eh]
    Ind20,r             =    -0.000389270426 [Eh]
    Exch-Ind20,r (A<-B) =     0.000005792028 [Eh]
    Exch-Ind20,r (B<-A) =     0.000068210863 [Eh]
    Exch-Ind20,r        =     0.000074002892 [Eh]
    Disp20              =    -0.000971675120 [Eh]
    Disp20 (NO)         =    -0.000914412308 [Eh]
    Exch-Disp20         =     0.000035391631 [Eh]
    Elst12,r            =     0.000043123173 [Eh]
    Exch11              =    -0.000004372920 [Eh]
    Exch12              =     0.000135666817 [Eh]
    Ind22               =    -0.000049272058 [Eh]
    Disp21              =     0.000131932634 [Eh]
    Disp22 (SDQ)        =    -0.000046710078 [Eh]

    (i =   1 of  15)          2 seconds
    (i =   2 of  15)          4 seconds
    (i =   3 of  15)          6 seconds
    (i =   4 of  15)          7 seconds
    (i =   5 of  15)          9 seconds
    (i =   6 of  15)         11 seconds
    (i =   7 of  15)         13 seconds
    (i =   8 of  15)         15 seconds
    (i =   9 of  15)         16 seconds
    (i =  10 of  15)         18 seconds
    (i =  11 of  15)         20 seconds
    (i =  12 of  15)         21 seconds
    (i =  13 of  15)         23 seconds
    (i =  14 of  15)         24 seconds
    (i =  15 of  15)         26 seconds

    Disp220 (T)         =    -0.000084100713 [Eh]

    (i =   1 of   7)         12 seconds
    (i =   2 of   7)         25 seconds
    (i =   3 of   7)         37 seconds
    (i =   4 of   7)         49 seconds
    (i =   5 of   7)         61 seconds
    (i =   6 of   7)         73 seconds
    (i =   7 of   7)         84 seconds

    Disp202 (T)         =    -0.000101298301 [Eh]

    Disp22 (T)          =    -0.000185399014 [Eh]

    Est. Disp220 (T)    =    -0.000089367313 [Eh]
    Est. Disp202 (T)    =    -0.000107641857 [Eh]

    Est. Disp22 (T)     =    -0.000197009170 [Eh]

    SAPT Results 
  --------------------------------------------------------------------------------------------------------
    Electrostatics                 -3.52677490 [mEh]      -2.21308466 [kcal/mol]      -9.25954623 [kJ/mol]
      Elst10,r                     -3.56989807 [mEh]      -2.24014486 [kcal/mol]      -9.37276610 [kJ/mol]
      Elst12,r                      0.04312317 [mEh]       0.02706020 [kcal/mol]       0.11321988 [kJ/mol]

    Exchange                        0.46141900 [mEh]       0.28954480 [kcal/mol]       1.21145543 [kJ/mol]
      Exch10                        0.33012511 [mEh]       0.20715663 [kcal/mol]       0.86674335 [kJ/mol]
      Exch10(S^2)                   0.33001101 [mEh]       0.20708503 [kcal/mol]       0.86644378 [kJ/mol]
      Exch11(S^2)                  -0.00437292 [mEh]      -0.00274405 [kcal/mol]      -0.01148110 [kJ/mol]
      Exch12(S^2)                   0.13566682 [mEh]       0.08513221 [kcal/mol]       0.35619318 [kJ/mol]

    Induction                      -0.41439679 [mEh]      -0.26003791 [kcal/mol]      -1.08799862 [kJ/mol]
      Ind20,r                      -0.38927043 [mEh]      -0.24427088 [kcal/mol]      -1.02202936 [kJ/mol]
      Ind22                        -0.04927206 [mEh]      -0.03091868 [kcal/mol]      -0.12936377 [kJ/mol]
      Exch-Ind20,r                  0.07400289 [mEh]       0.04643752 [kcal/mol]       0.19429457 [kJ/mol]
      Exch-Ind22                    0.00936695 [mEh]       0.00587785 [kcal/mol]       0.02459291 [kJ/mol]
      delta HF,r (2)               -0.05922414 [mEh]      -0.03716371 [kcal/mol]      -0.15549296 [kJ/mol]

    Dispersion                     -1.04807010 [mEh]      -0.65767392 [kcal/mol]      -2.75170768 [kJ/mol]
      Disp20                       -0.97167512 [mEh]      -0.60973534 [kcal/mol]      -2.55113268 [kJ/mol]
      Disp21                        0.13193263 [mEh]       0.08278898 [kcal/mol]       0.34638908 [kJ/mol]
      Disp22 (SDQ)                 -0.04671008 [mEh]      -0.02931102 [kcal/mol]      -0.12263729 [kJ/mol]
      Disp22 (T)                   -0.18539901 [mEh]      -0.11633964 [kcal/mol]      -0.48676504 [kJ/mol]
      Est. Disp22 (T)              -0.19700917 [mEh]      -0.12362512 [kcal/mol]      -0.51724750 [kJ/mol]
      Exch-Disp20                   0.03539163 [mEh]       0.02220858 [kcal/mol]       0.09292072 [kJ/mol]

  Total HF                         -3.61426464 [mEh]      -2.26798530 [kcal/mol]      -9.48925051 [kJ/mol]
  Total SAPT0                      -4.55054813 [mEh]      -2.85551206 [kcal/mol]     -11.94746247 [kJ/mol]
  Total SAPT2                      -4.41603617 [mEh]      -2.77110454 [kcal/mol]     -11.59430138 [kJ/mol]
  Total SAPT2+                     -4.52782279 [mEh]      -2.84125170 [kcal/mol]     -11.88779709 [kJ/mol]

  Special recipe for scaled SAPT0 (see Manual):
    Electrostatics sSAPT0          -3.56989807 [mEh]      -2.24014486 [kcal/mol]      -9.37276610 [kJ/mol]
    Exchange sSAPT0                 0.33012511 [mEh]       0.20715663 [kcal/mol]       0.86674335 [kJ/mol]
    Induction sSAPT0               -0.37441489 [mEh]      -0.23494889 [kcal/mol]      -0.98302616 [kJ/mol]
    Dispersion sSAPT0              -0.93624677 [mEh]      -0.58750372 [kcal/mol]      -2.45811555 [kJ/mol]
  Total sSAPT0                     -4.55043463 [mEh]      -2.85544084 [kcal/mol]     -11.94716446 [kJ/mol]
  --------------------------------------------------------------------------------------------------------

*** tstop() called on g2-node38.bme.utexas.edu at Thu Apr 23 17:24:32 2020
Module time:
	user time   =    1431.19 seconds =      23.85 minutes
	system time =      40.22 seconds =       0.67 minutes
	total time  =        219 seconds =       3.65 minutes
Total time:
	user time   =    1554.24 seconds =      25.90 minutes
	system time =      44.28 seconds =       0.74 minutes
	total time  =        238 seconds =       3.97 minutes

    Psi4 stopped on: Thursday, 23 April 2020 05:24PM
    Psi4 wall time for execution: 0:03:57.77

*** Psi4 exiting successfully. Buy a developer a beer!
