    -----------------------------------------------------------------------
          PSI4: An Open-Source Ab Initio Electronic Structure Package
                              PSI 4.0.0-beta4 Driver

    J. M. Turney, A. C. Simmonett, R. M. Parrish, E. G. Hohenstein,
    F. A. Evangelista, J. T. Fermann, B. J. Mintz, L. A. Burns, J. J. Wilke,
    M. L. Abrams, N. J. Russ, M. L. Leininger, C. L. Janssen, E. T. Seidl,
    W. D. Allen, H. F. Schaefer, R. A. King, E. F. Valeev, C. D. Sherrill,
    and T. D. Crawford, WIREs Comput. Mol. Sci., (2011) (doi: 10.1002/wcms.93)

                         Additional Contributions by
    A. E. DePrince, M. Saitow, U. Bozkaya, A. Yu. Sokolov
    -----------------------------------------------------------------------

    Process ID:    463
    PSI4DATADIR: /home/xzhu216/psi4/psi4-install/share/psi

    Using LocalCommunicator (Number of processes = 1)

    Memory level set to 256.000 MB

  ==> Input File <==

--------------------------------------------------------------------------
#psi4
#
memory 7 gb

molecule AcOH_AcOH {
0 1
    C    -1.061709204     1.297140572     0.292060003
    O    -0.358161116     2.270458613     0.531812668
    O    -0.589303516     0.094917758     0.003788813
    H     0.404435659     0.127722621     0.018411838
    C    -2.558427798     1.342549823     0.296257320
    H    -2.895997978     2.347464002     0.518316340
    H    -2.932889278     1.022390451    -0.672995551
    H    -2.937211960     0.644910433     1.039557084
--
0 1
    C     2.292111609     1.106201554     0.267413771
    O     1.588493244     0.132887066     0.027626169
    O     1.819685275     2.308636942     0.555192242
    H     0.825896735     2.275738708     0.540791738
    C     3.788824057     1.060298808     0.265449376
    H     4.126403621     0.058979615     0.027923881
    H     4.170322602     1.770651747    -0.464019522
    H     4.160340368     1.362993325     1.241504737
units angstrom
no_reorient  #important for SAPT in psi4, default
symmetry c1  #important for SAPT in psi4, default
}

set {
basis aug-cc-pVDZ
scf_type DF
freeze_core True
}
energy('sapt2+')
--------------------------------------------------------------------------

  Memory set to   7.000 GiB by Python script.

  //>>>>>>>>>>>>>>>>>>>>>>>>>>>>>>>>>>>//
  //              Dimer HF             //
  //<<<<<<<<<<<<<<<<<<<<<<<<<<<<<<<<<<<//


  No DF_BASIS_SCF auxiliary basis selected, defaulting to aug-cc-pvdz-jkfit


*** tstart() called on node119.bme.utexas.edu
*** at Fri Feb 14 14:56:40 2014


         ---------------------------------------------------------
                                   SCF
            by Justin Turney, Rob Parrish, and Andy Simmonett
                              RHF Reference
                        4 Threads,   7000 MiB Core
         ---------------------------------------------------------

  ==> Geometry <==

    Molecular point group: c1
    Full point group: C1

    Geometry (in Angstrom), charge = 0, multiplicity = 1:

       Center              X                  Y                   Z       
    ------------   -----------------  -----------------  -----------------
           C         -1.676895075789     0.095511180237     0.012072858837
           O         -0.973346987789     1.068829221237     0.251825523837
           O         -1.204489387789    -1.106711633763    -0.276198331163
           H         -0.210750212789    -1.073906770763    -0.261575306163
           C         -3.173613669789     0.140920431237     0.016270175837
           H         -3.511183849789     1.145834610237     0.238329195837
           H         -3.548075149789    -0.179238940763    -0.952982695163
           H         -3.552397831789    -0.556718958763     0.759569939837
           C          1.676925737211    -0.095427837763    -0.012573373163
           O          0.973307372211    -1.068742325763    -0.252360975163
           O          1.204499403211     1.107007550237     0.275205097837
           H          0.210710863211     1.074109316237     0.260804593837
           C          3.173638185211    -0.141330583763    -0.014537768163
           H          3.511217749211    -1.142649776763    -0.252063263163
           H          3.555136730211     0.569022355237    -0.744006666163
           H          3.545154496211     0.161363933237     0.961517592837

  Running in c1 symmetry.

  Nuclear repulsion =  402.801267857793960

  Charge       = 0
  Multiplicity = 1
  Electrons    = 64
  Nalpha       = 32
  Nbeta        = 32

  ==> Algorithm <==

  SCF Algorithm Type is DF.
  DIIS enabled.
  MOM disabled.
  Fractional occupation disabled.
  Guess Type is CORE.
  Energy threshold   = 1.00e-08
  Density threshold  = 1.00e-08
  Integral threshold = 0.00e+00

  ==> Primary Basis <==

  Basis Set: AUG-CC-PVDZ
    Number of shells: 112
    Number of basis function: 256
    Number of Cartesian functions: 272
    Spherical Harmonics?: true
    Max angular momentum: 2

  ==> Pre-Iterations <==

   -------------------------------------------------------
    Irrep   Nso     Nmo     Nalpha   Nbeta   Ndocc  Nsocc
   -------------------------------------------------------
     A        256     256       0       0       0       0
   -------------------------------------------------------
    Total     256     256      32      32      32       0
   -------------------------------------------------------

 OEINTS: Wrapper to libmints.
   by Justin Turney

   Calculation information:
      Number of atoms:                  16
      Number of AO shells:             112
      Number of SO shells:             112
      Number of primitives:            256
      Number of atomic orbitals:       272
      Number of basis functions:       256

      Number of irreps:                  1
      Number of functions per irrep: [ 256 ]

      Overlap, kinetic, potential, dipole, and quadrupole integrals
        stored in file 35.

  ==> Integral Setup <==

  ==> DFJK: Density-Fitted J/K Matrices <==

    J tasked:                  Yes
    K tasked:                  Yes
    wK tasked:                  No
    OpenMP threads:              4
    Integrals threads:           4
    Memory (MB):              5006
    Algorithm:                Core
    Integral Cache:           SAVE
    Schwarz Cutoff:          0E+00
    Fitting Condition:       1E-12

   => Auxiliary Basis Set <=

  Basis Set: aug-cc-pvdz-jkfit
    Number of shells: 320
    Number of basis function: 944
    Number of Cartesian functions: 1088
    Spherical Harmonics?: true
    Max angular momentum: 3

  Minimum eigenvalue in the overlap matrix is 9.5881033602E-06.
  Using Symmetric Orthogonalization.
  SCF Guess: Core (One-Electron) Hamiltonian.

  Guess energy:  -370.45131426354760

  ==> Iterations <==

                        Total Energy        Delta E     RMS |[F,P]|

   @RHF iter   1:  -376.27019678405179   -3.76270e+02   3.52661e-02 
   @RHF iter   2:  -278.35508374261428    9.79151e+01   3.43338e-02 DIIS
   @RHF iter   3:  -404.50753450790955   -1.26152e+02   2.82328e-02 DIIS
   @RHF iter   4:  -453.01294698698291   -4.85054e+01   7.65806e-03 DIIS
   @RHF iter   5:  -455.43781634244590   -2.42487e+00   2.32137e-03 DIIS
   @RHF iter   6:  -455.62679196295846   -1.88976e-01   8.37988e-04 DIIS
   @RHF iter   7:  -455.65699369760193   -3.02017e-02   3.30636e-04 DIIS
   @RHF iter   8:  -455.66153116203986   -4.53746e-03   7.83391e-05 DIIS
   @RHF iter   9:  -455.66183785773148   -3.06696e-04   2.79511e-05 DIIS
   @RHF iter  10:  -455.66186702092739   -2.91632e-05   1.50119e-05 DIIS
   @RHF iter  11:  -455.66187537100041   -8.35007e-06   4.47872e-06 DIIS
   @RHF iter  12:  -455.66187647940103   -1.10840e-06   1.11579e-06 DIIS
   @RHF iter  13:  -455.66187653707618   -5.76752e-08   2.00357e-07 DIIS
   @RHF iter  14:  -455.66187654036833   -3.29214e-09   6.44786e-08 DIIS
   @RHF iter  15:  -455.66187654077930   -4.10978e-10   2.30136e-08 DIIS
   @RHF iter  16:  -455.66187654084263   -6.33236e-11   7.42248e-09 DIIS

  ==> Post-Iterations <==

	Orbital Energies (a.u.)
	-----------------------

	Doubly Occupied:                                                      

	   1A    -20.573332     2A    -20.573323     3A    -20.569564  
	   4A    -20.569557     5A    -11.410003     6A    -11.409988  
	   7A    -11.249946     8A    -11.249941     9A     -1.501102  
	  10A     -1.452363    11A     -1.402764    12A     -1.346225  
	  13A     -1.049683    14A     -1.022384    15A     -0.878852  
	  16A     -0.851211    17A     -0.768850    18A     -0.707505  
	  19A     -0.669815    20A     -0.668244    21A     -0.661870  
	  22A     -0.642426    23A     -0.596913    24A     -0.581478  
	  25A     -0.566626    26A     -0.562942    27A     -0.552417  
	  28A     -0.549576    29A     -0.505891    30A     -0.470783  
	  31A     -0.468874    32A     -0.444901  

	Virtual:                                                              

	  33A      0.035226    34A      0.039180    35A      0.054956  
	  36A      0.055753    37A      0.062722    38A      0.063247  
	  39A      0.066345    40A      0.092976    41A      0.099109  
	  42A      0.116401    43A      0.121289    44A      0.142435  
	  45A      0.144977    46A      0.146806    47A      0.149994  
	  48A      0.157179    49A      0.158041    50A      0.159803  
	  51A      0.164065    52A      0.168366    53A      0.179425  
	  54A      0.187422    55A      0.195010    56A      0.223922  
	  57A      0.227794    58A      0.229831    59A      0.247030  
	  60A      0.258636    61A      0.260853    62A      0.268223  
	  63A      0.272263    64A      0.290488    65A      0.294229  
	  66A      0.298224    67A      0.314750    68A      0.319190  
	  69A      0.330217    70A      0.349191    71A      0.354908  
	  72A      0.363616    73A      0.364396    74A      0.388703  
	  75A      0.401557    76A      0.402905    77A      0.408757  
	  78A      0.414230    79A      0.423608    80A      0.427418  
	  81A      0.435923    82A      0.446037    83A      0.446143  
	  84A      0.448929    85A      0.477593    86A      0.480931  
	  87A      0.488758    88A      0.495856    89A      0.502255  
	  90A      0.516145    91A      0.530994    92A      0.544561  
	  93A      0.545101    94A      0.568122    95A      0.572520  
	  96A      0.583228    97A      0.599897    98A      0.603717  
	  99A      0.613844   100A      0.614813   101A      0.620559  
	 102A      0.631647   103A      0.644332   104A      0.647154  
	 105A      0.648415   106A      0.657888   107A      0.663875  
	 108A      0.677167   109A      0.683944   110A      0.692458  
	 111A      0.694640   112A      0.730424   113A      0.736026  
	 114A      0.738479   115A      0.739945   116A      0.744350  
	 117A      0.754670   118A      0.755415   119A      0.763267  
	 120A      0.789381   121A      0.790578   122A      0.808912  
	 123A      0.830744   124A      0.832652   125A      0.869136  
	 126A      0.904608   127A      0.928522   128A      0.936000  
	 129A      0.936067   130A      0.966277   131A      0.970710  
	 132A      1.015400   133A      1.018830   134A      1.032162  
	 135A      1.032991   136A      1.050177   137A      1.062496  
	 138A      1.070111   139A      1.081387   140A      1.088833  
	 141A      1.106783   142A      1.121394   143A      1.123898  
	 144A      1.127313   145A      1.161903   146A      1.170988  
	 147A      1.190718   148A      1.207572   149A      1.232031  
	 150A      1.294147   151A      1.304256   152A      1.315868  
	 153A      1.320687   154A      1.328724   155A      1.337683  
	 156A      1.362156   157A      1.395515   158A      1.409577  
	 159A      1.426562   160A      1.470107   161A      1.507857  
	 162A      1.510857   163A      1.584078   164A      1.592432  
	 165A      1.605737   166A      1.627171   167A      1.657754  
	 168A      1.672297   169A      1.677462   170A      1.683866  
	 171A      1.712458   172A      1.730378   173A      1.770749  
	 174A      1.777864   175A      1.778079   176A      1.793305  
	 177A      1.816869   178A      1.834446   179A      1.852851  
	 180A      1.861449   181A      1.873932   182A      1.879797  
	 183A      1.888935   184A      1.899593   185A      1.934475  
	 186A      1.938204   187A      1.988308   188A      2.082495  
	 189A      2.089636   190A      2.122725   191A      2.137039  
	 192A      2.138091   193A      2.186755   194A      2.198099  
	 195A      2.200721   196A      2.224077   197A      2.228456  
	 198A      2.258490   199A      2.276795   200A      2.303564  
	 201A      2.322613   202A      2.329375   203A      2.360153  
	 204A      2.365956   205A      2.424772   206A      2.446357  
	 207A      2.460722   208A      2.497379   209A      2.515224  
	 210A      2.520767   211A      2.525709   212A      2.585345  
	 213A      2.614829   214A      2.654693   215A      2.674835  
	 216A      2.685123   217A      2.733789   218A      2.742724  
	 219A      2.845098   220A      2.876646   221A      2.889001  
	 222A      2.966675   223A      2.970103   224A      2.982278  
	 225A      3.011324   226A      3.025130   227A      3.044761  
	 228A      3.089434   229A      3.127686   230A      3.142941  
	 231A      3.204421   232A      3.274187   233A      3.362323  
	 234A      3.410871   235A      3.449581   236A      3.505557  
	 237A      3.675622   238A      3.727410   239A      3.756710  
	 240A      3.759420   241A      3.798361   242A      3.800672  
	 243A      3.842135   244A      3.852084   245A      3.877476  
	 246A      3.891068   247A      3.907402   248A      3.984474  
	 249A      4.056342   250A      4.065181   251A      4.187445  
	 252A      4.259987   253A      4.288396   254A      4.333378  
	 255A      4.921816   256A      5.006410  

	Final Occupation by Irrep:
	          A 
	DOCC [    32 ]

  Energy converged.

  @RHF Final Energy:  -455.66187654084263

   => Energetics <=

    Nuclear Repulsion Energy =            402.8012678577939596
    One-Electron Energy =               -1423.8675888125649180
    Two-Electron Energy =                 565.4044444139295820
    DFT Exchange-Correlation Energy =       0.0000000000000000
    Empirical Dispersion Energy =           0.0000000000000000
    Total Energy =                       -455.6618765408413765



Properties will be evaluated at   0.000000,   0.000000,   0.000000 Bohr
  ==> Properties <==


Properties computed using the SCF density density matrix
  Nuclear Dipole Moment: (a.u.)
     X:    -0.0002      Y:    -0.0020      Z:     0.0090

  Electronic Dipole Moment: (a.u.)
     X:     0.0003      Y:     0.0015      Z:    -0.0073

  Dipole Moment: (a.u.)
     X:     0.0001      Y:    -0.0005      Z:     0.0017     Total:     0.0018

  Dipole Moment: (Debye)
     X:     0.0002      Y:    -0.0013      Z:     0.0043     Total:     0.0045


  Saving occupied orbitals to File 180.

  Saving SAPT 2-DIMER file.

*** tstop() called on node119.bme.utexas.edu at Fri Feb 14 14:57:16 2014
Module time:
	user time   =     133.91 seconds =       2.23 minutes
	system time =       1.72 seconds =       0.03 minutes
	total time  =         36 seconds =       0.60 minutes
Total time:
	user time   =     133.91 seconds =       2.23 minutes
	system time =       1.72 seconds =       0.03 minutes
	total time  =         36 seconds =       0.60 minutes

  //>>>>>>>>>>>>>>>>>>>>>>>>>>>>>>>>>>>//
  //            Monomer A HF           //
  //<<<<<<<<<<<<<<<<<<<<<<<<<<<<<<<<<<<//


  No DF_BASIS_SCF auxiliary basis selected, defaulting to aug-cc-pvdz-jkfit


*** tstart() called on node119.bme.utexas.edu
*** at Fri Feb 14 14:57:16 2014


         ---------------------------------------------------------
                                   SCF
            by Justin Turney, Rob Parrish, and Andy Simmonett
                              RHF Reference
                        4 Threads,   7000 MiB Core
         ---------------------------------------------------------

  ==> Geometry <==

    Molecular point group: c1
    Full point group: C1

    Geometry (in Angstrom), charge = 0, multiplicity = 1:

       Center              X                  Y                   Z       
    ------------   -----------------  -----------------  -----------------
           C         -1.676895075789     0.095511180237     0.012072858837
           O         -0.973346987789     1.068829221237     0.251825523837
           O         -1.204489387789    -1.106711633763    -0.276198331163
           H         -0.210750212789    -1.073906770763    -0.261575306163
           C         -3.173613669789     0.140920431237     0.016270175837
           H         -3.511183849789     1.145834610237     0.238329195837
           H         -3.548075149789    -0.179238940763    -0.952982695163
           H         -3.552397831789    -0.556718958763     0.759569939837
           C(Gh)      1.676925737211    -0.095427837763    -0.012573373163
           O(Gh)      0.973307372211    -1.068742325763    -0.252360975163
           O(Gh)      1.204499403211     1.107007550237     0.275205097837
           H(Gh)      0.210710863211     1.074109316237     0.260804593837
           C(Gh)      3.173638185211    -0.141330583763    -0.014537768163
           H(Gh)      3.511217749211    -1.142649776763    -0.252063263163
           H(Gh)      3.555136730211     0.569022355237    -0.744006666163
           H(Gh)      3.545154496211     0.161363933237     0.961517592837

  Running in c1 symmetry.

  Nuclear repulsion =  121.353542000831126

  Charge       = 0
  Multiplicity = 1
  Electrons    = 32
  Nalpha       = 16
  Nbeta        = 16

  ==> Algorithm <==

  SCF Algorithm Type is DF.
  DIIS enabled.
  MOM disabled.
  Fractional occupation disabled.
  Guess Type is CORE.
  Energy threshold   = 1.00e-08
  Density threshold  = 1.00e-08
  Integral threshold = 0.00e+00

  ==> Primary Basis <==

  Basis Set: AUG-CC-PVDZ
    Number of shells: 112
    Number of basis function: 256
    Number of Cartesian functions: 272
    Spherical Harmonics?: true
    Max angular momentum: 2

  ==> Pre-Iterations <==

   -------------------------------------------------------
    Irrep   Nso     Nmo     Nalpha   Nbeta   Ndocc  Nsocc
   -------------------------------------------------------
     A        256     256       0       0       0       0
   -------------------------------------------------------
    Total     256     256      16      16      16       0
   -------------------------------------------------------

 OEINTS: Wrapper to libmints.
   by Justin Turney

   Calculation information:
      Number of atoms:                  16
      Number of AO shells:             112
      Number of SO shells:             112
      Number of primitives:            256
      Number of atomic orbitals:       272
      Number of basis functions:       256

      Number of irreps:                  1
      Number of functions per irrep: [ 256 ]

      Overlap, kinetic, potential, dipole, and quadrupole integrals
        stored in file 35.

  ==> Integral Setup <==

  ==> DFJK: Density-Fitted J/K Matrices <==

    J tasked:                  Yes
    K tasked:                  Yes
    wK tasked:                  No
    OpenMP threads:              4
    Integrals threads:           4
    Memory (MB):              5006
    Algorithm:                Core
    Integral Cache:           LOAD
    Schwarz Cutoff:          0E+00
    Fitting Condition:       1E-12

   => Auxiliary Basis Set <=

  Basis Set: aug-cc-pvdz-jkfit
    Number of shells: 320
    Number of basis function: 944
    Number of Cartesian functions: 1088
    Spherical Harmonics?: true
    Max angular momentum: 3

  Minimum eigenvalue in the overlap matrix is 9.5881033602E-06.
  Using Symmetric Orthogonalization.
  SCF Guess: Core (One-Electron) Hamiltonian.

  Guess energy:  -179.20599254231058

  ==> Iterations <==

                        Total Energy        Delta E     RMS |[F,P]|

   @RHF iter   1:  -189.54665295348849   -1.89547e+02   2.46547e-02 
   @RHF iter   2:  -149.49912586193409    4.00475e+01   2.41569e-02 DIIS
   @RHF iter   3:  -210.49301810801256   -6.09939e+01   1.51459e-02 DIIS
   @RHF iter   4:  -226.31160974470998   -1.58186e+01   6.84327e-03 DIIS
   @RHF iter   5:  -227.71398896647224   -1.40238e+00   2.13708e-03 DIIS
   @RHF iter   6:  -227.82391366396450   -1.09925e-01   8.20981e-04 DIIS
   @RHF iter   7:  -227.84385193053009   -1.99383e-02   2.61623e-04 DIIS
   @RHF iter   8:  -227.84679948881660   -2.94756e-03   9.82648e-05 DIIS
   @RHF iter   9:  -227.84734358027646   -5.44091e-04   3.25948e-05 DIIS
   @RHF iter  10:  -227.84742307761849   -7.94973e-05   9.82966e-06 DIIS
   @RHF iter  11:  -227.84743222131647   -9.14370e-06   3.27388e-06 DIIS
   @RHF iter  12:  -227.84743312271564   -9.01399e-07   1.08563e-06 DIIS
   @RHF iter  13:  -227.84743323967677   -1.16961e-07   2.54784e-07 DIIS
   @RHF iter  14:  -227.84743324705761   -7.38083e-09   4.85828e-08 DIIS
   @RHF iter  15:  -227.84743324728362   -2.26009e-10   1.00637e-08 DIIS
   @RHF iter  16:  -227.84743324729055   -6.93490e-12   2.08949e-09 DIIS

  ==> Post-Iterations <==

	Orbital Energies (a.u.)
	-----------------------

	Doubly Occupied:                                                      

	   1A    -20.633394     2A    -20.556255     3A    -11.398159  
	   4A    -11.250656     5A     -1.475859     6A     -1.359028  
	   7A     -1.030120     8A     -0.835661     9A     -0.706956  
	  10A     -0.683073    11A     -0.655835    12A     -0.579885  
	  13A     -0.572709    14A     -0.563915    15A     -0.477123  
	  16A     -0.451516  

	Virtual:                                                              

	  17A      0.024875    18A      0.036513    19A      0.049061  
	  20A      0.052959    21A      0.061830    22A      0.062800  
	  23A      0.063550    24A      0.089377    25A      0.095162  
	  26A      0.102291    27A      0.112820    28A      0.120346  
	  29A      0.139109    30A      0.141343    31A      0.144732  
	  32A      0.154920    33A      0.155235    34A      0.158671  
	  35A      0.159510    36A      0.167165    37A      0.174862  
	  38A      0.187840    39A      0.195870    40A      0.208629  
	  41A      0.223262    42A      0.235904    43A      0.245067  
	  44A      0.248977    45A      0.252046    46A      0.258939  
	  47A      0.266768    48A      0.269355    49A      0.290370  
	  50A      0.294848    51A      0.314950    52A      0.315859  
	  53A      0.318834    54A      0.325873    55A      0.332163  
	  56A      0.362580    57A      0.367856    58A      0.372612  
	  59A      0.386805    60A      0.402037    61A      0.413730  
	  62A      0.414856    63A      0.418760    64A      0.420265  
	  65A      0.449778    66A      0.456064    67A      0.460287  
	  68A      0.466317    69A      0.473760    70A      0.474669  
	  71A      0.502296    72A      0.503493    73A      0.508925  
	  74A      0.516264    75A      0.528671    76A      0.541012  
	  77A      0.549356    78A      0.574269    79A      0.582165  
	  80A      0.591324    81A      0.594680    82A      0.599926  
	  83A      0.608337    84A      0.612367    85A      0.627285  
	  86A      0.631161    87A      0.651627    88A      0.655036  
	  89A      0.662257    90A      0.678043    91A      0.679414  
	  92A      0.680174    93A      0.702286    94A      0.707173  
	  95A      0.711866    96A      0.724216    97A      0.747836  
	  98A      0.756074    99A      0.761675   100A      0.775589  
	 101A      0.778459   102A      0.790221   103A      0.802454  
	 104A      0.811508   105A      0.832772   106A      0.842796  
	 107A      0.856564   108A      0.861521   109A      0.876043  
	 110A      0.910861   111A      0.916354   112A      0.916623  
	 113A      0.944804   114A      0.965150   115A      0.974375  
	 116A      0.992164   117A      1.010855   118A      1.018529  
	 119A      1.056182   120A      1.066432   121A      1.083995  
	 122A      1.090033   123A      1.100233   124A      1.116939  
	 125A      1.121209   126A      1.144476   127A      1.159361  
	 128A      1.161962   129A      1.183558   130A      1.215756  
	 131A      1.251869   132A      1.262516   133A      1.265522  
	 134A      1.314474   135A      1.337665   136A      1.338783  
	 137A      1.384266   138A      1.390255   139A      1.392887  
	 140A      1.440315   141A      1.442607   142A      1.457542  
	 143A      1.478866   144A      1.509843   145A      1.523359  
	 146A      1.545829   147A      1.595401   148A      1.608364  
	 149A      1.625754   150A      1.641661   151A      1.659200  
	 152A      1.670460   153A      1.686262   154A      1.699735  
	 155A      1.743656   156A      1.761797   157A      1.770496  
	 158A      1.785574   159A      1.828764   160A      1.851692  
	 161A      1.862278   162A      1.876184   163A      1.886055  
	 164A      1.924719   165A      1.946624   166A      1.973010  
	 167A      2.046605   168A      2.083336   169A      2.105302  
	 170A      2.128977   171A      2.154526   172A      2.207598  
	 173A      2.213740   174A      2.253098   175A      2.264399  
	 176A      2.268073   177A      2.281695   178A      2.302788  
	 179A      2.321177   180A      2.331954   181A      2.345043  
	 182A      2.370678   183A      2.399705   184A      2.410232  
	 185A      2.430886   186A      2.461216   187A      2.512485  
	 188A      2.514985   189A      2.550998   190A      2.608912  
	 191A      2.645390   192A      2.665005   193A      2.696431  
	 194A      2.764303   195A      2.780911   196A      2.791365  
	 197A      2.834691   198A      2.867262   199A      2.881276  
	 200A      2.888519   201A      2.925240   202A      2.978375  
	 203A      2.993245   204A      3.035751   205A      3.042656  
	 206A      3.144003   207A      3.158102   208A      3.172076  
	 209A      3.250997   210A      3.340727   211A      3.365494  
	 212A      3.389724   213A      3.402812   214A      3.470422  
	 215A      3.517272   216A      3.556560   217A      3.610324  
	 218A      3.692379   219A      3.786814   220A      3.793532  
	 221A      3.812413   222A      3.887981   223A      3.912349  
	 224A      3.916540   225A      4.034440   226A      4.081754  
	 227A      4.146976   228A      4.256753   229A      4.361054  
	 230A      4.446503   231A      4.510046   232A      4.710460  
	 233A      4.826247   234A      4.872417   235A      4.917435  
	 236A      5.011253   237A      5.029748   238A      5.037933  
	 239A      5.107902   240A      5.163061   241A      5.187303  
	 242A      5.237034   243A      5.637992   244A      5.725472  
	 245A      5.868498   246A      5.884179   247A      6.055542  
	 248A      6.080172   249A      6.472844   250A      6.798157  
	 251A      7.082564   252A      7.580201   253A     18.385076  
	 254A     19.079096   255A     33.493398   256A     33.655613  

	Final Occupation by Irrep:
	          A 
	DOCC [    16 ]

  Energy converged.

  @RHF Final Energy:  -227.84743324729055

   => Energetics <=

    Nuclear Repulsion Energy =            121.3535420008311263
    One-Electron Energy =                -551.9416615361978984
    Two-Electron Energy =                 202.7406862880758354
    DFT Exchange-Correlation Energy =       0.0000000000000000
    Empirical Dispersion Energy =           0.0000000000000000
    Total Energy =                       -227.8474332472909509



Properties will be evaluated at   0.000000,   0.000000,   0.000000 Bohr
  ==> Properties <==


Properties computed using the SCF density density matrix
  Nuclear Dipole Moment: (a.u.)
     X:  -108.3723      Y:     0.8532      Z:    -0.4565

  Electronic Dipole Moment: (a.u.)
     X:   107.9392      Y:    -1.5901      Z:     0.2777

  Dipole Moment: (a.u.)
     X:    -0.4331      Y:    -0.7368      Z:    -0.1789     Total:     0.8732

  Dipole Moment: (Debye)
     X:    -1.1008      Y:    -1.8729      Z:    -0.4546     Total:     2.2195


  Saving occupied orbitals to File 180.

  Saving SAPT 2-MONOMER_A file.

*** tstop() called on node119.bme.utexas.edu at Fri Feb 14 14:57:44 2014
Module time:
	user time   =     105.31 seconds =       1.76 minutes
	system time =       0.59 seconds =       0.01 minutes
	total time  =         28 seconds =       0.47 minutes
Total time:
	user time   =     239.24 seconds =       3.99 minutes
	system time =       2.31 seconds =       0.04 minutes
	total time  =         64 seconds =       1.07 minutes

  //>>>>>>>>>>>>>>>>>>>>>>>>>>>>>>>>>>>//
  //            Monomer B HF           //
  //<<<<<<<<<<<<<<<<<<<<<<<<<<<<<<<<<<<//


  No DF_BASIS_SCF auxiliary basis selected, defaulting to aug-cc-pvdz-jkfit


*** tstart() called on node119.bme.utexas.edu
*** at Fri Feb 14 14:57:44 2014


         ---------------------------------------------------------
                                   SCF
            by Justin Turney, Rob Parrish, and Andy Simmonett
                              RHF Reference
                        4 Threads,   7000 MiB Core
         ---------------------------------------------------------

  ==> Geometry <==

    Molecular point group: c1
    Full point group: C1

    Geometry (in Angstrom), charge = 0, multiplicity = 1:

       Center              X                  Y                   Z       
    ------------   -----------------  -----------------  -----------------
           C(Gh)     -1.676895075789     0.095511180237     0.012072858837
           O(Gh)     -0.973346987789     1.068829221237     0.251825523837
           O(Gh)     -1.204489387789    -1.106711633763    -0.276198331163
           H(Gh)     -0.210750212789    -1.073906770763    -0.261575306163
           C(Gh)     -3.173613669789     0.140920431237     0.016270175837
           H(Gh)     -3.511183849789     1.145834610237     0.238329195837
           H(Gh)     -3.548075149789    -0.179238940763    -0.952982695163
           H(Gh)     -3.552397831789    -0.556718958763     0.759569939837
           C          1.676925737211    -0.095427837763    -0.012573373163
           O          0.973307372211    -1.068742325763    -0.252360975163
           O          1.204499403211     1.107007550237     0.275205097837
           H          0.210710863211     1.074109316237     0.260804593837
           C          3.173638185211    -0.141330583763    -0.014537768163
           H          3.511217749211    -1.142649776763    -0.252063263163
           H          3.555136730211     0.569022355237    -0.744006666163
           H          3.545154496211     0.161363933237     0.961517592837

  Running in c1 symmetry.

  Nuclear repulsion =  121.350375293972832

  Charge       = 0
  Multiplicity = 1
  Electrons    = 32
  Nalpha       = 16
  Nbeta        = 16

  ==> Algorithm <==

  SCF Algorithm Type is DF.
  DIIS enabled.
  MOM disabled.
  Fractional occupation disabled.
  Guess Type is CORE.
  Energy threshold   = 1.00e-08
  Density threshold  = 1.00e-08
  Integral threshold = 0.00e+00

  ==> Primary Basis <==

  Basis Set: AUG-CC-PVDZ
    Number of shells: 112
    Number of basis function: 256
    Number of Cartesian functions: 272
    Spherical Harmonics?: true
    Max angular momentum: 2

  ==> Pre-Iterations <==

   -------------------------------------------------------
    Irrep   Nso     Nmo     Nalpha   Nbeta   Ndocc  Nsocc
   -------------------------------------------------------
     A        256     256       0       0       0       0
   -------------------------------------------------------
    Total     256     256      16      16      16       0
   -------------------------------------------------------

 OEINTS: Wrapper to libmints.
   by Justin Turney

   Calculation information:
      Number of atoms:                  16
      Number of AO shells:             112
      Number of SO shells:             112
      Number of primitives:            256
      Number of atomic orbitals:       272
      Number of basis functions:       256

      Number of irreps:                  1
      Number of functions per irrep: [ 256 ]

      Overlap, kinetic, potential, dipole, and quadrupole integrals
        stored in file 35.

  ==> Integral Setup <==

  ==> DFJK: Density-Fitted J/K Matrices <==

    J tasked:                  Yes
    K tasked:                  Yes
    wK tasked:                  No
    OpenMP threads:              4
    Integrals threads:           4
    Memory (MB):              5006
    Algorithm:                Core
    Integral Cache:           LOAD
    Schwarz Cutoff:          0E+00
    Fitting Condition:       1E-12

   => Auxiliary Basis Set <=

  Basis Set: aug-cc-pvdz-jkfit
    Number of shells: 320
    Number of basis function: 944
    Number of Cartesian functions: 1088
    Spherical Harmonics?: true
    Max angular momentum: 3

  Minimum eigenvalue in the overlap matrix is 9.5881033602E-06.
  Using Symmetric Orthogonalization.
  SCF Guess: Core (One-Electron) Hamiltonian.

  Guess energy:  -179.20474492839895

  ==> Iterations <==

                        Total Energy        Delta E     RMS |[F,P]|

   @RHF iter   1:  -189.54799115530119   -1.89548e+02   2.46541e-02 
   @RHF iter   2:  -149.49960995384947    4.00484e+01   2.41572e-02 DIIS
   @RHF iter   3:  -210.49189004916985   -6.09923e+01   1.51461e-02 DIIS
   @RHF iter   4:  -226.31078263746207   -1.58189e+01   6.84529e-03 DIIS
   @RHF iter   5:  -227.71389382665842   -1.40311e+00   2.13776e-03 DIIS
   @RHF iter   6:  -227.82388775729839   -1.09994e-01   8.21328e-04 DIIS
   @RHF iter   7:  -227.84384207384039   -1.99543e-02   2.61703e-04 DIIS
   @RHF iter   8:  -227.84679106326882   -2.94899e-03   9.83193e-05 DIIS
   @RHF iter   9:  -227.84733572637128   -5.44663e-04   3.26124e-05 DIIS
   @RHF iter  10:  -227.84741530868195   -7.95823e-05   9.83379e-06 DIIS
   @RHF iter  11:  -227.84742445903527   -9.15035e-06   3.27463e-06 DIIS
   @RHF iter  12:  -227.84742536083883   -9.01804e-07   1.08590e-06 DIIS
   @RHF iter  13:  -227.84742547785169   -1.17013e-07   2.54917e-07 DIIS
   @RHF iter  14:  -227.84742548524065   -7.38896e-09   4.85937e-08 DIIS
   @RHF iter  15:  -227.84742548546581   -2.25157e-10   1.00645e-08 DIIS
   @RHF iter  16:  -227.84742548547325   -7.44649e-12   2.08751e-09 DIIS

  ==> Post-Iterations <==

	Orbital Energies (a.u.)
	-----------------------

	Doubly Occupied:                                                      

	   1A    -20.633390     2A    -20.556272     3A    -11.398176  
	   4A    -11.250651     5A     -1.475805     6A     -1.359004  
	   7A     -1.030138     8A     -0.835627     9A     -0.706944  
	  10A     -0.683059    11A     -0.655819    12A     -0.579895  
	  13A     -0.572720    14A     -0.563927    15A     -0.477123  
	  16A     -0.451523  

	Virtual:                                                              

	  17A      0.024876    18A      0.036513    19A      0.049063  
	  20A      0.052957    21A      0.061827    22A      0.062804  
	  23A      0.063548    24A      0.089374    25A      0.095163  
	  26A      0.102291    27A      0.112818    28A      0.120351  
	  29A      0.139090    30A      0.141362    31A      0.144735  
	  32A      0.155017    33A      0.155133    34A      0.158665  
	  35A      0.159514    36A      0.167166    37A      0.174865  
	  38A      0.187833    39A      0.195856    40A      0.208640  
	  41A      0.223259    42A      0.235883    43A      0.245069  
	  44A      0.248953    45A      0.252087    46A      0.258948  
	  47A      0.266768    48A      0.269346    49A      0.290374  
	  50A      0.294836    51A      0.314903    52A      0.315893  
	  53A      0.318835    54A      0.325880    55A      0.332185  
	  56A      0.362569    57A      0.367844    58A      0.372631  
	  59A      0.386821    60A      0.402031    61A      0.413721  
	  62A      0.414837    63A      0.418773    64A      0.420274  
	  65A      0.449774    66A      0.456069    67A      0.460281  
	  68A      0.466311    69A      0.473751    70A      0.474702  
	  71A      0.502309    72A      0.503441    73A      0.508899  
	  74A      0.516284    75A      0.528655    76A      0.540971  
	  77A      0.549375    78A      0.574273    79A      0.582155  
	  80A      0.591327    81A      0.594699    82A      0.599949  
	  83A      0.608294    84A      0.612356    85A      0.627278  
	  86A      0.631129    87A      0.651633    88A      0.655056  
	  89A      0.662315    90A      0.677798    91A      0.679493  
	  92A      0.680302    93A      0.702383    94A      0.707100  
	  95A      0.711850    96A      0.724272    97A      0.747858  
	  98A      0.756018    99A      0.761687   100A      0.775546  
	 101A      0.778422   102A      0.790202   103A      0.802411  
	 104A      0.811526   105A      0.832794   106A      0.842759  
	 107A      0.856573   108A      0.861527   109A      0.876036  
	 110A      0.910874   111A      0.916277   112A      0.916689  
	 113A      0.944842   114A      0.965139   115A      0.974377  
	 116A      0.992178   117A      1.010821   118A      1.018534  
	 119A      1.056243   120A      1.066418   121A      1.083999  
	 122A      1.090064   123A      1.100224   124A      1.116995  
	 125A      1.121225   126A      1.144428   127A      1.159353  
	 128A      1.161965   129A      1.183563   130A      1.215786  
	 131A      1.251910   132A      1.262574   133A      1.265409  
	 134A      1.314476   135A      1.337742   136A      1.338693  
	 137A      1.385048   138A      1.390247   139A      1.392102  
	 140A      1.440288   141A      1.442592   142A      1.457502  
	 143A      1.478875   144A      1.509826   145A      1.523337  
	 146A      1.545829   147A      1.595450   148A      1.608345  
	 149A      1.625780   150A      1.641672   151A      1.659189  
	 152A      1.670513   153A      1.686252   154A      1.699714  
	 155A      1.743661   156A      1.761762   157A      1.770400  
	 158A      1.785523   159A      1.828830   160A      1.851768  
	 161A      1.862165   162A      1.876158   163A      1.886065  
	 164A      1.924743   165A      1.946520   166A      1.973179  
	 167A      2.046600   168A      2.083644   169A      2.105038  
	 170A      2.128902   171A      2.154477   172A      2.207677  
	 173A      2.213687   174A      2.253125   175A      2.264440  
	 176A      2.268073   177A      2.281711   178A      2.303003  
	 179A      2.321325   180A      2.331684   181A      2.344934  
	 182A      2.370617   183A      2.399708   184A      2.410276  
	 185A      2.430903   186A      2.461300   187A      2.512798  
	 188A      2.514642   189A      2.551011   190A      2.608877  
	 191A      2.645351   192A      2.665107   193A      2.696490  
	 194A      2.764139   195A      2.780817   196A      2.791532  
	 197A      2.834709   198A      2.867335   199A      2.881241  
	 200A      2.888549   201A      2.925304   202A      2.978546  
	 203A      2.993191   204A      3.035696   205A      3.042749  
	 206A      3.143964   207A      3.158164   208A      3.172133  
	 209A      3.250958   210A      3.340607   211A      3.365531  
	 212A      3.389720   213A      3.402764   214A      3.470526  
	 215A      3.517281   216A      3.556481   217A      3.610132  
	 218A      3.692379   219A      3.786802   220A      3.793486  
	 221A      3.812462   222A      3.888077   223A      3.912356  
	 224A      3.916475   225A      4.034429   226A      4.081725  
	 227A      4.146977   228A      4.256723   229A      4.361094  
	 230A      4.446501   231A      4.509994   232A      4.710444  
	 233A      4.826301   234A      4.872411   235A      4.917440  
	 236A      5.011269   237A      5.029703   238A      5.037956  
	 239A      5.107752   240A      5.162695   241A      5.187255  
	 242A      5.237104   243A      5.638115   244A      5.725571  
	 245A      5.868514   246A      5.884161   247A      6.055660  
	 248A      6.080193   249A      6.472907   250A      6.798260  
	 251A      7.082760   252A      7.580546   253A     18.385127  
	 254A     19.079094   255A     33.493410   256A     33.655643  

	Final Occupation by Irrep:
	          A 
	DOCC [    16 ]

  Energy converged.

  @RHF Final Energy:  -227.84742548547325

   => Energetics <=

    Nuclear Repulsion Energy =            121.3503752939728315
    One-Electron Energy =                -551.9354593905850379
    Two-Electron Energy =                 202.7376586111384142
    DFT Exchange-Correlation Energy =       0.0000000000000000
    Empirical Dispersion Energy =           0.0000000000000000
    Total Energy =                       -227.8474254854737922



Properties will be evaluated at   0.000000,   0.000000,   0.000000 Bohr
  ==> Properties <==


Properties computed using the SCF density density matrix
  Nuclear Dipole Moment: (a.u.)
     X:   108.3721      Y:    -0.8553      Z:     0.4655

  Electronic Dipole Moment: (a.u.)
     X:  -107.9389      Y:     1.5916      Z:    -0.2851

  Dipole Moment: (a.u.)
     X:     0.4332      Y:     0.7363      Z:     0.1805     Total:     0.8732

  Dipole Moment: (Debye)
     X:     1.1012      Y:     1.8716      Z:     0.4587     Total:     2.2194


  Saving occupied orbitals to File 180.

  Saving SAPT 2-MONOMER_B file.

*** tstop() called on node119.bme.utexas.edu at Fri Feb 14 14:58:11 2014
Module time:
	user time   =     104.39 seconds =       1.74 minutes
	system time =       0.50 seconds =       0.01 minutes
	total time  =         27 seconds =       0.45 minutes
Total time:
	user time   =     343.64 seconds =       5.73 minutes
	system time =       2.81 seconds =       0.05 minutes
	total time  =         91 seconds =       1.52 minutes
  No DF_BASIS_SAPT auxiliary basis selected, defaulting to aug-cc-pvdz-ri

  //>>>>>>>>>>>>>>>>>>>>>>>>>>>>>>>>>>>//
  //               SAPT2+              //
  //<<<<<<<<<<<<<<<<<<<<<<<<<<<<<<<<<<<//


*** tstart() called on node119.bme.utexas.edu
*** at Fri Feb 14 14:58:11 2014

        SAPT2+  
    Ed Hohenstein
     6 June 2009

      Orbital Information
  --------------------------
    NSO        =       256
    NMO        =       256
    NRI        =       760
    NOCC A     =        16
    NOCC B     =        16
    FOCC A     =         4
    FOCC B     =         4
    NVIR A     =       240
    NVIR B     =       240

    Estimated memory usage: 704.1 MB

    Elst10,r            =    -0.145250309406 H
    Exch10 (S^2)        =     0.284122204402 H
    Exch10              =     0.305251840383 H
    Ind20,r (A<-B)      =    -0.088930953537 H
    Ind20,r (B<-A)      =    -0.088937251571 H
    Ind20,r             =    -0.177868205108 H
    Exch-Ind20,r (A<-B) =     0.049967326690 H
    Exch-Ind20,r (B<-A) =     0.049973345347 H
    Exch-Ind20,r        =     0.099940672036 H
    Disp20              =    -0.048989787744 H
    Exch-Disp20         =     0.012077572435 H
    Elst12,r            =    -0.001220779278 H
    Exch11              =    -0.002964439478 H
    Exch12              =     0.029069084881 H
    Ind22               =    -0.028594667948 H
    Disp21              =     0.007552527321 H
    Disp22 (SDQ)        =    -0.003502635465 H

    (i =   1 of  12)        212 seconds
    (i =   2 of  12)        424 seconds
    (i =   3 of  12)        637 seconds
    (i =   4 of  12)        849 seconds
    (i =   5 of  12)       1061 seconds
    (i =   6 of  12)       1273 seconds
    (i =   7 of  12)       1486 seconds
    (i =   8 of  12)       1698 seconds
    (i =   9 of  12)       1910 seconds
    (i =  10 of  12)       2122 seconds
    (i =  11 of  12)       2335 seconds
    (i =  12 of  12)       2547 seconds

    Disp220 (T)         =    -0.003899518045 H

    (i =   1 of  12)        211 seconds
    (i =   2 of  12)        422 seconds
    (i =   3 of  12)        633 seconds
    (i =   4 of  12)        845 seconds
    (i =   5 of  12)       1056 seconds
    (i =   6 of  12)       1267 seconds
    (i =   7 of  12)       1479 seconds
    (i =   8 of  12)       1690 seconds
    (i =   9 of  12)       1901 seconds
    (i =  10 of  12)       2112 seconds
    (i =  11 of  12)       2323 seconds
    (i =  12 of  12)       2535 seconds

    Disp202 (T)         =    -0.003899660972 H

    Disp22 (T)          =    -0.007799179018 H

    SAPT Results  
  -----------------------------------------------------------------------
    Electrostatics        -146.47108868 mH     -91.91199962 kcal mol^-1
      Elst10,r            -145.25030941 mH     -91.14594903 kcal mol^-1
      Elst12,r              -1.22077928 mH      -0.76605059 kcal mol^-1

    Exchange               331.35648579 mH     207.92934272 kcal mol^-1
      Exch10               305.25184038 mH     191.54842973 kcal mol^-1
      Exch10(S^2)          284.12220440 mH     178.28938242 kcal mol^-1
      Exch11(S^2)           -2.96443948 mH      -1.86021393 kcal mol^-1
      Exch12(S^2)           29.06908488 mH      18.24112692 kcal mol^-1

    Induction             -139.54722132 mH     -87.56720708 kcal mol^-1
      Ind20,r             -177.86820511 mH    -111.61398845 kcal mol^-1
      Ind22                -28.59466795 mH     -17.94342579 kcal mol^-1
      Exch-Ind20,r          99.94067204 mH      62.71372114 kcal mol^-1
      Exch-Ind22            16.06678568 mH      10.08206065 kcal mol^-1
      delta HF,r (2)       -49.09180598 mH     -30.80557463 kcal mol^-1

    Dispersion             -40.66150247 mH     -25.51547908 kcal mol^-1
      Disp20               -48.98978774 mH     -30.74155721 kcal mol^-1
      Disp21                 7.55252732 mH       4.73928264 kcal mol^-1
      Disp22 (SDQ)          -3.50263547 mH      -2.19793703 kcal mol^-1
      Disp22 (T)            -7.79917902 mH      -4.89405893 kcal mol^-1
      Exch-Disp20           12.07757243 mH       7.57879144 kcal mol^-1

    Total HF                32.98219192 mH      20.69663876 kcal mol^-1
    Total SAPT0             -3.93002339 mH      -2.46612701 kcal mol^-1
    Total SAPT2              8.42596047 mH       5.28737024 kcal mol^-1
    Total SAPT2+             4.67667331 mH       2.93465693 kcal mol^-1

*** tstop() called on node119.bme.utexas.edu at Fri Feb 14 16:32:20 2014
Module time:
	user time   =   21133.39 seconds =     352.22 minutes
	system time =     117.55 seconds =       1.96 minutes
	total time  =       5649 seconds =      94.15 minutes
Total time:
	user time   =   21477.03 seconds =     357.95 minutes
	system time =     120.36 seconds =       2.01 minutes
	total time  =       5740 seconds =      95.67 minutes

*** PSI4 exiting successfully. Buy a developer a beer!
    -----------------------------------------------------------------------
          PSI4: An Open-Source Ab Initio Electronic Structure Package
                              PSI 4.0.0-beta4 Driver

    J. M. Turney, A. C. Simmonett, R. M. Parrish, E. G. Hohenstein,
    F. A. Evangelista, J. T. Fermann, B. J. Mintz, L. A. Burns, J. J. Wilke,
    M. L. Abrams, N. J. Russ, M. L. Leininger, C. L. Janssen, E. T. Seidl,
    W. D. Allen, H. F. Schaefer, R. A. King, E. F. Valeev, C. D. Sherrill,
    and T. D. Crawford, WIREs Comput. Mol. Sci., (2011) (doi: 10.1002/wcms.93)

                         Additional Contributions by
    A. E. DePrince, M. Saitow, U. Bozkaya, A. Yu. Sokolov
    -----------------------------------------------------------------------

    Process ID:  27934
    PSI4DATADIR: /home/xzhu216/psi4/psi4-install/share/psi

    Using LocalCommunicator (Number of processes = 1)

    Memory level set to 256.000 MB

  ==> Input File <==

--------------------------------------------------------------------------
#psi4
#
memory 7 gb

molecule AcOH_AcOH {
0 1
    C    -1.061709204     1.297140572     0.292060003
    O    -0.358161116     2.270458613     0.531812668
    O    -0.589303516     0.094917758     0.003788813
    H     0.404435659     0.127722621     0.018411838
    C    -2.558427798     1.342549823     0.296257320
    H    -2.895997978     2.347464002     0.518316340
    H    -2.932889278     1.022390451    -0.672995551
    H    -2.937211960     0.644910433     1.039557084
--
0 1
    C     2.461262731     1.106955853     0.268696495
    O     1.757644366     0.133641365     0.028908893
    O     1.988836397     2.309391241     0.556474966
    H     0.995047857     2.276493007     0.542074462
    C     3.957975179     1.061053107     0.266732100
    H     4.295554743     0.059733914     0.029206605
    H     4.339473724     1.771406046    -0.462736798
    H     4.329491490     1.363747624     1.242787461
units angstrom
no_reorient  #important for SAPT in psi4, default
symmetry c1  #important for SAPT in psi4, default
}

set {
basis aug-cc-pVDZ
scf_type DF
freeze_core True
}
energy('sapt2+')
--------------------------------------------------------------------------

  Memory set to   7.000 GiB by Python script.

  //>>>>>>>>>>>>>>>>>>>>>>>>>>>>>>>>>>>//
  //              Dimer HF             //
  //<<<<<<<<<<<<<<<<<<<<<<<<<<<<<<<<<<<//


  No DF_BASIS_SCF auxiliary basis selected, defaulting to aug-cc-pvdz-jkfit


*** tstart() called on node124.bme.utexas.edu
*** at Fri Feb 14 15:19:36 2014


         ---------------------------------------------------------
                                   SCF
            by Justin Turney, Rob Parrish, and Andy Simmonett
                              RHF Reference
                        4 Threads,   7000 MiB Core
         ---------------------------------------------------------

  ==> Geometry <==

    Molecular point group: c1
    Full point group: C1

    Geometry (in Angstrom), charge = 0, multiplicity = 1:

       Center              X                  Y                   Z       
    ------------   -----------------  -----------------  -----------------
           C         -1.761470636789     0.095134030737     0.011431496837
           O         -1.057922548789     1.068452071737     0.251184161837
           O         -1.289064948789    -1.107088783263    -0.276839693163
           H         -0.295325773789    -1.074283920263    -0.262216668163
           C         -3.258189230789     0.140543281737     0.015628813837
           H         -3.595759410789     1.145457460737     0.237687833837
           H         -3.632650710789    -0.179616090263    -0.953624057163
           H         -3.636973392789    -0.557096108263     0.758928577837
           C          1.761501298211    -0.095050688263    -0.011932011163
           O          1.057882933211    -1.068365176263    -0.251719613163
           O          1.289074964211     1.107384699737     0.275846459837
           H          0.295286424211     1.074486465737     0.261445955837
           C          3.258213746211    -0.140953434263    -0.013896406163
           H          3.595793310211    -1.142272627263    -0.251421901163
           H          3.639712291211     0.569399504737    -0.743365304163
           H          3.629730057211     0.161741082737     0.962158954837

  Running in c1 symmetry.

  Nuclear repulsion =  394.773728816844141

  Charge       = 0
  Multiplicity = 1
  Electrons    = 64
  Nalpha       = 32
  Nbeta        = 32

  ==> Algorithm <==

  SCF Algorithm Type is DF.
  DIIS enabled.
  MOM disabled.
  Fractional occupation disabled.
  Guess Type is CORE.
  Energy threshold   = 1.00e-08
  Density threshold  = 1.00e-08
  Integral threshold = 0.00e+00

  ==> Primary Basis <==

  Basis Set: AUG-CC-PVDZ
    Number of shells: 112
    Number of basis function: 256
    Number of Cartesian functions: 272
    Spherical Harmonics?: true
    Max angular momentum: 2

  ==> Pre-Iterations <==

   -------------------------------------------------------
    Irrep   Nso     Nmo     Nalpha   Nbeta   Ndocc  Nsocc
   -------------------------------------------------------
     A        256     256       0       0       0       0
   -------------------------------------------------------
    Total     256     256      32      32      32       0
   -------------------------------------------------------

 OEINTS: Wrapper to libmints.
   by Justin Turney

   Calculation information:
      Number of atoms:                  16
      Number of AO shells:             112
      Number of SO shells:             112
      Number of primitives:            256
      Number of atomic orbitals:       272
      Number of basis functions:       256

      Number of irreps:                  1
      Number of functions per irrep: [ 256 ]

      Overlap, kinetic, potential, dipole, and quadrupole integrals
        stored in file 35.

  ==> Integral Setup <==

  ==> DFJK: Density-Fitted J/K Matrices <==

    J tasked:                  Yes
    K tasked:                  Yes
    wK tasked:                  No
    OpenMP threads:              4
    Integrals threads:           4
    Memory (MB):              5006
    Algorithm:                Core
    Integral Cache:           SAVE
    Schwarz Cutoff:          0E+00
    Fitting Condition:       1E-12

   => Auxiliary Basis Set <=

  Basis Set: aug-cc-pvdz-jkfit
    Number of shells: 320
    Number of basis function: 944
    Number of Cartesian functions: 1088
    Spherical Harmonics?: true
    Max angular momentum: 3

  Minimum eigenvalue in the overlap matrix is 1.0496762676E-05.
  Using Symmetric Orthogonalization.
  SCF Guess: Core (One-Electron) Hamiltonian.

  Guess energy:  -369.50435772430114

  ==> Iterations <==

                        Total Energy        Delta E     RMS |[F,P]|

   @RHF iter   1:  -376.55274352053357   -3.76553e+02   3.49579e-02 
   @RHF iter   2:  -280.59135318618746    9.59614e+01   3.42928e-02 DIIS
   @RHF iter   3:  -405.99417296083334   -1.25403e+02   2.75094e-02 DIIS
   @RHF iter   4:  -453.87900498500096   -4.78848e+01   6.70891e-03 DIIS
   @RHF iter   5:  -455.56941948294127   -1.69041e+00   1.93021e-03 DIIS
   @RHF iter   6:  -455.67677279931524   -1.07353e-01   6.73520e-04 DIIS
   @RHF iter   7:  -455.69413540008691   -1.73626e-02   3.37563e-04 DIIS
   @RHF iter   8:  -455.69818305795604   -4.04766e-03   9.68998e-05 DIIS
   @RHF iter   9:  -455.69849025249812   -3.07195e-04   4.62378e-05 DIIS
   @RHF iter  10:  -455.69856328440471   -7.30319e-05   1.73899e-05 DIIS
   @RHF iter  11:  -455.69857603386572   -1.27495e-05   4.50838e-06 DIIS
   @RHF iter  12:  -455.69857718264734   -1.14878e-06   1.21234e-06 DIIS
   @RHF iter  13:  -455.69857726764280   -8.49955e-08   2.60262e-07 DIIS
   @RHF iter  14:  -455.69857727230124   -4.65843e-09   9.48870e-08 DIIS
   @RHF iter  15:  -455.69857727326655   -9.65315e-10   2.48027e-08 DIIS
   @RHF iter  16:  -455.69857727333533   -6.87805e-11   7.06156e-09 DIIS

  ==> Post-Iterations <==

	Orbital Energies (a.u.)
	-----------------------

	Doubly Occupied:                                                      

	   1A    -20.586311     2A    -20.586304     3A    -20.571881  
	   4A    -20.571870     5A    -11.408580     6A    -11.408564  
	   7A    -11.250480     8A    -11.250476     9A     -1.486790  
	  10A     -1.455406    11A     -1.389311    12A     -1.353526  
	  13A     -1.042236    14A     -1.024597    15A     -0.859414  
	  16A     -0.824833    17A     -0.770502    18A     -0.701823  
	  19A     -0.678293    20A     -0.671194    21A     -0.658091  
	  22A     -0.644823    23A     -0.595376    24A     -0.581716  
	  25A     -0.570419    26A     -0.561160    27A     -0.553155  
	  28A     -0.551564    29A     -0.500844    30A     -0.475534  
	  31A     -0.474444    32A     -0.451685  

	Virtual:                                                              

	  33A      0.035224    34A      0.039375    35A      0.054963  
	  36A      0.055960    37A      0.062295    38A      0.063215  
	  39A      0.066401    40A      0.093047    41A      0.098271  
	  42A      0.116383    43A      0.121779    44A      0.142022  
	  45A      0.145592    46A      0.149248    47A      0.152187  
	  48A      0.155911    49A      0.158055    50A      0.159666  
	  51A      0.162946    52A      0.167548    53A      0.179480  
	  54A      0.187023    55A      0.193805    56A      0.221300  
	  57A      0.228508    58A      0.228977    59A      0.248943  
	  60A      0.257170    61A      0.260028    62A      0.266612  
	  63A      0.268730    64A      0.288862    65A      0.294512  
	  66A      0.296636    67A      0.310688    68A      0.318547  
	  69A      0.327908    70A      0.346360    71A      0.355610  
	  72A      0.363146    73A      0.370765    74A      0.385151  
	  75A      0.399500    76A      0.400059    77A      0.405014  
	  78A      0.410993    79A      0.419320    80A      0.427141  
	  81A      0.432067    82A      0.441152    83A      0.443358  
	  84A      0.446486    85A      0.474912    86A      0.476060  
	  87A      0.483410    88A      0.493710    89A      0.505220  
	  90A      0.505629    91A      0.526999    92A      0.528433  
	  93A      0.543207    94A      0.559947    95A      0.570751  
	  96A      0.574791    97A      0.592104    98A      0.594506  
	  99A      0.601714   100A      0.611094   101A      0.613954  
	 102A      0.623670   103A      0.632281   104A      0.641812  
	 105A      0.646759   106A      0.653171   107A      0.654876  
	 108A      0.674508   109A      0.681368   110A      0.685946  
	 111A      0.688309   112A      0.725002   113A      0.726221  
	 114A      0.730762   115A      0.732115   116A      0.734856  
	 117A      0.746031   118A      0.748533   119A      0.757109  
	 120A      0.775512   121A      0.786618   122A      0.807550  
	 123A      0.814919   124A      0.825509   125A      0.860908  
	 126A      0.892844   127A      0.920163   128A      0.933310  
	 129A      0.933769   130A      0.965145   131A      0.972705  
	 132A      1.001722   133A      1.007942   134A      1.028369  
	 135A      1.033693   136A      1.040578   137A      1.060153  
	 138A      1.083659   139A      1.085645   140A      1.088124  
	 141A      1.108646   142A      1.114979   143A      1.125340  
	 144A      1.134838   145A      1.148790   146A      1.186486  
	 147A      1.190030   148A      1.199791   149A      1.227026  
	 150A      1.267551   151A      1.292075   152A      1.308879  
	 153A      1.310097   154A      1.320252   155A      1.338029  
	 156A      1.366868   157A      1.367426   158A      1.384497  
	 159A      1.412598   160A      1.452907   161A      1.481423  
	 162A      1.507856   163A      1.569742   164A      1.575194  
	 165A      1.618969   166A      1.629554   167A      1.643215  
	 168A      1.652505   169A      1.657947   170A      1.666333  
	 171A      1.696518   172A      1.698794   173A      1.758639  
	 174A      1.769986   175A      1.780701   176A      1.787103  
	 177A      1.802194   178A      1.832765   179A      1.840817  
	 180A      1.852422   181A      1.859100   182A      1.864134  
	 183A      1.878534   184A      1.890801   185A      1.915114  
	 186A      1.927502   187A      1.990519   188A      2.056393  
	 189A      2.075758   190A      2.093671   191A      2.119497  
	 192A      2.143239   193A      2.149453   194A      2.163350  
	 195A      2.192619   196A      2.210515   197A      2.218262  
	 198A      2.220605   199A      2.263477   200A      2.294794  
	 201A      2.301447   202A      2.307308   203A      2.338696  
	 204A      2.354329   205A      2.368972   206A      2.409938  
	 207A      2.434263   208A      2.435151   209A      2.459616  
	 210A      2.488623   211A      2.493746   212A      2.528599  
	 213A      2.599657   214A      2.647134   215A      2.651855  
	 216A      2.662371   217A      2.703685   218A      2.707495  
	 219A      2.857506   220A      2.864131   221A      2.888038  
	 222A      2.917420   223A      2.964975   224A      2.979005  
	 225A      2.992754   226A      3.009548   227A      3.045137  
	 228A      3.063407   229A      3.083924   230A      3.096542  
	 231A      3.187417   232A      3.285886   233A      3.337716  
	 234A      3.392476   235A      3.460165   236A      3.591751  
	 237A      3.678710   238A      3.717844   239A      3.752842  
	 240A      3.758142   241A      3.772230   242A      3.788156  
	 243A      3.803345   244A      3.820957   245A      3.888969  
	 246A      3.897179   247A      3.901220   248A      3.912067  
	 249A      3.992528   250A      4.030658   251A      4.132994  
	 252A      4.142847   253A      4.263010   254A      4.266486  
	 255A      4.792753   256A      4.846425  

	Final Occupation by Irrep:
	          A 
	DOCC [    32 ]

  Energy converged.

  @RHF Final Energy:  -455.69857727333533

   => Energetics <=

    Nuclear Repulsion Energy =            394.7737288168441410
    One-Electron Energy =               -1407.9222083816730446
    Two-Electron Energy =                 557.4499022914949364
    DFT Exchange-Correlation Energy =       0.0000000000000000
    Empirical Dispersion Energy =           0.0000000000000000
    Total Energy =                       -455.6985772733339672



Properties will be evaluated at   0.000000,   0.000000,   0.000000 Bohr
  ==> Properties <==


Properties computed using the SCF density density matrix
  Nuclear Dipole Moment: (a.u.)
     X:    -0.0002      Y:    -0.0020      Z:     0.0090

  Electronic Dipole Moment: (a.u.)
     X:     0.0003      Y:     0.0016      Z:    -0.0073

  Dipole Moment: (a.u.)
     X:     0.0001      Y:    -0.0005      Z:     0.0017     Total:     0.0017

  Dipole Moment: (Debye)
     X:     0.0002      Y:    -0.0013      Z:     0.0042     Total:     0.0044


  Saving occupied orbitals to File 180.

  Saving SAPT 2-DIMER file.

*** tstop() called on node124.bme.utexas.edu at Fri Feb 14 15:20:12 2014
Module time:
	user time   =     132.82 seconds =       2.21 minutes
	system time =       1.73 seconds =       0.03 minutes
	total time  =         36 seconds =       0.60 minutes
Total time:
	user time   =     132.82 seconds =       2.21 minutes
	system time =       1.73 seconds =       0.03 minutes
	total time  =         36 seconds =       0.60 minutes

  //>>>>>>>>>>>>>>>>>>>>>>>>>>>>>>>>>>>//
  //            Monomer A HF           //
  //<<<<<<<<<<<<<<<<<<<<<<<<<<<<<<<<<<<//


  No DF_BASIS_SCF auxiliary basis selected, defaulting to aug-cc-pvdz-jkfit


*** tstart() called on node124.bme.utexas.edu
*** at Fri Feb 14 15:20:12 2014


         ---------------------------------------------------------
                                   SCF
            by Justin Turney, Rob Parrish, and Andy Simmonett
                              RHF Reference
                        4 Threads,   7000 MiB Core
         ---------------------------------------------------------

  ==> Geometry <==

    Molecular point group: c1
    Full point group: C1

    Geometry (in Angstrom), charge = 0, multiplicity = 1:

       Center              X                  Y                   Z       
    ------------   -----------------  -----------------  -----------------
           C         -1.761470636789     0.095134030737     0.011431496837
           O         -1.057922548789     1.068452071737     0.251184161837
           O         -1.289064948789    -1.107088783263    -0.276839693163
           H         -0.295325773789    -1.074283920263    -0.262216668163
           C         -3.258189230789     0.140543281737     0.015628813837
           H         -3.595759410789     1.145457460737     0.237687833837
           H         -3.632650710789    -0.179616090263    -0.953624057163
           H         -3.636973392789    -0.557096108263     0.758928577837
           C(Gh)      1.761501298211    -0.095050688263    -0.011932011163
           O(Gh)      1.057882933211    -1.068365176263    -0.251719613163
           O(Gh)      1.289074964211     1.107384699737     0.275846459837
           H(Gh)      0.295286424211     1.074486465737     0.261445955837
           C(Gh)      3.258213746211    -0.140953434263    -0.013896406163
           H(Gh)      3.595793310211    -1.142272627263    -0.251421901163
           H(Gh)      3.639712291211     0.569399504737    -0.743365304163
           H(Gh)      3.629730057211     0.161741082737     0.962158954837

  Running in c1 symmetry.

  Nuclear repulsion =  121.353542000831098

  Charge       = 0
  Multiplicity = 1
  Electrons    = 32
  Nalpha       = 16
  Nbeta        = 16

  ==> Algorithm <==

  SCF Algorithm Type is DF.
  DIIS enabled.
  MOM disabled.
  Fractional occupation disabled.
  Guess Type is CORE.
  Energy threshold   = 1.00e-08
  Density threshold  = 1.00e-08
  Integral threshold = 0.00e+00

  ==> Primary Basis <==

  Basis Set: AUG-CC-PVDZ
    Number of shells: 112
    Number of basis function: 256
    Number of Cartesian functions: 272
    Spherical Harmonics?: true
    Max angular momentum: 2

  ==> Pre-Iterations <==

   -------------------------------------------------------
    Irrep   Nso     Nmo     Nalpha   Nbeta   Ndocc  Nsocc
   -------------------------------------------------------
     A        256     256       0       0       0       0
   -------------------------------------------------------
    Total     256     256      16      16      16       0
   -------------------------------------------------------

 OEINTS: Wrapper to libmints.
   by Justin Turney

   Calculation information:
      Number of atoms:                  16
      Number of AO shells:             112
      Number of SO shells:             112
      Number of primitives:            256
      Number of atomic orbitals:       272
      Number of basis functions:       256

      Number of irreps:                  1
      Number of functions per irrep: [ 256 ]

      Overlap, kinetic, potential, dipole, and quadrupole integrals
        stored in file 35.

  ==> Integral Setup <==

  ==> DFJK: Density-Fitted J/K Matrices <==

    J tasked:                  Yes
    K tasked:                  Yes
    wK tasked:                  No
    OpenMP threads:              4
    Integrals threads:           4
    Memory (MB):              5006
    Algorithm:                Core
    Integral Cache:           LOAD
    Schwarz Cutoff:          0E+00
    Fitting Condition:       1E-12

   => Auxiliary Basis Set <=

  Basis Set: aug-cc-pvdz-jkfit
    Number of shells: 320
    Number of basis function: 944
    Number of Cartesian functions: 1088
    Spherical Harmonics?: true
    Max angular momentum: 3

  Minimum eigenvalue in the overlap matrix is 1.0496762675E-05.
  Using Symmetric Orthogonalization.
  SCF Guess: Core (One-Electron) Hamiltonian.

  Guess energy:  -179.19342907558655

  ==> Iterations <==

                        Total Energy        Delta E     RMS |[F,P]|

   @RHF iter   1:  -189.59857312367359   -1.89599e+02   2.45623e-02 
   @RHF iter   2:  -149.50720045617726    4.00914e+01   2.41463e-02 DIIS
   @RHF iter   3:  -210.57719885704267   -6.10700e+01   1.50585e-02 DIIS
   @RHF iter   4:  -226.27369378690202   -1.56965e+01   6.93871e-03 DIIS
   @RHF iter   5:  -227.71280657543110   -1.43911e+00   2.13176e-03 DIIS
   @RHF iter   6:  -227.82283614916315   -1.10030e-01   8.35424e-04 DIIS
   @RHF iter   7:  -227.84338791045059   -2.05518e-02   2.67421e-04 DIIS
   @RHF iter   8:  -227.84642666786880   -3.03876e-03   1.01325e-04 DIIS
   @RHF iter   9:  -227.84699543832392   -5.68770e-04   3.40654e-05 DIIS
   @RHF iter  10:  -227.84707690973357   -8.14714e-05   9.99173e-06 DIIS
   @RHF iter  11:  -227.84708576929614   -8.85956e-06   3.18442e-06 DIIS
   @RHF iter  12:  -227.84708658227123   -8.12975e-07   1.03879e-06 DIIS
   @RHF iter  13:  -227.84708668608693   -1.03816e-07   2.57103e-07 DIIS
   @RHF iter  14:  -227.84708669367365   -7.58672e-09   4.57071e-08 DIIS
   @RHF iter  15:  -227.84708669387811   -2.04466e-10   9.17094e-09 DIIS

  ==> Post-Iterations <==

	Orbital Energies (a.u.)
	-----------------------

	Doubly Occupied:                                                      

	   1A    -20.633403     2A    -20.556141     3A    -11.398197  
	   4A    -11.250700     5A     -1.475905     6A     -1.359076  
	   7A     -1.030135     8A     -0.835670     9A     -0.706992  
	  10A     -0.683109    11A     -0.655887    12A     -0.579909  
	  13A     -0.572727    14A     -0.563949    15A     -0.477174  
	  16A     -0.451550  

	Virtual:                                                              

	  17A      0.024722    18A      0.036750    19A      0.048969  
	  20A      0.053043    21A      0.061398    22A      0.062454  
	  23A      0.063273    24A      0.089162    25A      0.093933  
	  26A      0.102614    27A      0.111640    28A      0.120996  
	  29A      0.139073    30A      0.140747    31A      0.144359  
	  32A      0.154720    33A      0.155402    34A      0.157760  
	  35A      0.158364    36A      0.166519    37A      0.173883  
	  38A      0.186324    39A      0.194656    40A      0.207436  
	  41A      0.221986    42A      0.235221    43A      0.244975  
	  44A      0.249614    45A      0.250515    46A      0.258620  
	  47A      0.266681    48A      0.266992    49A      0.284373  
	  50A      0.294666    51A      0.311534    52A      0.313818  
	  53A      0.314268    54A      0.323884    55A      0.331428  
	  56A      0.360652    57A      0.366126    58A      0.370358  
	  59A      0.388865    60A      0.398865    61A      0.411218  
	  62A      0.412748    63A      0.417579    64A      0.419183  
	  65A      0.445262    66A      0.452940    67A      0.457744  
	  68A      0.459312    69A      0.472148    70A      0.472894  
	  71A      0.499665    72A      0.501225    73A      0.506015  
	  74A      0.516603    75A      0.526066    76A      0.538738  
	  77A      0.546347    78A      0.572471    79A      0.578563  
	  80A      0.581779    81A      0.589487    82A      0.598361  
	  83A      0.601220    84A      0.606489    85A      0.622582  
	  86A      0.629702    87A      0.647190    88A      0.653960  
	  89A      0.658581    90A      0.672966    91A      0.675446  
	  92A      0.675818    93A      0.699925    94A      0.701747  
	  95A      0.710632    96A      0.721465    97A      0.745905  
	  98A      0.752715    99A      0.758732   100A      0.772856  
	 101A      0.775130   102A      0.778467   103A      0.800866  
	 104A      0.808198   105A      0.829575   106A      0.838331  
	 107A      0.845703   108A      0.847895   109A      0.863616  
	 110A      0.900208   111A      0.911666   112A      0.914211  
	 113A      0.939706   114A      0.958678   115A      0.965221  
	 116A      0.987256   117A      1.006457   118A      1.024862  
	 119A      1.047127   120A      1.065953   121A      1.077850  
	 122A      1.092258   123A      1.096738   124A      1.105975  
	 125A      1.106388   126A      1.132513   127A      1.162788  
	 128A      1.164036   129A      1.191298   130A      1.198960  
	 131A      1.229490   132A      1.258553   133A      1.270633  
	 134A      1.300109   135A      1.319896   136A      1.348572  
	 137A      1.373638   138A      1.378940   139A      1.386660  
	 140A      1.426532   141A      1.434415   142A      1.449403  
	 143A      1.466497   144A      1.494878   145A      1.509811  
	 146A      1.529876   147A      1.576277   148A      1.595960  
	 149A      1.614937   150A      1.622627   151A      1.642849  
	 152A      1.651038   153A      1.674248   154A      1.679344  
	 155A      1.720919   156A      1.749731   157A      1.767312  
	 158A      1.786025   159A      1.807928   160A      1.837506  
	 161A      1.852796   162A      1.874623   163A      1.880377  
	 164A      1.917473   165A      1.918490   166A      1.960402  
	 167A      1.967696   168A      2.061642   169A      2.090609  
	 170A      2.117418   171A      2.130920   172A      2.157100  
	 173A      2.208862   174A      2.252061   175A      2.254606  
	 176A      2.265971   177A      2.269310   178A      2.290813  
	 179A      2.306710   180A      2.309686   181A      2.342377  
	 182A      2.363914   183A      2.376338   184A      2.402119  
	 185A      2.423184   186A      2.435580   187A      2.453126  
	 188A      2.492341   189A      2.518021   190A      2.591023  
	 191A      2.641251   192A      2.652585   193A      2.678082  
	 194A      2.741185   195A      2.758046   196A      2.765581  
	 197A      2.807978   198A      2.829987   199A      2.831382  
	 200A      2.871251   201A      2.908932   202A      2.956297  
	 203A      2.974162   204A      3.016137   205A      3.033169  
	 206A      3.094574   207A      3.147687   208A      3.153777  
	 209A      3.208805   210A      3.286270   211A      3.359115  
	 212A      3.359866   213A      3.361588   214A      3.461714  
	 215A      3.487150   216A      3.540056   217A      3.611023  
	 218A      3.687573   219A      3.780209   220A      3.785458  
	 221A      3.789426   222A      3.852528   223A      3.900214  
	 224A      3.911963   225A      3.983769   226A      4.050263  
	 227A      4.133447   228A      4.186068   229A      4.303532  
	 230A      4.411850   231A      4.453578   232A      4.675650  
	 233A      4.806674   234A      4.841233   235A      4.930322  
	 236A      5.001990   237A      5.040647   238A      5.042788  
	 239A      5.101009   240A      5.160215   241A      5.183188  
	 242A      5.201474   243A      5.500206   244A      5.706620  
	 245A      5.849453   246A      5.852419   247A      6.033255  
	 248A      6.079417   249A      6.410871   250A      6.793194  
	 251A      7.063337   252A      7.405745   253A     18.380202  
	 254A     19.052294   255A     33.486643   256A     33.633317  

	Final Occupation by Irrep:
	          A 
	DOCC [    16 ]

  Energy converged.

  @RHF Final Energy:  -227.84708669387811

   => Energetics <=

    Nuclear Repulsion Energy =            121.3535420008310979
    One-Electron Energy =                -551.9402054125297354
    Two-Electron Energy =                 202.7395767178203414
    DFT Exchange-Correlation Energy =       0.0000000000000000
    Empirical Dispersion Energy =           0.0000000000000000
    Total Energy =                       -227.8470866938782819



Properties will be evaluated at   0.000000,   0.000000,   0.000000 Bohr
  ==> Properties <==


Properties computed using the SCF density density matrix
  Nuclear Dipole Moment: (a.u.)
     X:  -113.4867      Y:     0.8304      Z:    -0.4953

  Electronic Dipole Moment: (a.u.)
     X:   113.0530      Y:    -1.5673      Z:     0.3164

  Dipole Moment: (a.u.)
     X:    -0.4337      Y:    -0.7369      Z:    -0.1789     Total:     0.8735

  Dipole Moment: (Debye)
     X:    -1.1023      Y:    -1.8730      Z:    -0.4547     Total:     2.2203


  Saving occupied orbitals to File 180.

  Saving SAPT 2-MONOMER_A file.

*** tstop() called on node124.bme.utexas.edu at Fri Feb 14 15:20:38 2014
Module time:
	user time   =      98.40 seconds =       1.64 minutes
	system time =       0.58 seconds =       0.01 minutes
	total time  =         26 seconds =       0.43 minutes
Total time:
	user time   =     231.24 seconds =       3.85 minutes
	system time =       2.31 seconds =       0.04 minutes
	total time  =         62 seconds =       1.03 minutes

  //>>>>>>>>>>>>>>>>>>>>>>>>>>>>>>>>>>>//
  //            Monomer B HF           //
  //<<<<<<<<<<<<<<<<<<<<<<<<<<<<<<<<<<<//


  No DF_BASIS_SCF auxiliary basis selected, defaulting to aug-cc-pvdz-jkfit


*** tstart() called on node124.bme.utexas.edu
*** at Fri Feb 14 15:20:38 2014


         ---------------------------------------------------------
                                   SCF
            by Justin Turney, Rob Parrish, and Andy Simmonett
                              RHF Reference
                        4 Threads,   7000 MiB Core
         ---------------------------------------------------------

  ==> Geometry <==

    Molecular point group: c1
    Full point group: C1

    Geometry (in Angstrom), charge = 0, multiplicity = 1:

       Center              X                  Y                   Z       
    ------------   -----------------  -----------------  -----------------
           C(Gh)     -1.761470636789     0.095134030737     0.011431496837
           O(Gh)     -1.057922548789     1.068452071737     0.251184161837
           O(Gh)     -1.289064948789    -1.107088783263    -0.276839693163
           H(Gh)     -0.295325773789    -1.074283920263    -0.262216668163
           C(Gh)     -3.258189230789     0.140543281737     0.015628813837
           H(Gh)     -3.595759410789     1.145457460737     0.237687833837
           H(Gh)     -3.632650710789    -0.179616090263    -0.953624057163
           H(Gh)     -3.636973392789    -0.557096108263     0.758928577837
           C          1.761501298211    -0.095050688263    -0.011932011163
           O          1.057882933211    -1.068365176263    -0.251719613163
           O          1.289074964211     1.107384699737     0.275846459837
           H          0.295286424211     1.074486465737     0.261445955837
           C          3.258213746211    -0.140953434263    -0.013896406163
           H          3.595793310211    -1.142272627263    -0.251421901163
           H          3.639712291211     0.569399504737    -0.743365304163
           H          3.629730057211     0.161741082737     0.962158954837

  Running in c1 symmetry.

  Nuclear repulsion =  121.350375293972803

  Charge       = 0
  Multiplicity = 1
  Electrons    = 32
  Nalpha       = 16
  Nbeta        = 16

  ==> Algorithm <==

  SCF Algorithm Type is DF.
  DIIS enabled.
  MOM disabled.
  Fractional occupation disabled.
  Guess Type is CORE.
  Energy threshold   = 1.00e-08
  Density threshold  = 1.00e-08
  Integral threshold = 0.00e+00

  ==> Primary Basis <==

  Basis Set: AUG-CC-PVDZ
    Number of shells: 112
    Number of basis function: 256
    Number of Cartesian functions: 272
    Spherical Harmonics?: true
    Max angular momentum: 2

  ==> Pre-Iterations <==

   -------------------------------------------------------
    Irrep   Nso     Nmo     Nalpha   Nbeta   Ndocc  Nsocc
   -------------------------------------------------------
     A        256     256       0       0       0       0
   -------------------------------------------------------
    Total     256     256      16      16      16       0
   -------------------------------------------------------

 OEINTS: Wrapper to libmints.
   by Justin Turney

   Calculation information:
      Number of atoms:                  16
      Number of AO shells:             112
      Number of SO shells:             112
      Number of primitives:            256
      Number of atomic orbitals:       272
      Number of basis functions:       256

      Number of irreps:                  1
      Number of functions per irrep: [ 256 ]

      Overlap, kinetic, potential, dipole, and quadrupole integrals
        stored in file 35.

  ==> Integral Setup <==

  ==> DFJK: Density-Fitted J/K Matrices <==

    J tasked:                  Yes
    K tasked:                  Yes
    wK tasked:                  No
    OpenMP threads:              4
    Integrals threads:           4
    Memory (MB):              5006
    Algorithm:                Core
    Integral Cache:           LOAD
    Schwarz Cutoff:          0E+00
    Fitting Condition:       1E-12

   => Auxiliary Basis Set <=

  Basis Set: aug-cc-pvdz-jkfit
    Number of shells: 320
    Number of basis function: 944
    Number of Cartesian functions: 1088
    Spherical Harmonics?: true
    Max angular momentum: 3

  Minimum eigenvalue in the overlap matrix is 1.0496762675E-05.
  Using Symmetric Orthogonalization.
  SCF Guess: Core (One-Electron) Hamiltonian.

  Guess energy:  -179.19218310821375

  ==> Iterations <==

                        Total Energy        Delta E     RMS |[F,P]|

   @RHF iter   1:  -189.59990507542105   -1.89600e+02   2.45617e-02 
   @RHF iter   2:  -149.50768066977130    4.00922e+01   2.41466e-02 DIIS
   @RHF iter   3:  -210.57605701678349   -6.10684e+01   1.50587e-02 DIIS
   @RHF iter   4:  -226.27281979257563   -1.56968e+01   6.94081e-03 DIIS
   @RHF iter   5:  -227.71270872349814   -1.43989e+00   2.13245e-03 DIIS
   @RHF iter   6:  -227.82280938972056   -1.10101e-01   8.35784e-04 DIIS
   @RHF iter   7:  -227.84337801277545   -2.05686e-02   2.67503e-04 DIIS
[...]
      Gh(O)          -2.219443322154    -1.111231674062    -0.283897023038    15.994914619570
      Gh(H)          -1.225703322154    -1.078431674062    -0.269277023038     1.007825032230
      Gh(C)          -4.188573322154     0.136398325938     0.008572976962    12.000000000000
      Gh(H)          -4.526143322154     1.141308325938     0.230632976962     1.007825032230
      Gh(H)          -4.563033322154    -0.183761674062    -0.960687023038     1.007825032230
      Gh(H)          -4.567353322154    -0.561241674062     0.751872976962     1.007825032230
         C            2.691876677846    -0.090901674062    -0.004877023038    12.000000000000
         O            1.988266677846    -1.064221674062    -0.244657023038    15.994914619570
         O            2.219456677846     1.111528325938     0.282902976962    15.994914619570
         H            1.225666677846     1.078628325938     0.268502976962     1.007825032230
         C            4.188596677846    -0.136811674062    -0.006837023038    12.000000000000
         H            4.526176677846    -1.138131674062    -0.244367023038     1.007825032230
         H            4.570096677846     0.573548325938    -0.736307023038     1.007825032230
         H            4.560106677846     0.165888325938     0.969212976962     1.007825032230

  Running in c1 symmetry.

  Rotational constants: A =      0.18795  B =      0.01668  C =      0.01541 [cm^-1]
  Rotational constants: A =   5634.55645  B =    500.09926  C =    461.93350 [MHz]
  Nuclear repulsion =  121.350436481410838

  Charge       = 0
  Multiplicity = 1
  Electrons    = 32
  Nalpha       = 16
  Nbeta        = 16

  ==> Algorithm <==

  SCF Algorithm Type is DF.
  DIIS enabled.
  MOM disabled.
  Fractional occupation disabled.
  Guess Type is SAD.
  Energy threshold   = 1.00e-08
  Density threshold  = 1.00e-08
  Integral threshold = 0.00e+00

  ==> Primary Basis <==

  Basis Set: AUG-CC-PVDZ
    Blend: AUG-CC-PVDZ
    Number of shells: 112
    Number of basis function: 256
    Number of Cartesian functions: 272
    Spherical Harmonics?: true
    Max angular momentum: 2

   => Loading Basis Set <=

    Name: (AUG-CC-PVDZ AUX)
    Role: JKFIT
    Keyword: DF_BASIS_SCF
    atoms 1, 5, 9, 13       entry C          line   154 file /home/liuchw/anaconda3/envs/psi4env/share/psi4/basis/aug-cc-pvdz-jkfit.gbs 
    atoms 2-3, 10-11        entry O          line   270 file /home/liuchw/anaconda3/envs/psi4env/share/psi4/basis/aug-cc-pvdz-jkfit.gbs 
    atoms 4, 6-8, 12, 14-16 entry H          line    70 file /home/liuchw/anaconda3/envs/psi4env/share/psi4/basis/aug-cc-pvdz-jkfit.gbs 

  ==> Pre-Iterations <==

   -------------------------------------------------------
    Irrep   Nso     Nmo     Nalpha   Nbeta   Ndocc  Nsocc
   -------------------------------------------------------
     A        256     256       0       0       0       0
   -------------------------------------------------------
    Total     256     256      16      16      16       0
   -------------------------------------------------------

  ==> Integral Setup <==

  ==> DiskDFJK: Density-Fitted J/K Matrices <==

    J tasked:                  Yes
    K tasked:                  Yes
    wK tasked:                  No
    OpenMP threads:              8
    Integrals threads:           8
    Memory [MiB]:            14305
    Algorithm:                Core
    Integral Cache:           LOAD
    Schwarz Cutoff:          1E-12
    Fitting Condition:       1E-10

   => Auxiliary Basis Set <=

  Basis Set: (AUG-CC-PVDZ AUX)
    Blend: AUG-CC-PVDZ-JKFIT
    Number of shells: 320
    Number of basis function: 944
    Number of Cartesian functions: 1088
    Spherical Harmonics?: true
    Max angular momentum: 3

  Minimum eigenvalue in the overlap matrix is 3.4145029590E-05.
  Using Symmetric Orthogonalization.

  SCF Guess: Superposition of Atomic Densities via on-the-fly atomic UHF.

  ==> Iterations <==

                           Total Energy        Delta E     RMS |[F,P]|

   @DF-RHF iter SAD:  -226.96318861513757   -2.26963e+02   0.00000e+00 
   @DF-RHF iter   1:  -227.68298971469221   -7.19801e-01   2.28526e-03 DIIS
   @DF-RHF iter   2:  -227.80179148134857   -1.18802e-01   1.34416e-03 DIIS
   @DF-RHF iter   3:  -227.84349274994213   -4.17013e-02   2.38230e-04 DIIS
   @DF-RHF iter   4:  -227.84578099664256   -2.28825e-03   1.03314e-04 DIIS
   @DF-RHF iter   5:  -227.84626678326168   -4.85787e-04   2.44373e-05 DIIS
   @DF-RHF iter   6:  -227.84630387418224   -3.70909e-05   1.16721e-05 DIIS
   @DF-RHF iter   7:  -227.84631360197363   -9.72779e-06   3.76984e-06 DIIS
   @DF-RHF iter   8:  -227.84631512657262   -1.52460e-06   1.02630e-06 DIIS
   @DF-RHF iter   9:  -227.84631524828853   -1.21716e-07   2.09032e-07 DIIS
   @DF-RHF iter  10:  -227.84631525248466   -4.19612e-09   4.46015e-08 DIIS
   @DF-RHF iter  11:  -227.84631525263322   -1.48560e-10   9.91228e-09 DIIS
  Energy and wave function converged.


  ==> Post-Iterations <==

    Orbital Energies [Eh]
    ---------------------

    Doubly Occupied:                                                      

       1A    -20.633614     2A    -20.555988     3A    -11.398528  
       4A    -11.250879     5A     -1.476086     6A     -1.359282  
       7A     -1.030250     8A     -0.835765     9A     -0.707140  
      10A     -0.683225    11A     -0.656055    12A     -0.580015  
      13A     -0.572823    14A     -0.564090    15A     -0.477429  
      16A     -0.451698  

    Virtual:                                                              

      17A      0.023588    18A      0.035892    19A      0.047937  
      20A      0.053930    21A      0.055623    22A      0.059471  
      23A      0.061840    24A      0.081542    25A      0.089530  
      26A      0.103336    27A      0.104371    28A      0.118865  
      29A      0.124801    30A      0.134802    31A      0.135639  
      32A      0.148754    33A      0.149678    34A      0.152860  
      35A      0.155668    36A      0.162393    37A      0.165994  
      38A      0.173429    39A      0.183380    40A      0.196842  
      41A      0.204307    42A      0.212442    43A      0.229364  
      44A      0.240778    45A      0.243395    46A      0.248924  
      47A      0.253842    48A      0.256815    49A      0.265141  
      50A      0.276075    51A      0.289009    52A      0.297672  
      53A      0.299213    54A      0.302425    55A      0.320963  
      56A      0.326321    57A      0.342489    58A      0.347489  
      59A      0.351700    60A      0.368829    61A      0.386295  
      62A      0.387507    63A      0.398526    64A      0.406021  
      65A      0.412813    66A      0.414877    67A      0.430841  
      68A      0.440055    69A      0.443942    70A      0.450901  
      71A      0.453198    72A      0.470103    73A      0.491844  
      74A      0.498936    75A      0.502672    76A      0.515514  
      77A      0.526215    78A      0.530483    79A      0.533543  
      80A      0.552882    81A      0.567112    82A      0.570314  
      83A      0.579037    84A      0.583080    85A      0.591054  
      86A      0.594774    87A      0.600702    88A      0.616622  
      89A      0.640700    90A      0.642261    91A      0.648695  
      92A      0.653398    93A      0.665144    94A      0.673042  
      95A      0.680720    96A      0.688892    97A      0.702634  
      98A      0.706060    99A      0.715531   100A      0.727589  
     101A      0.738016   102A      0.741526   103A      0.750318  
     104A      0.769918   105A      0.788655   106A      0.790552  
     107A      0.794259   108A      0.800115   109A      0.816257  
     110A      0.840844   111A      0.862672   112A      0.880666  
     113A      0.891583   114A      0.896519   115A      0.925056  
     116A      0.951503   117A      0.957488   118A      0.964245  
     119A      0.965855   120A      0.993898   121A      0.999648  
     122A      1.015285   123A      1.042599   124A      1.059889  
     125A      1.067621   126A      1.086203   127A      1.092247  
     128A      1.140993   129A      1.158045   130A      1.159281  
     131A      1.161512   132A      1.177798   133A      1.187990  
     134A      1.222147   135A      1.253087   136A      1.272721  
     137A      1.273102   138A      1.288817   139A      1.320906  
     140A      1.360356   141A      1.377969   142A      1.386863  
     143A      1.413652   144A      1.415867   145A      1.417178  
     146A      1.462864   147A      1.464590   148A      1.475136  
     149A      1.500734   150A      1.514798   151A      1.532992  
     152A      1.548043   153A      1.575048   154A      1.581928  
     155A      1.637137   156A      1.643073   157A      1.695185  
     158A      1.723551   159A      1.747780   160A      1.753144  
     161A      1.784292   162A      1.803764   163A      1.834750  
     164A      1.867655   165A      1.879084   166A      1.880093  
     167A      1.934421   168A      1.979702   169A      2.012340  
     170A      2.031201   171A      2.045438   172A      2.096345  
     173A      2.138549   174A      2.172494   175A      2.194874  
     176A      2.247639   177A      2.249407   178A      2.250472  
     179A      2.257512   180A      2.283850   181A      2.314476  
     182A      2.330521   183A      2.335118   184A      2.340043  
     185A      2.347062   186A      2.363267   187A      2.366797  
     188A      2.395729   189A      2.450886   190A      2.498103  
     191A      2.505731   192A      2.522359   193A      2.533340  
     194A      2.615540   195A      2.644664   196A      2.649523  
     197A      2.675109   198A      2.733255   199A      2.774841  
     200A      2.777622   201A      2.806477   202A      2.832951  
     203A      2.868119   204A      2.926101   205A      2.959873  
     206A      2.983655   207A      2.997964   208A      3.020142  
     209A      3.047533   210A      3.128030   211A      3.183628  
     212A      3.302132   213A      3.343306   214A      3.354594  
     215A      3.399728   216A      3.413871   217A      3.491052  
     218A      3.666513   219A      3.690919   220A      3.693924  
     221A      3.740175   222A      3.759604   223A      3.796038  
     224A      3.810083   225A      3.824500   226A      3.891079  
     227A      4.017189   228A      4.047961   229A      4.153675  
     230A      4.191283   231A      4.325292   232A      4.517632  
     233A      4.651633   234A      4.709086   235A      4.925925  
     236A      4.978680   237A      4.990866   238A      4.993155  
     239A      5.038617   240A      5.047528   241A      5.138224  
     242A      5.156418   243A      5.222274   244A      5.630109  
     245A      5.664662   246A      5.789247   247A      5.918552  
     248A      6.055595   249A      6.252854   250A      6.564931  
     251A      6.848969   252A      7.085340   253A     18.356433  
     254A     18.948615   255A     33.520814   256A     33.571967  

    Final Occupation by Irrep:
              A 
    DOCC [    16 ]

  @DF-RHF Final Energy:  -227.84631525263322

   => Energetics <=

    Nuclear Repulsion Energy =            121.3504364814108385
    One-Electron Energy =                -551.9277677894433509
    Two-Electron Energy =                 202.7310160553992944
    Total Energy =                       -227.8463152526332181

Computation Completed


Properties will be evaluated at   0.000000,   0.000000,   0.000000 [a0]

Properties computed using the SCF density matrix

  Nuclear Dipole Moment: [e a0]
     X:   169.7478      Y:    -0.5818      Z:     0.9311

  Electronic Dipole Moment: [e a0]
     X:  -169.3094      Y:     1.3184      Z:    -0.7506

  Dipole Moment: [e a0]
     X:     0.4384      Y:     0.7366      Z:     0.1805     Total:     0.8760

  Dipole Moment: [D]
     X:     1.1143      Y:     1.8723      Z:     0.4589     Total:     2.2266


*** tstop() called on node87.bme.utexas.edu at Thu Apr 23 10:48:53 2020
Module time:
	user time   =      23.00 seconds =       0.38 minutes
	system time =       0.70 seconds =       0.01 minutes
	total time  =          4 seconds =       0.07 minutes
Total time:
	user time   =      91.19 seconds =       1.52 minutes
	system time =       2.69 seconds =       0.04 minutes
	total time  =         15 seconds =       0.25 minutes
  Constructing Basis Sets for SAPT...

   => Loading Basis Set <=

    Name: (AUG-CC-PVDZ AUX)
    Role: RIFIT
    Keyword: DF_BASIS_SAPT
    atoms 1, 5, 9, 13       entry C          line   112 file /home/liuchw/anaconda3/envs/psi4env/share/psi4/basis/aug-cc-pvdz-ri.gbs 
    atoms 2-3, 10-11        entry O          line   204 file /home/liuchw/anaconda3/envs/psi4env/share/psi4/basis/aug-cc-pvdz-ri.gbs 
    atoms 4, 6-8, 12, 14-16 entry H          line    30 file /home/liuchw/anaconda3/envs/psi4env/share/psi4/basis/aug-cc-pvdz-ri.gbs 


  //>>>>>>>>>>>>>>>>>>>>>>>>>>>>>>>>>>>//
  //               SAPT2+              //
  //<<<<<<<<<<<<<<<<<<<<<<<<<<<<<<<<<<<//


*** tstart() called on node87.bme.utexas.edu
*** at Thu Apr 23 10:48:53 2020

        SAPT2+  
    Ed Hohenstein
     6 June 2009

      Orbital Information
  --------------------------
    NSO        =       256
    NMO        =       256
    NRI        =       760
    NOCC A     =        16
    NOCC B     =        16
    FOCC A     =         4
    FOCC B     =         4
    NVIR A     =       240
    NVIR B     =       240

    Estimated memory usage: 704.1 MB

    Natural Orbital Cutoff:   1.000E-06
    Disp(T3) Truncation:            Yes
    CCD (vv|vv) Truncation:         Yes
    MBPT T2 Truncation:             Yes

    Monomer A: 131 virtual orbitals dropped
    Monomer B: 131 virtual orbitals dropped

    Elst10,r            =    -0.006510817230 [Eh]
    Exch10 (S^2)        =     0.000261546177 [Eh]
    Exch10              =     0.000261607553 [Eh]
    Ind20,r (A<-B)      =    -0.000245728276 [Eh]
    Ind20,r (B<-A)      =    -0.000245760405 [Eh]
    Ind20,r             =    -0.000491488681 [Eh]
    Exch-Ind20,r (A<-B) =     0.000027113086 [Eh]
    Exch-Ind20,r (B<-A) =     0.000027114024 [Eh]
    Exch-Ind20,r        =     0.000054227110 [Eh]
    Disp20              =    -0.000929899625 [Eh]
    Disp20 (NO)         =    -0.000884869742 [Eh]
    Exch-Disp20         =     0.000026222283 [Eh]
    Elst12,r            =     0.000941817462 [Eh]
    Exch11              =    -0.000004540257 [Eh]
    Exch12              =     0.000148618705 [Eh]
    Ind22               =    -0.000047393443 [Eh]
    Disp21              =     0.000075780930 [Eh]
    Disp22 (SDQ)        =    -0.000073079628 [Eh]

    (i =   1 of  12)          4 seconds
    (i =   2 of  12)          7 seconds
    (i =   3 of  12)         11 seconds
    (i =   4 of  12)         15 seconds
    (i =   5 of  12)         18 seconds
    (i =   6 of  12)         22 seconds
    (i =   7 of  12)         25 seconds
    (i =   8 of  12)         29 seconds
    (i =   9 of  12)         33 seconds
    (i =  10 of  12)         36 seconds
    (i =  11 of  12)         40 seconds
    (i =  12 of  12)         43 seconds

    Disp220 (T)         =    -0.000096215102 [Eh]

    (i =   1 of  12)          4 seconds
    (i =   2 of  12)          8 seconds
    (i =   3 of  12)         11 seconds
    (i =   4 of  12)         15 seconds
    (i =   5 of  12)         18 seconds
    (i =   6 of  12)         22 seconds
    (i =   7 of  12)         26 seconds
    (i =   8 of  12)         29 seconds
    (i =   9 of  12)         33 seconds
    (i =  10 of  12)         36 seconds
    (i =  11 of  12)         40 seconds
    (i =  12 of  12)         44 seconds

    Disp202 (T)         =    -0.000096217646 [Eh]

    Disp22 (T)          =    -0.000192432748 [Eh]

    Est. Disp220 (T)    =    -0.000101111364 [Eh]
    Est. Disp202 (T)    =    -0.000101114039 [Eh]

    Est. Disp22 (T)     =    -0.000202225403 [Eh]

    SAPT Results 
  --------------------------------------------------------------------------------------------------------
    Electrostatics                 -5.56899977 [mEh]      -3.49460011 [kcal/mol]     -14.62140688 [kJ/mol]
      Elst10,r                     -6.51081723 [mEh]      -4.08559949 [kcal/mol]     -17.09414828 [kJ/mol]
      Elst12,r                      0.94181746 [mEh]       0.59099938 [kcal/mol]       2.47274141 [kJ/mol]

    Exchange                        0.40568600 [mEh]       0.25457181 [kcal/mol]       1.06512845 [kJ/mol]
      Exch10                        0.26160755 [mEh]       0.16416122 [kcal/mol]       0.68685054 [kJ/mol]
      Exch10(S^2)                   0.26154618 [mEh]       0.16412270 [kcal/mol]       0.68668939 [kJ/mol]
      Exch11(S^2)                  -0.00454026 [mEh]      -0.00284905 [kcal/mol]      -0.01192044 [kJ/mol]
      Exch12(S^2)                   0.14861871 [mEh]       0.09325965 [kcal/mol]       0.39019836 [kJ/mol]

    Induction                      -0.53782980 [mEh]      -0.33749330 [kcal/mol]      -1.41207195 [kJ/mol]
      Ind20,r                      -0.49148868 [mEh]      -0.30841380 [kcal/mol]      -1.29040335 [kJ/mol]
      Ind22                        -0.04739344 [mEh]      -0.02973983 [kcal/mol]      -0.12443147 [kJ/mol]
      Exch-Ind20,r                  0.05422711 [mEh]       0.03402803 [kcal/mol]       0.14237326 [kJ/mol]
      Exch-Ind22                    0.00522903 [mEh]       0.00328127 [kcal/mol]       0.01372882 [kJ/mol]
      delta HF,r (2)               -0.05840382 [mEh]      -0.03664895 [kcal/mol]      -0.15333921 [kJ/mol]

    Dispersion                     -1.10320144 [mEh]      -0.69226936 [kcal/mol]      -2.89645499 [kJ/mol]
      Disp20                       -0.92989963 [mEh]      -0.58352082 [kcal/mol]      -2.44145113 [kJ/mol]
      Disp21                        0.07578093 [mEh]       0.04755325 [kcal/mol]       0.19896281 [kJ/mol]
      Disp22 (SDQ)                 -0.07307963 [mEh]      -0.04585816 [kcal/mol]      -0.19187054 [kJ/mol]
      Disp22 (T)                   -0.19243275 [mEh]      -0.12075337 [kcal/mol]      -0.50523211 [kJ/mol]
      Est. Disp22 (T)              -0.20222540 [mEh]      -0.12689836 [kcal/mol]      -0.53094272 [kJ/mol]
      Exch-Disp20                   0.02622228 [mEh]       0.01645473 [kcal/mol]       0.06884660 [kJ/mol]

  Total HF                         -6.74487507 [mEh]      -4.23247300 [kcal/mol]     -17.70866705 [kJ/mol]
  Total SAPT0                      -7.64855241 [mEh]      -4.79953910 [kcal/mol]     -20.08127158 [kJ/mol]
  Total SAPT2                      -6.60482091 [mEh]      -4.14458769 [kcal/mol]     -17.34095491 [kJ/mol]
  Total SAPT2+                     -6.80434501 [mEh]      -4.26979096 [kcal/mol]     -17.86480537 [kJ/mol]

  Special recipe for scaled SAPT0 (see Manual):
    Electrostatics sSAPT0          -6.51081723 [mEh]      -4.08559949 [kcal/mol]     -17.09414828 [kJ/mol]
    Exchange sSAPT0                 0.26160755 [mEh]       0.16416122 [kcal/mol]       0.68685054 [kJ/mol]
    Induction sSAPT0               -0.49562720 [mEh]      -0.31101077 [kcal/mol]      -1.30126905 [kJ/mol]
    Dispersion sSAPT0              -0.90365888 [mEh]      -0.56705451 [kcal/mol]      -2.37255605 [kJ/mol]
  Total sSAPT0                     -7.64849576 [mEh]      -4.79950355 [kcal/mol]     -20.08112285 [kJ/mol]
  --------------------------------------------------------------------------------------------------------

*** tstop() called on node87.bme.utexas.edu at Thu Apr 23 10:51:11 2020
Module time:
	user time   =    1050.66 seconds =      17.51 minutes
	system time =      24.12 seconds =       0.40 minutes
	total time  =        138 seconds =       2.30 minutes
Total time:
	user time   =    1142.83 seconds =      19.05 minutes
	system time =      26.84 seconds =       0.45 minutes
	total time  =        153 seconds =       2.55 minutes

    Psi4 stopped on: Thursday, 23 April 2020 10:51AM
    Psi4 wall time for execution: 0:02:32.52

*** Psi4 exiting successfully. Buy a developer a beer!
