
    -----------------------------------------------------------------------
          Psi4: An Open-Source Ab Initio Electronic Structure Package
                               Psi4 1.4a2.dev224 

                         Git: Rev {master} e453b16 


    R. M. Parrish, L. A. Burns, D. G. A. Smith, A. C. Simmonett,
    A. E. DePrince III, E. G. Hohenstein, U. Bozkaya, A. Yu. Sokolov,
    R. Di Remigio, R. M. Richard, J. F. Gonthier, A. M. James,
    H. R. McAlexander, A. Kumar, M. Saitow, X. Wang, B. P. Pritchard,
    P. Verma, H. F. Schaefer III, K. Patkowski, R. A. King, E. F. Valeev,
    F. A. Evangelista, J. M. Turney, T. D. Crawford, and C. D. Sherrill,
    J. Chem. Theory Comput. 13(7) pp 3185--3197 (2017).
    (doi: 10.1021/acs.jctc.7b00174)


                         Additional Contributions by
    P. Kraus, H. Kruse, M. H. Lechner, M. C. Schieber, R. A. Shaw,
    A. Alenaizan, R. Galvelis, Z. L. Glick, S. Lehtola, and J. P. Misiewicz

    -----------------------------------------------------------------------


    Psi4 started on: Thursday, 23 April 2020 05:22PM

    Process ID: 76128
    Host:       node50.bme.utexas.edu
    PSIDATADIR: /home/liuchw/anaconda3/envs/psi4env/share/psi4
    Memory:     500.0 MiB
    Threads:    8
    
  ==> Input File <==

--------------------------------------------------------------------------
#Generated by lconvert.py for sapt job

memory 20 GB

molecule  {
0 1
  C      -1.309750    1.180180   -0.025170
  O      -0.725300    2.155150    0.452710
  N      -0.665620    0.095060   -0.491990
  H       0.354580    0.051450   -0.459310
  H      -1.183630   -0.673600   -0.870760
  C      -2.816720    1.156000   -0.110610
  H      -3.220630    1.262540    0.893080
  H      -3.209430    0.248630   -0.561900
  H      -3.143160    2.016600   -0.688890
--
0 1
  C       3.350450    1.075770    0.169760
  O       2.766030    0.101750   -0.309970
  N       2.706360    2.160520    0.637610
  H       1.686260    2.204950    0.603310
  H       3.224390    2.928480    1.017730
  C       4.857450    1.100060    0.254990
  H       5.249320    1.999710    0.722170
  H       5.261000    1.012510   -0.750790
  H       5.185230    0.229480    0.817170
units angstrom
no_reorient
symmetry c1
}

set {
scf_type DF
basis aug-cc-pvdz
freeze_core True
guess SAD
}
energy('sapt2+')
--------------------------------------------------------------------------

  Memory set to  18.626 GiB by Python driver.

Scratch directory: /scratch/liuchw/

  //>>>>>>>>>>>>>>>>>>>>>>>>>>>>>>>>>>>//
  //              Dimer HF             //
  //<<<<<<<<<<<<<<<<<<<<<<<<<<<<<<<<<<<//


*** tstart() called on node50.bme.utexas.edu
*** at Thu Apr 23 17:22:25 2020

   => Loading Basis Set <=

    Name: AUG-CC-PVDZ
    Role: ORBITAL
    Keyword: BASIS
    atoms 1, 6, 10, 15           entry C          line   182 file /home/liuchw/anaconda3/envs/psi4env/share/psi4/basis/aug-cc-pvdz.gbs 
    atoms 2, 11                  entry O          line   254 file /home/liuchw/anaconda3/envs/psi4env/share/psi4/basis/aug-cc-pvdz.gbs 
    atoms 3, 12                  entry N          line   218 file /home/liuchw/anaconda3/envs/psi4env/share/psi4/basis/aug-cc-pvdz.gbs 
    atoms 4-5, 7-9, 13-14, 16-18 entry H          line    40 file /home/liuchw/anaconda3/envs/psi4env/share/psi4/basis/aug-cc-pvdz.gbs 


         ---------------------------------------------------------
                                   SCF
               by Justin Turney, Rob Parrish, Andy Simmonett
                          and Daniel G. A. Smith
                              RHF Reference
                        8 Threads,  19073 MiB Core
         ---------------------------------------------------------

  ==> Geometry <==

    Molecular point group: c1
    Full point group: C1

    Geometry (in Angstrom), charge = 0, multiplicity = 1:

       Center              X                  Y                   Z               Mass       
    ------------   -----------------  -----------------  -----------------  -----------------
         C           -2.330115526971     0.052100473747    -0.097305470298    12.000000000000
         O           -1.745665526971     1.027070473747     0.380574529702    15.994914619570
         N           -1.685985526971    -1.033019526253    -0.564125470298    14.003074004430
         H           -0.665785526971    -1.076629526253    -0.531445470298     1.007825032230
         H           -2.203995526971    -1.801679526253    -0.942895470298     1.007825032230
         C           -3.837085526971     0.027920473747    -0.182745470298    12.000000000000
         H           -4.240995526971     0.134460473747     0.820944529702     1.007825032230
         H           -4.229795526971    -0.879449526253    -0.634035470298     1.007825032230
         H           -4.163525526971     0.888520473747    -0.761025470298     1.007825032230
         C            2.330084473029    -0.052309526253     0.097624529702    12.000000000000
         O            1.745664473029    -1.026329526253    -0.382105470298    15.994914619570
         N            1.685994473029     1.032440473747     0.565474529702    14.003074004430
         H            0.665894473029     1.076870473747     0.531174529702     1.007825032230
         H            2.204024473029     1.800400473747     0.945594529702     1.007825032230
         C            3.837084473029    -0.028019526253     0.182854529702    12.000000000000
         H            4.228954473029     0.871630473747     0.650034529702     1.007825032230
         H            4.240634473029    -0.115569526253    -0.822925470298     1.007825032230
         H            4.164864473029    -0.898599526253     0.745034529702     1.007825032230

  Running in c1 symmetry.

  Rotational constants: A =      0.17896  B =      0.02151  C =      0.01934 [cm^-1]
  Rotational constants: A =   5365.14867  B =    644.89785  C =    579.79543 [MHz]
  Nuclear repulsion =  357.668456643649279

  Charge       = 0
  Multiplicity = 1
  Electrons    = 64
  Nalpha       = 32
  Nbeta        = 32

  ==> Algorithm <==

  SCF Algorithm Type is DF.
  DIIS enabled.
  MOM disabled.
  Fractional occupation disabled.
  Guess Type is SAD.
  Energy threshold   = 1.00e-08
  Density threshold  = 1.00e-08
  Integral threshold = 0.00e+00

  ==> Primary Basis <==

  Basis Set: AUG-CC-PVDZ
    Blend: AUG-CC-PVDZ
    Number of shells: 122
    Number of basis function: 274
    Number of Cartesian functions: 290
    Spherical Harmonics?: true
    Max angular momentum: 2

   => Loading Basis Set <=

    Name: (AUG-CC-PVDZ AUX)
    Role: JKFIT
    Keyword: DF_BASIS_SCF
    atoms 1, 6, 10, 15           entry C          line   154 file /home/liuchw/anaconda3/envs/psi4env/share/psi4/basis/aug-cc-pvdz-jkfit.gbs 
    atoms 2, 11                  entry O          line   270 file /home/liuchw/anaconda3/envs/psi4env/share/psi4/basis/aug-cc-pvdz-jkfit.gbs 
    atoms 3, 12                  entry N          line   212 file /home/liuchw/anaconda3/envs/psi4env/share/psi4/basis/aug-cc-pvdz-jkfit.gbs 
    atoms 4-5, 7-9, 13-14, 16-18 entry H          line    70 file /home/liuchw/anaconda3/envs/psi4env/share/psi4/basis/aug-cc-pvdz-jkfit.gbs 

  ==> Pre-Iterations <==

   -------------------------------------------------------
    Irrep   Nso     Nmo     Nalpha   Nbeta   Ndocc  Nsocc
   -------------------------------------------------------
     A        274     274       0       0       0       0
   -------------------------------------------------------
    Total     274     274      32      32      32       0
   -------------------------------------------------------

  ==> Integral Setup <==

  ==> DiskDFJK: Density-Fitted J/K Matrices <==

    J tasked:                  Yes
    K tasked:                  Yes
    wK tasked:                  No
    OpenMP threads:              8
    Integrals threads:           8
    Memory [MiB]:            14305
    Algorithm:                Core
    Integral Cache:           SAVE
    Schwarz Cutoff:          1E-12
    Fitting Condition:       1E-10

   => Auxiliary Basis Set <=

  Basis Set: (AUG-CC-PVDZ AUX)
    Blend: AUG-CC-PVDZ-JKFIT
    Number of shells: 344
    Number of basis function: 1008
    Number of Cartesian functions: 1158
    Spherical Harmonics?: true
    Max angular momentum: 3

  Minimum eigenvalue in the overlap matrix is 1.8925513702E-05.
  Using Symmetric Orthogonalization.

  SCF Guess: Superposition of Atomic Densities via on-the-fly atomic UHF.

  ==> Iterations <==

                           Total Energy        Delta E     RMS |[F,P]|

   @DF-RHF iter SAD:  -414.46764785674748   -4.14468e+02   0.00000e+00 
   @DF-RHF iter   1:  -415.70157849307833   -1.23393e+00   2.98604e-03 DIIS
   @DF-RHF iter   2:  -415.95979048158870   -2.58212e-01   1.62187e-03 DIIS
   @DF-RHF iter   3:  -416.03243850675591   -7.26480e-02   3.24458e-04 DIIS
   @DF-RHF iter   4:  -416.03691470816534   -4.47620e-03   1.29474e-04 DIIS
   @DF-RHF iter   5:  -416.03777124918707   -8.56541e-04   2.27716e-05 DIIS
   @DF-RHF iter   6:  -416.03781721384701   -4.59647e-05   1.07771e-05 DIIS
   @DF-RHF iter   7:  -416.03782583031989   -8.61647e-06   3.69189e-06 DIIS
   @DF-RHF iter   8:  -416.03782756821664   -1.73790e-06   1.29845e-06 DIIS
   @DF-RHF iter   9:  -416.03782779467957   -2.26463e-07   3.40635e-07 DIIS
   @DF-RHF iter  10:  -416.03782780630740   -1.16278e-08   1.10028e-07 DIIS
   @DF-RHF iter  11:  -416.03782780749196   -1.18456e-09   2.65782e-08 DIIS
   @DF-RHF iter  12:  -416.03782780755353   -6.15614e-11   6.64482e-09 DIIS
  Energy and wave function converged.


  ==> Post-Iterations <==

    Orbital Energies [Eh]
    ---------------------

    Doubly Occupied:                                                      

       1A    -20.522658     2A    -20.522637     3A    -15.587721  
       4A    -15.587709     5A    -11.359217     6A    -11.359212  
       7A    -11.241657     8A    -11.241655     9A     -1.374912  
      10A     -1.373801    11A     -1.212661    12A     -1.211268  
      13A     -1.004337    14A     -1.002915    15A     -0.799845  
      16A     -0.795787    17A     -0.722930    18A     -0.718870  
      19A     -0.668598    20A     -0.658754    21A     -0.612749  
      22A     -0.611979    23A     -0.582270    24A     -0.577300  
      25A     -0.560513    26A     -0.558451    27A     -0.521026  
      28A     -0.519026    29A     -0.427920    30A     -0.417635  
      31A     -0.409913    32A     -0.406496  

    Virtual:                                                              

      33A      0.033301    34A      0.037017    35A      0.050253  
      36A      0.055795    37A      0.060281    38A      0.061236  
      39A      0.064952    40A      0.073869    41A      0.096758  
      42A      0.099903    43A      0.120846    44A      0.121706  
      45A      0.123316    46A      0.137373    47A      0.146201  
      48A      0.152003    49A      0.157211    50A      0.159013  
      51A      0.161219    52A      0.170969    53A      0.173216  
      54A      0.173721    55A      0.186897    56A      0.191351  
      57A      0.194310    58A      0.196597    59A      0.204621  
      60A      0.204737    61A      0.218036    62A      0.225352  
      63A      0.228488    64A      0.237097    65A      0.265067  
      66A      0.267551    67A      0.292753    68A      0.294414  
      69A      0.294971    70A      0.307328    71A      0.311377  
      72A      0.319088    73A      0.321732    74A      0.329854  
      75A      0.349144    76A      0.350405    77A      0.350910  
      78A      0.356250    79A      0.376991    80A      0.383225  
      81A      0.386046    82A      0.402322    83A      0.414714  
      84A      0.416947    85A      0.423413    86A      0.429656  
      87A      0.431565    88A      0.442289    89A      0.442785  
      90A      0.446444    91A      0.451280    92A      0.471416  
      93A      0.472224    94A      0.486717    95A      0.491278  
      96A      0.498069    97A      0.499619    98A      0.524253  
      99A      0.527687   100A      0.530728   101A      0.554052  
     102A      0.558547   103A      0.558803   104A      0.560260  
     105A      0.572599   106A      0.577626   107A      0.590044  
     108A      0.598270   109A      0.605343   110A      0.608491  
     111A      0.614603   112A      0.627497   113A      0.634604  
     114A      0.648372   115A      0.655441   116A      0.658127  
     117A      0.680089   118A      0.685034   119A      0.686985  
     120A      0.690924   121A      0.697116   122A      0.708269  
     123A      0.737206   124A      0.741765   125A      0.743013  
     126A      0.748779   127A      0.762289   128A      0.773874  
     129A      0.776378   130A      0.779639   131A      0.783392  
     132A      0.799540   133A      0.801388   134A      0.806522  
     135A      0.807495   136A      0.814753   137A      0.851342  
     138A      0.857254   139A      0.903093   140A      0.919171  
     141A      0.924339   142A      0.926254   143A      0.936089  
     144A      0.956664   145A      0.971777   146A      0.981759  
     147A      0.994132   148A      1.013115   149A      1.016482  
     150A      1.036316   151A      1.038778   152A      1.077265  
     153A      1.079268   154A      1.103263   155A      1.113685  
     156A      1.119244   157A      1.123177   158A      1.124682  
     159A      1.130825   160A      1.139878   161A      1.168159  
     162A      1.168439   163A      1.214759   164A      1.255910  
     165A      1.269978   166A      1.283305   167A      1.335409  
     168A      1.336521   169A      1.345447   170A      1.352041  
     171A      1.386275   172A      1.407648   173A      1.416710  
     174A      1.430032   175A      1.458804   176A      1.507046  
     177A      1.515704   178A      1.523422   179A      1.555296  
     180A      1.567746   181A      1.590376   182A      1.613100  
     183A      1.618147   184A      1.647833   185A      1.669845  
     186A      1.700212   187A      1.728507   188A      1.731924  
     189A      1.755353   190A      1.781693   191A      1.802487  
     192A      1.830064   193A      1.843141   194A      1.856018  
     195A      1.883826   196A      1.886194   197A      1.916706  
     198A      1.926895   199A      1.937545   200A      1.938814  
     201A      2.006662   202A      2.020583   203A      2.022017  
     204A      2.047217   205A      2.053560   206A      2.056786  
     207A      2.065234   208A      2.111606   209A      2.131886  
     210A      2.144478   211A      2.155964   212A      2.176623  
     213A      2.201029   214A      2.210931   215A      2.267188  
     216A      2.271289   217A      2.275518   218A      2.284861  
     219A      2.307699   220A      2.321663   221A      2.338979  
     222A      2.355800   223A      2.361538   224A      2.382762  
     225A      2.385872   226A      2.386494   227A      2.406655  
     228A      2.427991   229A      2.512660   230A      2.513305  
     231A      2.544887   232A      2.560710   233A      2.597083  
     234A      2.598749   235A      2.640244   236A      2.640788  
     237A      2.663419   238A      2.676439   239A      2.728040  
     240A      2.751434   241A      2.805033   242A      2.810409  
     243A      2.826566   244A      2.835146   245A      2.857598  
     246A      2.864833   247A      2.873135   248A      2.900745  
     249A      2.909414   250A      2.937285   251A      2.991893  
     252A      3.001275   253A      3.068643   254A      3.077521  
     255A      3.113602   256A      3.141568   257A      3.196524  
     258A      3.227141   259A      3.447956   260A      3.454475  
     261A      3.611634   262A      3.651556   263A      3.691138  
     264A      3.711871   265A      3.784813   266A      3.815456  
     267A      3.819118   268A      3.830420   269A      3.968159  
     270A      3.983841   271A      4.089419   272A      4.103973  
     273A      4.233071   274A      4.258256  

    Final Occupation by Irrep:
              A 
    DOCC [    32 ]

  @DF-RHF Final Energy:  -416.03782780755353

   => Energetics <=

    Nuclear Repulsion Energy =            357.6684566436492787
    One-Electron Energy =               -1277.0677266257896463
    Two-Electron Energy =                 503.3614421745868412
    Total Energy =                       -416.0378278075535263

Computation Completed


Properties will be evaluated at   0.000000,   0.000000,   0.000000 [a0]

Properties computed using the SCF density matrix

  Nuclear Dipole Moment: [e a0]
     X:     0.0003      Y:    -0.0000      Z:     0.0004

  Electronic Dipole Moment: [e a0]
     X:    -0.0002      Y:    -0.0007      Z:     0.0006

  Dipole Moment: [e a0]
     X:     0.0001      Y:    -0.0007      Z:     0.0010     Total:     0.0012

  Dipole Moment: [D]
     X:     0.0003      Y:    -0.0018      Z:     0.0025     Total:     0.0031


*** tstop() called on node50.bme.utexas.edu at Thu Apr 23 17:22:33 2020
Module time:
	user time   =      52.35 seconds =       0.87 minutes
	system time =       1.23 seconds =       0.02 minutes
	total time  =          8 seconds =       0.13 minutes
Total time:
	user time   =      52.35 seconds =       0.87 minutes
	system time =       1.23 seconds =       0.02 minutes
	total time  =          8 seconds =       0.13 minutes

  //>>>>>>>>>>>>>>>>>>>>>>>>>>>>>>>>>>>//
  //            Monomer A HF           //
  //<<<<<<<<<<<<<<<<<<<<<<<<<<<<<<<<<<<//


*** tstart() called on node50.bme.utexas.edu
*** at Thu Apr 23 17:22:33 2020

   => Loading Basis Set <=

    Name: AUG-CC-PVDZ
    Role: ORBITAL
    Keyword: BASIS
    atoms 1, 6, 10, 15           entry C          line   182 file /home/liuchw/anaconda3/envs/psi4env/share/psi4/basis/aug-cc-pvdz.gbs 
    atoms 2, 11                  entry O          line   254 file /home/liuchw/anaconda3/envs/psi4env/share/psi4/basis/aug-cc-pvdz.gbs 
    atoms 3, 12                  entry N          line   218 file /home/liuchw/anaconda3/envs/psi4env/share/psi4/basis/aug-cc-pvdz.gbs 
    atoms 4-5, 7-9, 13-14, 16-18 entry H          line    40 file /home/liuchw/anaconda3/envs/psi4env/share/psi4/basis/aug-cc-pvdz.gbs 


         ---------------------------------------------------------
                                   SCF
               by Justin Turney, Rob Parrish, Andy Simmonett
                          and Daniel G. A. Smith
                              RHF Reference
                        8 Threads,  19073 MiB Core
         ---------------------------------------------------------

  ==> Geometry <==

    Molecular point group: c1
    Full point group: C1

    Geometry (in Angstrom), charge = 0, multiplicity = 1:

       Center              X                  Y                   Z               Mass       
    ------------   -----------------  -----------------  -----------------  -----------------
         C           -2.330115526971     0.052100473747    -0.097305470298    12.000000000000
         O           -1.745665526971     1.027070473747     0.380574529702    15.994914619570
         N           -1.685985526971    -1.033019526253    -0.564125470298    14.003074004430
         H           -0.665785526971    -1.076629526253    -0.531445470298     1.007825032230
         H           -2.203995526971    -1.801679526253    -0.942895470298     1.007825032230
         C           -3.837085526971     0.027920473747    -0.182745470298    12.000000000000
         H           -4.240995526971     0.134460473747     0.820944529702     1.007825032230
         H           -4.229795526971    -0.879449526253    -0.634035470298     1.007825032230
         H           -4.163525526971     0.888520473747    -0.761025470298     1.007825032230
      Gh(C)           2.330084473029    -0.052309526253     0.097624529702    12.000000000000
      Gh(O)           1.745664473029    -1.026329526253    -0.382105470298    15.994914619570
      Gh(N)           1.685994473029     1.032440473747     0.565474529702    14.003074004430
      Gh(H)           0.665894473029     1.076870473747     0.531174529702     1.007825032230
      Gh(H)           2.204024473029     1.800400473747     0.945594529702     1.007825032230
      Gh(C)           3.837084473029    -0.028019526253     0.182854529702    12.000000000000
      Gh(H)           4.228954473029     0.871630473747     0.650034529702     1.007825032230
      Gh(H)           4.240634473029    -0.115569526253    -0.822925470298     1.007825032230
      Gh(H)           4.164864473029    -0.898599526253     0.745034529702     1.007825032230

  Running in c1 symmetry.

  Rotational constants: A =      0.17896  B =      0.02151  C =      0.01934 [cm^-1]
  Rotational constants: A =   5365.14867  B =    644.89785  C =    579.79543 [MHz]
  Nuclear repulsion =  121.855395054718656

  Charge       = 0
  Multiplicity = 1
  Electrons    = 32
  Nalpha       = 16
  Nbeta        = 16

  ==> Algorithm <==

  SCF Algorithm Type is DF.
  DIIS enabled.
  MOM disabled.
  Fractional occupation disabled.
  Guess Type is SAD.
  Energy threshold   = 1.00e-08
  Density threshold  = 1.00e-08
  Integral threshold = 0.00e+00

  ==> Primary Basis <==

  Basis Set: AUG-CC-PVDZ
    Blend: AUG-CC-PVDZ
    Number of shells: 122
    Number of basis function: 274
    Number of Cartesian functions: 290
    Spherical Harmonics?: true
    Max angular momentum: 2

   => Loading Basis Set <=

    Name: (AUG-CC-PVDZ AUX)
    Role: JKFIT
    Keyword: DF_BASIS_SCF
    atoms 1, 6, 10, 15           entry C          line   154 file /home/liuchw/anaconda3/envs/psi4env/share/psi4/basis/aug-cc-pvdz-jkfit.gbs 
    atoms 2, 11                  entry O          line   270 file /home/liuchw/anaconda3/envs/psi4env/share/psi4/basis/aug-cc-pvdz-jkfit.gbs 
    atoms 3, 12                  entry N          line   212 file /home/liuchw/anaconda3/envs/psi4env/share/psi4/basis/aug-cc-pvdz-jkfit.gbs 
    atoms 4-5, 7-9, 13-14, 16-18 entry H          line    70 file /home/liuchw/anaconda3/envs/psi4env/share/psi4/basis/aug-cc-pvdz-jkfit.gbs 

  ==> Pre-Iterations <==

   -------------------------------------------------------
    Irrep   Nso     Nmo     Nalpha   Nbeta   Ndocc  Nsocc
   -------------------------------------------------------
     A        274     274       0       0       0       0
   -------------------------------------------------------
    Total     274     274      16      16      16       0
   -------------------------------------------------------

  ==> Integral Setup <==

  ==> DiskDFJK: Density-Fitted J/K Matrices <==

    J tasked:                  Yes
    K tasked:                  Yes
    wK tasked:                  No
    OpenMP threads:              8
    Integrals threads:           8
    Memory [MiB]:            14305
    Algorithm:                Core
    Integral Cache:           LOAD
    Schwarz Cutoff:          1E-12
    Fitting Condition:       1E-10

   => Auxiliary Basis Set <=

  Basis Set: (AUG-CC-PVDZ AUX)
    Blend: AUG-CC-PVDZ-JKFIT
    Number of shells: 344
    Number of basis function: 1008
    Number of Cartesian functions: 1158
    Spherical Harmonics?: true
    Max angular momentum: 3

  Minimum eigenvalue in the overlap matrix is 1.8925513702E-05.
  Using Symmetric Orthogonalization.

  SCF Guess: Superposition of Atomic Densities via on-the-fly atomic UHF.

  ==> Iterations <==

                           Total Energy        Delta E     RMS |[F,P]|

   @DF-RHF iter SAD:  -207.19858444430835   -2.07199e+02   0.00000e+00 
   @DF-RHF iter   1:  -207.83271914817837   -6.34135e-01   2.16037e-03 DIIS
   @DF-RHF iter   2:  -207.96632595154776   -1.33607e-01   1.22928e-03 DIIS
   @DF-RHF iter   3:  -208.00784574758146   -4.15198e-02   2.41834e-04 DIIS
   @DF-RHF iter   4:  -208.01031474502645   -2.46900e-03   9.60661e-05 DIIS
   @DF-RHF iter   5:  -208.01079881002951   -4.84065e-04   1.71957e-05 DIIS
   @DF-RHF iter   6:  -208.01082624786716   -2.74378e-05   8.23240e-06 DIIS
   @DF-RHF iter   7:  -208.01083143431367   -5.18645e-06   2.95023e-06 DIIS
   @DF-RHF iter   8:  -208.01083246097798   -1.02666e-06   9.95799e-07 DIIS
   @DF-RHF iter   9:  -208.01083258820475   -1.27227e-07   2.58350e-07 DIIS
   @DF-RHF iter  10:  -208.01083259434361   -6.13886e-09   8.25165e-08 DIIS
   @DF-RHF iter  11:  -208.01083259500703   -6.63420e-10   1.86557e-08 DIIS
   @DF-RHF iter  12:  -208.01083259503912   -3.20881e-11   4.17554e-09 DIIS
  Energy and wave function converged.


  ==> Post-Iterations <==

    Orbital Energies [Eh]
    ---------------------

    Doubly Occupied:                                                      

       1A    -20.521921     2A    -15.601070     3A    -11.361216  
       4A    -11.244689     5A     -1.373783     6A     -1.221565  
       7A     -1.007162     8A     -0.806576     9A     -0.731751  
      10A     -0.664295    11A     -0.615252    12A     -0.580124  
      13A     -0.563957    14A     -0.523699    15A     -0.420640  
      16A     -0.413090  

    Virtual:                                                              

      17A      0.022947    18A      0.032967    19A      0.045578  
      20A      0.055656    21A      0.056472    22A      0.058760  
      23A      0.063146    24A      0.073879    25A      0.086192  
      26A      0.097678    27A      0.106570    28A      0.110784  
      29A      0.120445    30A      0.126598    31A      0.130829  
      32A      0.141002    33A      0.141844    34A      0.147216  
      35A      0.150953    36A      0.160280    37A      0.164119  
      38A      0.174068    39A      0.177608    40A      0.181232  
      41A      0.190778    42A      0.191605    43A      0.194230  
      44A      0.210985    45A      0.213214    46A      0.218745  
      47A      0.243850    48A      0.244526    49A      0.251081  
      50A      0.255033    51A      0.265995    52A      0.270511  
      53A      0.286936    54A      0.300334    55A      0.302983  
      56A      0.308773    57A      0.329301    58A      0.334976  
      59A      0.341442    60A      0.350730    61A      0.354464  
      62A      0.367488    63A      0.377963    64A      0.391088  
      65A      0.396735    66A      0.411068    67A      0.414759  
      68A      0.416793    69A      0.423103    70A      0.431058  
      71A      0.444952    72A      0.450748    73A      0.455368  
      74A      0.456587    75A      0.460455    76A      0.471852  
      77A      0.480334    78A      0.491022    79A      0.504068  
      80A      0.510122    81A      0.518248    82A      0.523364  
      83A      0.529958    84A      0.533308    85A      0.541316  
      86A      0.549349    87A      0.565991    88A      0.577432  
      89A      0.579312    90A      0.587461    91A      0.591758  
      92A      0.598684    93A      0.604924    94A      0.618032  
      95A      0.629527    96A      0.650790    97A      0.656863  
      98A      0.658656    99A      0.670202   100A      0.670634  
     101A      0.683838   102A      0.687872   103A      0.695891  
     104A      0.712332   105A      0.719385   106A      0.725594  
     107A      0.737216   108A      0.744198   109A      0.752281  
     110A      0.771727   111A      0.774649   112A      0.788676  
     113A      0.792761   114A      0.796301   115A      0.813860  
     116A      0.815759   117A      0.827736   118A      0.831090  
     119A      0.839323   120A      0.864059   121A      0.872358  
     122A      0.888271   123A      0.902240   124A      0.912369  
     125A      0.919138   126A      0.935276   127A      0.943741  
     128A      0.946810   129A      0.991419   130A      1.002618  
     131A      1.010081   132A      1.012251   133A      1.043752  
     134A      1.047378   135A      1.067415   136A      1.091222  
     137A      1.099326   138A      1.110588   139A      1.115194  
     140A      1.128673   141A      1.145995   142A      1.148931  
     143A      1.156624   144A      1.181706   145A      1.187562  
     146A      1.213884   147A      1.238326   148A      1.249602  
     149A      1.271064   150A      1.296007   151A      1.304955  
     152A      1.324803   153A      1.335575   154A      1.384871  
     155A      1.396900   156A      1.410421   157A      1.419521  
     158A      1.449170   159A      1.477840   160A      1.498864  
     161A      1.514232   162A      1.531418   163A      1.541653  
     164A      1.577123   165A      1.592645   166A      1.611419  
     167A      1.653697   168A      1.690041   169A      1.717041  
     170A      1.726735   171A      1.756958   172A      1.799456  
     173A      1.817773   174A      1.847032   175A      1.882148  
     176A      1.893438   177A      1.917466   178A      1.931539  
     179A      1.940950   180A      2.010756   181A      2.036831  
     182A      2.039839   183A      2.067461   184A      2.083102  
     185A      2.129486   186A      2.159391   187A      2.198850  
     188A      2.253579   189A      2.255210   190A      2.264315  
     191A      2.270401   192A      2.274390   193A      2.308308  
     194A      2.334248   195A      2.339179   196A      2.345206  
     197A      2.356572   198A      2.365444   199A      2.378011  
     200A      2.385943   201A      2.399025   202A      2.401735  
     203A      2.422012   204A      2.485132   205A      2.494505  
     206A      2.518453   207A      2.529470   208A      2.536809  
     209A      2.541133   210A      2.568839   211A      2.607064  
     212A      2.636099   213A      2.650168   214A      2.681859  
     215A      2.727316   216A      2.788662   217A      2.790445  
     218A      2.795907   219A      2.833440   220A      2.837604  
     221A      2.845361   222A      2.869580   223A      2.908338  
     224A      2.926442   225A      2.991378   226A      2.995838  
     227A      3.062198   228A      3.084016   229A      3.118424  
     230A      3.132255   231A      3.196135   232A      3.233721  
     233A      3.304976   234A      3.315824   235A      3.392833  
     236A      3.403081   237A      3.439008   238A      3.511414  
     239A      3.574331   240A      3.623028   241A      3.681786  
     242A      3.691115   243A      3.702839   244A      3.726726  
     245A      3.768074   246A      3.818776   247A      3.839457  
     248A      3.891326   249A      3.975398   250A      4.098852  
     251A      4.108519   252A      4.245088   253A      4.449734  
     254A      4.593839   255A      4.630340   256A      4.640743  
     257A      4.794697   258A      4.982722   259A      5.004282  
     260A      5.111820   261A      5.123704   262A      5.139592  
     263A      5.204210   264A      5.306448   265A      5.902614  
     266A      5.991216   267A      6.004269   268A      6.185974  
     269A      6.400501   270A      6.974839   271A     18.372888  
     272A     19.016911   273A     25.500564   274A     33.524973  

    Final Occupation by Irrep:
              A 
    DOCC [    16 ]

  @DF-RHF Final Energy:  -208.01083259503912

   => Energetics <=

    Nuclear Repulsion Energy =            121.8553950547186560
    One-Electron Energy =                -524.4308804431440194
    Two-Electron Energy =                 194.5646527933862444
    Total Energy =                       -208.0108325950391190

Computation Completed


Properties will be evaluated at   0.000000,   0.000000,   0.000000 [a0]

Properties computed using the SCF density matrix

  Nuclear Dipole Moment: [e a0]
     X:  -147.9174      Y:    -2.3985      Z:    -8.7552

  Electronic Dipole Moment: [e a0]
     X:   147.3374      Y:     0.9185      Z:     8.0475

  Dipole Moment: [e a0]
     X:    -0.5801      Y:    -1.4800      Z:    -0.7077     Total:     1.7400

  Dipole Moment: [D]
     X:    -1.4743      Y:    -3.7618      Z:    -1.7987     Total:     4.4227


*** tstop() called on node50.bme.utexas.edu at Thu Apr 23 17:22:37 2020
Module time:
	user time   =      28.85 seconds =       0.48 minutes
	system time =       0.93 seconds =       0.02 minutes
	total time  =          4 seconds =       0.07 minutes
Total time:
	user time   =      81.24 seconds =       1.35 minutes
	system time =       2.16 seconds =       0.04 minutes
	total time  =         12 seconds =       0.20 minutes

  //>>>>>>>>>>>>>>>>>>>>>>>>>>>>>>>>>>>//
  //            Monomer B HF           //
  //<<<<<<<<<<<<<<<<<<<<<<<<<<<<<<<<<<<//


*** tstart() called on node50.bme.utexas.edu
*** at Thu Apr 23 17:22:37 2020

   => Loading Basis Set <=

    Name: AUG-CC-PVDZ
    Role: ORBITAL
    Keyword: BASIS
    atoms 1, 6, 10, 15           entry C          line   182 file /home/liuchw/anaconda3/envs/psi4env/share/psi4/basis/aug-cc-pvdz.gbs 
    atoms 2, 11                  entry O          line   254 file /home/liuchw/anaconda3/envs/psi4env/share/psi4/basis/aug-cc-pvdz.gbs 
    atoms 3, 12                  entry N          line   218 file /home/liuchw/anaconda3/envs/psi4env/share/psi4/basis/aug-cc-pvdz.gbs 
    atoms 4-5, 7-9, 13-14, 16-18 entry H          line    40 file /home/liuchw/anaconda3/envs/psi4env/share/psi4/basis/aug-cc-pvdz.gbs 


         ---------------------------------------------------------
                                   SCF
               by Justin Turney, Rob Parrish, Andy Simmonett
                          and Daniel G. A. Smith
                              RHF Reference
                        8 Threads,  19073 MiB Core
         ---------------------------------------------------------

  ==> Geometry <==

    Molecular point group: c1
    Full point group: C1

    Geometry (in Angstrom), charge = 0, multiplicity = 1:

       Center              X                  Y                   Z               Mass       
    ------------   -----------------  -----------------  -----------------  -----------------
      Gh(C)          -2.330115526971     0.052100473747    -0.097305470298    12.000000000000
      Gh(O)          -1.745665526971     1.027070473747     0.380574529702    15.994914619570
      Gh(N)          -1.685985526971    -1.033019526253    -0.564125470298    14.003074004430
      Gh(H)          -0.665785526971    -1.076629526253    -0.531445470298     1.007825032230
      Gh(H)          -2.203995526971    -1.801679526253    -0.942895470298     1.007825032230
      Gh(C)          -3.837085526971     0.027920473747    -0.182745470298    12.000000000000
      Gh(H)          -4.240995526971     0.134460473747     0.820944529702     1.007825032230
      Gh(H)          -4.229795526971    -0.879449526253    -0.634035470298     1.007825032230
      Gh(H)          -4.163525526971     0.888520473747    -0.761025470298     1.007825032230
         C            2.330084473029    -0.052309526253     0.097624529702    12.000000000000
         O            1.745664473029    -1.026329526253    -0.382105470298    15.994914619570
         N            1.685994473029     1.032440473747     0.565474529702    14.003074004430
         H            0.665894473029     1.076870473747     0.531174529702     1.007825032230
         H            2.204024473029     1.800400473747     0.945594529702     1.007825032230
         C            3.837084473029    -0.028019526253     0.182854529702    12.000000000000
         H            4.228954473029     0.871630473747     0.650034529702     1.007825032230
         H            4.240634473029    -0.115569526253    -0.822925470298     1.007825032230
         H            4.164864473029    -0.898599526253     0.745034529702     1.007825032230

  Running in c1 symmetry.

  Rotational constants: A =      0.17896  B =      0.02151  C =      0.01934 [cm^-1]
  Rotational constants: A =   5365.14867  B =    644.89785  C =    579.79543 [MHz]
  Nuclear repulsion =  121.855494968461187

  Charge       = 0
  Multiplicity = 1
  Electrons    = 32
  Nalpha       = 16
  Nbeta        = 16

  ==> Algorithm <==

  SCF Algorithm Type is DF.
  DIIS enabled.
  MOM disabled.
  Fractional occupation disabled.
  Guess Type is SAD.
  Energy threshold   = 1.00e-08
  Density threshold  = 1.00e-08
  Integral threshold = 0.00e+00

  ==> Primary Basis <==

  Basis Set: AUG-CC-PVDZ
    Blend: AUG-CC-PVDZ
    Number of shells: 122
    Number of basis function: 274
    Number of Cartesian functions: 290
    Spherical Harmonics?: true
    Max angular momentum: 2

   => Loading Basis Set <=

    Name: (AUG-CC-PVDZ AUX)
    Role: JKFIT
    Keyword: DF_BASIS_SCF
    atoms 1, 6, 10, 15           entry C          line   154 file /home/liuchw/anaconda3/envs/psi4env/share/psi4/basis/aug-cc-pvdz-jkfit.gbs 
    atoms 2, 11                  entry O          line   270 file /home/liuchw/anaconda3/envs/psi4env/share/psi4/basis/aug-cc-pvdz-jkfit.gbs 
    atoms 3, 12                  entry N          line   212 file /home/liuchw/anaconda3/envs/psi4env/share/psi4/basis/aug-cc-pvdz-jkfit.gbs 
    atoms 4-5, 7-9, 13-14, 16-18 entry H          line    70 file /home/liuchw/anaconda3/envs/psi4env/share/psi4/basis/aug-cc-pvdz-jkfit.gbs 

  ==> Pre-Iterations <==

   -------------------------------------------------------
    Irrep   Nso     Nmo     Nalpha   Nbeta   Ndocc  Nsocc
   -------------------------------------------------------
     A        274     274       0       0       0       0
   -------------------------------------------------------
    Total     274     274      16      16      16       0
   -------------------------------------------------------

  ==> Integral Setup <==

  ==> DiskDFJK: Density-Fitted J/K Matrices <==

    J tasked:                  Yes
    K tasked:                  Yes
    wK tasked:                  No
    OpenMP threads:              8
    Integrals threads:           8
    Memory [MiB]:            14305
    Algorithm:                Core
    Integral Cache:           LOAD
    Schwarz Cutoff:          1E-12
    Fitting Condition:       1E-10

   => Auxiliary Basis Set <=

  Basis Set: (AUG-CC-PVDZ AUX)
    Blend: AUG-CC-PVDZ-JKFIT
    Number of shells: 344
    Number of basis function: 1008
    Number of Cartesian functions: 1158
    Spherical Harmonics?: true
    Max angular momentum: 3

  Minimum eigenvalue in the overlap matrix is 1.8925513702E-05.
  Using Symmetric Orthogonalization.

  SCF Guess: Superposition of Atomic Densities via on-the-fly atomic UHF.

  ==> Iterations <==

                           Total Energy        Delta E     RMS |[F,P]|

   @DF-RHF iter SAD:  -207.19860017872739   -2.07199e+02   0.00000e+00 
   @DF-RHF iter   1:  -207.83273157092736   -6.34131e-01   2.16033e-03 DIIS
   @DF-RHF iter   2:  -207.96633849990948   -1.33607e-01   1.22919e-03 DIIS
   @DF-RHF iter   3:  -208.00785171518027   -4.15132e-02   2.41809e-04 DIIS
   @DF-RHF iter   4:  -208.01032038587954   -2.46867e-03   9.60674e-05 DIIS
   @DF-RHF iter   5:  -208.01080444011606   -4.84054e-04   1.71966e-05 DIIS
   @DF-RHF iter   6:  -208.01083188409225   -2.74440e-05   8.23386e-06 DIIS
   @DF-RHF iter   7:  -208.01083707257300   -5.18848e-06   2.95092e-06 DIIS
   @DF-RHF iter   8:  -208.01083809969239   -1.02712e-06   9.95776e-07 DIIS
   @DF-RHF iter   9:  -208.01083822691035   -1.27218e-07   2.58291e-07 DIIS
   @DF-RHF iter  10:  -208.01083823304538   -6.13502e-09   8.24951e-08 DIIS
   @DF-RHF iter  11:  -208.01083823370880   -6.63420e-10   1.86534e-08 DIIS
   @DF-RHF iter  12:  -208.01083823374063   -3.18323e-11   4.17659e-09 DIIS
  Energy and wave function converged.


  ==> Post-Iterations <==

    Orbital Energies [Eh]
    ---------------------

    Doubly Occupied:                                                      

       1A    -20.521937     2A    -15.601054     3A    -11.361215  
       4A    -11.244688     5A     -1.373813     6A     -1.221556  
       7A     -1.007157     8A     -0.806561     9A     -0.731747  
      10A     -0.664299    11A     -0.615255    12A     -0.580146  
      13A     -0.563950    14A     -0.523704    15A     -0.420648  
      16A     -0.413098  

    Virtual:                                                              

      17A      0.022948    18A      0.032968    19A      0.045580  
      20A      0.055635    21A      0.056492    22A      0.058761  
      23A      0.063128    24A      0.073892    25A      0.086190  
      26A      0.097677    27A      0.106550    28A      0.110793  
      29A      0.120433    30A      0.126602    31A      0.130873  
      32A      0.140882    33A      0.141920    34A      0.147223  
      35A      0.150983    36A      0.160274    37A      0.164130  
      38A      0.174085    39A      0.177607    40A      0.181209  
      41A      0.190987    42A      0.191427    43A      0.194213  
      44A      0.211019    45A      0.213217    46A      0.218761  
      47A      0.243841    48A      0.244507    49A      0.251079  
      50A      0.255011    51A      0.266002    52A      0.270515  
      53A      0.286951    54A      0.300284    55A      0.302961  
      56A      0.308780    57A      0.329363    58A      0.334915  
      59A      0.341443    60A      0.350674    61A      0.354486  
      62A      0.367477    63A      0.377977    64A      0.391087  
      65A      0.396821    66A      0.411006    67A      0.414706  
      68A      0.416886    69A      0.423109    70A      0.431074  
      71A      0.444948    72A      0.450705    73A      0.455379  
      74A      0.456591    75A      0.460456    76A      0.471843  
      77A      0.480443    78A      0.491080    79A      0.504024  
      80A      0.510126    81A      0.518238    82A      0.523332  
      83A      0.529954    84A      0.533321    85A      0.541275  
      86A      0.549381    87A      0.565990    88A      0.577445  
      89A      0.579252    90A      0.587409    91A      0.591772  
      92A      0.598693    93A      0.604898    94A      0.618063  
      95A      0.629604    96A      0.650814    97A      0.656794  
      98A      0.658804    99A      0.669882   100A      0.670865  
     101A      0.683804   102A      0.687980   103A      0.695836  
     104A      0.712369   105A      0.719364   106A      0.725606  
     107A      0.737067   108A      0.744046   109A      0.752202  
     110A      0.771277   111A      0.775149   112A      0.788662  
     113A      0.792935   114A      0.796347   115A      0.813945  
     116A      0.815620   117A      0.828246   118A      0.830480  
     119A      0.839394   120A      0.864110   121A      0.872377  
     122A      0.888189   123A      0.902378   124A      0.912272  
     125A      0.919242   126A      0.935303   127A      0.943606  
     128A      0.946991   129A      0.991407   130A      1.002659  
     131A      1.009956   132A      1.012380   133A      1.043710  
     134A      1.047274   135A      1.067399   136A      1.091231  
     137A      1.099190   138A      1.109997   139A      1.115859  
     140A      1.128722   141A      1.145825   142A      1.149210  
     143A      1.156630   144A      1.181683   145A      1.187547  
     146A      1.213881   147A      1.238398   148A      1.249503  
     149A      1.271011   150A      1.296019   151A      1.305047  
     152A      1.324793   153A      1.335523   154A      1.384730  
     155A      1.396887   156A      1.410835   157A      1.419576  
     158A      1.449150   159A      1.477941   160A      1.498874  
     161A      1.514253   162A      1.531439   163A      1.541593  
     164A      1.577130   165A      1.592619   166A      1.611391  
     167A      1.653606   168A      1.690025   169A      1.717029  
     170A      1.726941   171A      1.756879   172A      1.799414  
     173A      1.817823   174A      1.846886   175A      1.882180  
     176A      1.893518   177A      1.917466   178A      1.931529  
     179A      1.940514   180A      2.010704   181A      2.035799  
     182A      2.040820   183A      2.067581   184A      2.083166  
     185A      2.129438   186A      2.159583   187A      2.198745  
     188A      2.253587   189A      2.255168   190A      2.264296  
     191A      2.270393   192A      2.274366   193A      2.308376  
     194A      2.334268   195A      2.339265   196A      2.345180  
     197A      2.356612   198A      2.365470   199A      2.377984  
     200A      2.385965   201A      2.399081   202A      2.401811  
     203A      2.421881   204A      2.485158   205A      2.494686  
     206A      2.518577   207A      2.529488   208A      2.536491  
     209A      2.541090   210A      2.568921   211A      2.606946  
     212A      2.635849   213A      2.650461   214A      2.681871  
     215A      2.727093   216A      2.788606   217A      2.790476  
     218A      2.796024   219A      2.833067   220A      2.837742  
     221A      2.845369   222A      2.869838   223A      2.908311  
     224A      2.926461   225A      2.991409   226A      2.995860  
     227A      3.062308   228A      3.083921   229A      3.118209  
     230A      3.132198   231A      3.196137   232A      3.233714  
     233A      3.305005   234A      3.315508   235A      3.392869  
     236A      3.403078   237A      3.439025   238A      3.511513  
     239A      3.574488   240A      3.622970   241A      3.681808  
     242A      3.691135   243A      3.702867   244A      3.726801  
     245A      3.768094   246A      3.818776   247A      3.839514  
     248A      3.891349   249A      3.975317   250A      4.098849  
     251A      4.108527   252A      4.245119   253A      4.449783  
     254A      4.593880   255A      4.630483   256A      4.640603  
     257A      4.794852   258A      4.982641   259A      5.004264  
     260A      5.111911   261A      5.123849   262A      5.139420  
     263A      5.204387   264A      5.306521   265A      5.902528  
     266A      5.991272   267A      6.004422   268A      6.185877  
     269A      6.400457   270A      6.974686   271A     18.372846  
     272A     19.017107   273A     25.500578   274A     33.524969  

    Final Occupation by Irrep:
              A 
    DOCC [    16 ]

  @DF-RHF Final Energy:  -208.01083823374063

   => Energetics <=

    Nuclear Repulsion Energy =            121.8554949684611870
    One-Electron Energy =                -524.4310096942118662
    Two-Electron Energy =                 194.5646764920100509
    Total Energy =                       -208.0108382337406283

Computation Completed


Properties will be evaluated at   0.000000,   0.000000,   0.000000 [a0]

Properties computed using the SCF density matrix

  Nuclear Dipole Moment: [e a0]
     X:   147.9177      Y:     2.3985      Z:     8.7556

  Electronic Dipole Moment: [e a0]
     X:  -147.3376      Y:    -0.9192      Z:    -8.0469

  Dipole Moment: [e a0]
     X:     0.5801      Y:     1.4793      Z:     0.7087     Total:     1.7398

  Dipole Moment: [D]
     X:     1.4745      Y:     3.7600      Z:     1.8012     Total:     4.4222


*** tstop() called on node50.bme.utexas.edu at Thu Apr 23 17:22:42 2020
Module time:
	user time   =      28.70 seconds =       0.48 minutes
	system time =       0.90 seconds =       0.01 minutes
	total time  =          5 seconds =       0.08 minutes
Total time:
	user time   =     110.13 seconds =       1.84 minutes
	system time =       3.07 seconds =       0.05 minutes
	total time  =         17 seconds =       0.28 minutes
  Constructing Basis Sets for SAPT...

   => Loading Basis Set <=

    Name: (AUG-CC-PVDZ AUX)
    Role: RIFIT
    Keyword: DF_BASIS_SAPT
    atoms 1, 6, 10, 15           entry C          line   112 file /home/liuchw/anaconda3/envs/psi4env/share/psi4/basis/aug-cc-pvdz-ri.gbs 
    atoms 2, 11                  entry O          line   204 file /home/liuchw/anaconda3/envs/psi4env/share/psi4/basis/aug-cc-pvdz-ri.gbs 
    atoms 3, 12                  entry N          line   158 file /home/liuchw/anaconda3/envs/psi4env/share/psi4/basis/aug-cc-pvdz-ri.gbs 
    atoms 4-5, 7-9, 13-14, 16-18 entry H          line    30 file /home/liuchw/anaconda3/envs/psi4env/share/psi4/basis/aug-cc-pvdz-ri.gbs 


  //>>>>>>>>>>>>>>>>>>>>>>>>>>>>>>>>>>>//
  //               SAPT2+              //
  //<<<<<<<<<<<<<<<<<<<<<<<<<<<<<<<<<<<//


*** tstart() called on node50.bme.utexas.edu
*** at Thu Apr 23 17:22:42 2020

        SAPT2+  
    Ed Hohenstein
     6 June 2009

      Orbital Information
  --------------------------
    NSO        =       274
    NMO        =       274
    NRI        =       806
    NOCC A     =        16
    NOCC B     =        16
    FOCC A     =         4
    FOCC B     =         4
    NVIR A     =       258
    NVIR B     =       258

    Estimated memory usage: 838.2 MB

    Natural Orbital Cutoff:   1.000E-06
    Disp(T3) Truncation:            Yes
    CCD (vv|vv) Truncation:         Yes
    MBPT T2 Truncation:             Yes

    Monomer A: 140 virtual orbitals dropped
    Monomer B: 140 virtual orbitals dropped

    Elst10,r            =    -0.017962970929 [Eh]
    Exch10 (S^2)        =     0.005366937868 [Eh]
    Exch10              =     0.005380023191 [Eh]
    Ind20,r (A<-B)      =    -0.001883678739 [Eh]
    Ind20,r (B<-A)      =    -0.001884068072 [Eh]
    Ind20,r             =    -0.003767746810 [Eh]
    Exch-Ind20,r (A<-B) =     0.000581979630 [Eh]
    Exch-Ind20,r (B<-A) =     0.000582068523 [Eh]
    Exch-Ind20,r        =     0.001164048153 [Eh]
    Disp20              =    -0.004188935072 [Eh]
    Disp20 (NO)         =    -0.003762875209 [Eh]
    Exch-Disp20         =     0.000437857452 [Eh]
    Elst12,r            =     0.001292415885 [Eh]
    Exch11              =    -0.000074316443 [Eh]
    Exch12              =     0.001731757727 [Eh]
    Ind22               =    -0.000542364870 [Eh]
    Disp21              =     0.000231422289 [Eh]
    Disp22 (SDQ)        =    -0.000217372880 [Eh]

    (i =   1 of  12)          4 seconds
    (i =   2 of  12)          9 seconds
    (i =   3 of  12)         14 seconds
    (i =   4 of  12)         18 seconds
    (i =   5 of  12)         23 seconds
    (i =   6 of  12)         28 seconds
    (i =   7 of  12)         32 seconds
    (i =   8 of  12)         37 seconds
    (i =   9 of  12)         42 seconds
    (i =  10 of  12)         46 seconds
    (i =  11 of  12)         51 seconds
    (i =  12 of  12)         56 seconds

    Disp220 (T)         =    -0.000368147504 [Eh]

    (i =   1 of  12)          4 seconds
    (i =   2 of  12)          9 seconds
    (i =   3 of  12)         14 seconds
    (i =   4 of  12)         19 seconds
    (i =   5 of  12)         23 seconds
    (i =   6 of  12)         28 seconds
    (i =   7 of  12)         33 seconds
    (i =   8 of  12)         37 seconds
    (i =   9 of  12)         42 seconds
    (i =  10 of  12)         47 seconds
    (i =  11 of  12)         51 seconds
    (i =  12 of  12)         56 seconds

    Disp202 (T)         =    -0.000368145804 [Eh]

    Disp22 (T)          =    -0.000736293309 [Eh]

    Est. Disp220 (T)    =    -0.000409831819 [Eh]
    Est. Disp202 (T)    =    -0.000409829927 [Eh]

    Est. Disp22 (T)     =    -0.000819661746 [Eh]

    SAPT Results 
  --------------------------------------------------------------------------------------------------------
    Electrostatics                -16.67055504 [mEh]     -10.46093122 [kcal/mol]     -43.76853624 [kJ/mol]
      Elst10,r                    -17.96297093 [mEh]     -11.27193444 [kcal/mol]     -47.16177368 [kJ/mol]
      Elst12,r                      1.29241589 [mEh]       0.81100321 [kcal/mol]       3.39323744 [kJ/mol]

    Exchange                        7.03746448 [mEh]       4.41607563 [kcal/mol]      18.47686043 [kJ/mol]
      Exch10                        5.38002319 [mEh]       3.37601552 [kcal/mol]      14.12524894 [kJ/mol]
      Exch10(S^2)                   5.36693787 [mEh]       3.36780436 [kcal/mol]      14.09089343 [kJ/mol]
      Exch11(S^2)                  -0.07431644 [mEh]      -0.04663427 [kcal/mol]      -0.19511779 [kJ/mol]
      Exch12(S^2)                   1.73175773 [mEh]       1.08669438 [kcal/mol]       4.54672929 [kJ/mol]

    Induction                      -3.94883188 [mEh]      -2.47792942 [kcal/mol]     -10.36765667 [kJ/mol]
      Ind20,r                      -3.76774681 [mEh]      -2.36429682 [kcal/mol]      -9.89221789 [kJ/mol]
      Ind22                        -0.54236487 [mEh]      -0.34033909 [kcal/mol]      -1.42397877 [kJ/mol]
      Exch-Ind20,r                  1.16404815 [mEh]       0.73045124 [kcal/mol]       3.05620800 [kJ/mol]
      Exch-Ind22                    0.16756403 [mEh]       0.10514801 [kcal/mol]       0.43993929 [kJ/mol]
      delta HF,r (2)               -0.97033238 [mEh]      -0.60889276 [kcal/mol]      -2.54760731 [kJ/mol]

    Dispersion                     -4.55668996 [mEh]      -2.85936612 [kcal/mol]     -11.96358783 [kJ/mol]
      Disp20                       -4.18893507 [mEh]      -2.62859644 [kcal/mol]     -10.99804752 [kJ/mol]
      Disp21                        0.23142229 [mEh]       0.14521968 [kcal/mol]       0.60759914 [kJ/mol]
      Disp22 (SDQ)                 -0.21737288 [mEh]      -0.13640354 [kcal/mol]      -0.57071242 [kJ/mol]
      Disp22 (T)                   -0.73629331 [mEh]      -0.46203103 [kcal/mol]      -1.93313782 [kJ/mol]
      Est. Disp22 (T)              -0.81966175 [mEh]      -0.51434551 [kcal/mol]      -2.15202162 [kJ/mol]
      Exch-Disp20                   0.43785745 [mEh]       0.27475970 [kcal/mol]       1.14959458 [kJ/mol]

  Total HF                        -16.15697877 [mEh]     -10.13865725 [kcal/mol]     -42.42014193 [kJ/mol]
  Total SAPT0                     -19.90805639 [mEh]     -12.49249399 [kcal/mol]     -52.26859486 [kJ/mol]
  Total SAPT2                     -17.33300007 [mEh]     -10.87662175 [kcal/mol]     -45.50778541 [kJ/mol]
  Total SAPT2+                    -18.13861240 [mEh]     -11.38215113 [kcal/mol]     -47.62292031 [kJ/mol]

  Special recipe for scaled SAPT0 (see Manual):
    Electrostatics sSAPT0         -17.96297093 [mEh]     -11.27193444 [kcal/mol]     -47.16177368 [kJ/mol]
    Exchange sSAPT0                 5.38002319 [mEh]       3.37601552 [kcal/mol]      14.12524894 [kJ/mol]
    Induction sSAPT0               -3.56549594 [mEh]      -2.23738248 [kcal/mol]      -9.36120830 [kJ/mol]
    Dispersion sSAPT0              -3.74786714 [mEh]      -2.35182213 [kcal/mol]      -9.84002381 [kJ/mol]
  Total sSAPT0                    -19.89631081 [mEh]     -12.48512353 [kcal/mol]     -52.23775684 [kJ/mol]
  --------------------------------------------------------------------------------------------------------

*** tstop() called on node50.bme.utexas.edu at Thu Apr 23 17:25:39 2020
Module time:
	user time   =    1321.46 seconds =      22.02 minutes
	system time =      31.82 seconds =       0.53 minutes
	total time  =        177 seconds =       2.95 minutes
Total time:
	user time   =    1432.68 seconds =      23.88 minutes
	system time =      34.93 seconds =       0.58 minutes
	total time  =        194 seconds =       3.23 minutes

    Psi4 stopped on: Thursday, 23 April 2020 05:25PM
    Psi4 wall time for execution: 0:03:14.40

*** Psi4 exiting successfully. Buy a developer a beer!
