
    -----------------------------------------------------------------------
          Psi4: An Open-Source Ab Initio Electronic Structure Package
                               Psi4 1.4a2.dev224 

                         Git: Rev {master} e453b16 


    R. M. Parrish, L. A. Burns, D. G. A. Smith, A. C. Simmonett,
    A. E. DePrince III, E. G. Hohenstein, U. Bozkaya, A. Yu. Sokolov,
    R. Di Remigio, R. M. Richard, J. F. Gonthier, A. M. James,
    H. R. McAlexander, A. Kumar, M. Saitow, X. Wang, B. P. Pritchard,
    P. Verma, H. F. Schaefer III, K. Patkowski, R. A. King, E. F. Valeev,
    F. A. Evangelista, J. M. Turney, T. D. Crawford, and C. D. Sherrill,
    J. Chem. Theory Comput. 13(7) pp 3185--3197 (2017).
    (doi: 10.1021/acs.jctc.7b00174)


                         Additional Contributions by
    P. Kraus, H. Kruse, M. H. Lechner, M. C. Schieber, R. A. Shaw,
    A. Alenaizan, R. Galvelis, Z. L. Glick, S. Lehtola, and J. P. Misiewicz

    -----------------------------------------------------------------------


    Psi4 started on: Thursday, 23 April 2020 05:15PM

    Process ID: 17530
    Host:       node63.bme.utexas.edu
    PSIDATADIR: /home/liuchw/anaconda3/envs/psi4env/share/psi4
    Memory:     500.0 MiB
    Threads:    8
    
  ==> Input File <==

--------------------------------------------------------------------------
#Generated by lconvert.py for sapt job

memory 20 GB

molecule  {
0 1
  C      -1.309750    1.180180   -0.025170
  O      -0.725300    2.155150    0.452710
  N      -0.665620    0.095060   -0.491990
  H       0.354580    0.051450   -0.459310
  H      -1.183630   -0.673600   -0.870760
  C      -2.816720    1.156000   -0.110610
  H      -3.220630    1.262540    0.893080
  H      -3.209430    0.248630   -0.561900
  H      -3.143160    2.016600   -0.688890
--
0 1
  C       3.906910    1.087390    0.204210
  O       3.322490    0.113360   -0.275520
  N       3.262830    2.172130    0.672050
  H       2.242720    2.216570    0.637750
  H       3.780850    2.940090    1.052170
  C       5.413910    1.111670    0.289430
  H       5.805780    2.011320    0.756620
  H       5.817470    1.024120   -0.716350
  H       5.741690    0.241100    0.851610
units angstrom
no_reorient
symmetry c1
}

set {
scf_type DF
basis aug-cc-pvdz
freeze_core True
guess SAD
}
energy('sapt2+')
--------------------------------------------------------------------------

  Memory set to  18.626 GiB by Python driver.

Scratch directory: /scratch/liuchw/

  //>>>>>>>>>>>>>>>>>>>>>>>>>>>>>>>>>>>//
  //              Dimer HF             //
  //<<<<<<<<<<<<<<<<<<<<<<<<<<<<<<<<<<<//


*** tstart() called on node63.bme.utexas.edu
*** at Thu Apr 23 17:15:38 2020

   => Loading Basis Set <=

    Name: AUG-CC-PVDZ
    Role: ORBITAL
    Keyword: BASIS
    atoms 1, 6, 10, 15           entry C          line   182 file /home/liuchw/anaconda3/envs/psi4env/share/psi4/basis/aug-cc-pvdz.gbs 
    atoms 2, 11                  entry O          line   254 file /home/liuchw/anaconda3/envs/psi4env/share/psi4/basis/aug-cc-pvdz.gbs 
    atoms 3, 12                  entry N          line   218 file /home/liuchw/anaconda3/envs/psi4env/share/psi4/basis/aug-cc-pvdz.gbs 
    atoms 4-5, 7-9, 13-14, 16-18 entry H          line    40 file /home/liuchw/anaconda3/envs/psi4env/share/psi4/basis/aug-cc-pvdz.gbs 


         ---------------------------------------------------------
                                   SCF
               by Justin Turney, Rob Parrish, Andy Simmonett
                          and Daniel G. A. Smith
                              RHF Reference
                        8 Threads,  19073 MiB Core
         ---------------------------------------------------------

  ==> Geometry <==

    Molecular point group: c1
    Full point group: C1

    Geometry (in Angstrom), charge = 0, multiplicity = 1:

       Center              X                  Y                   Z               Mass       
    ------------   -----------------  -----------------  -----------------  -----------------
         C           -2.608346798282     0.046294286727    -0.114527926612    12.000000000000
         O           -2.023896798282     1.021264286727     0.363352073388    15.994914619570
         N           -1.964216798282    -1.038825713273    -0.581347926612    14.003074004430
         H           -0.944016798282    -1.082435713273    -0.548667926612     1.007825032230
         H           -2.482226798282    -1.807485713273    -0.960117926612     1.007825032230
         C           -4.115316798282     0.022114286727    -0.199967926612    12.000000000000
         H           -4.519226798282     0.128654286727     0.803722073388     1.007825032230
         H           -4.508026798282    -0.885255713273    -0.651257926612     1.007825032230
         H           -4.441756798282     0.882714286727    -0.778247926612     1.007825032230
         C            2.608313201718    -0.046495713273     0.114852073388    12.000000000000
         O            2.023893201718    -1.020525713273    -0.364877926612    15.994914619570
         N            1.964233201718     1.038244286727     0.582692073388    14.003074004430
         H            0.944123201718     1.082684286727     0.548392073388     1.007825032230
         H            2.482253201718     1.806204286727     0.962812073388     1.007825032230
         C            4.115313201718    -0.022215713273     0.200072073388    12.000000000000
         H            4.507183201718     0.877434286727     0.667262073388     1.007825032230
         H            4.518873201718    -0.109765713273    -0.805707926612     1.007825032230
         H            4.443093201718    -0.892785713273     0.762252073388     1.007825032230

  Running in c1 symmetry.

  Rotational constants: A =      0.17892  B =      0.01774  C =      0.01623 [cm^-1]
  Rotational constants: A =   5363.91496  B =    531.74673  C =    486.67711 [MHz]
  Nuclear repulsion =  345.525760988745731

  Charge       = 0
  Multiplicity = 1
  Electrons    = 64
  Nalpha       = 32
  Nbeta        = 32

  ==> Algorithm <==

  SCF Algorithm Type is DF.
  DIIS enabled.
  MOM disabled.
  Fractional occupation disabled.
  Guess Type is SAD.
  Energy threshold   = 1.00e-08
  Density threshold  = 1.00e-08
  Integral threshold = 0.00e+00

  ==> Primary Basis <==

  Basis Set: AUG-CC-PVDZ
    Blend: AUG-CC-PVDZ
    Number of shells: 122
    Number of basis function: 274
    Number of Cartesian functions: 290
    Spherical Harmonics?: true
    Max angular momentum: 2

   => Loading Basis Set <=

    Name: (AUG-CC-PVDZ AUX)
    Role: JKFIT
    Keyword: DF_BASIS_SCF
    atoms 1, 6, 10, 15           entry C          line   154 file /home/liuchw/anaconda3/envs/psi4env/share/psi4/basis/aug-cc-pvdz-jkfit.gbs 
    atoms 2, 11                  entry O          line   270 file /home/liuchw/anaconda3/envs/psi4env/share/psi4/basis/aug-cc-pvdz-jkfit.gbs 
    atoms 3, 12                  entry N          line   212 file /home/liuchw/anaconda3/envs/psi4env/share/psi4/basis/aug-cc-pvdz-jkfit.gbs 
    atoms 4-5, 7-9, 13-14, 16-18 entry H          line    70 file /home/liuchw/anaconda3/envs/psi4env/share/psi4/basis/aug-cc-pvdz-jkfit.gbs 

  ==> Pre-Iterations <==

   -------------------------------------------------------
    Irrep   Nso     Nmo     Nalpha   Nbeta   Ndocc  Nsocc
   -------------------------------------------------------
     A        274     274       0       0       0       0
   -------------------------------------------------------
    Total     274     274      32      32      32       0
   -------------------------------------------------------

  ==> Integral Setup <==

  ==> DiskDFJK: Density-Fitted J/K Matrices <==

    J tasked:                  Yes
    K tasked:                  Yes
    wK tasked:                  No
    OpenMP threads:              8
    Integrals threads:           8
    Memory [MiB]:            14305
    Algorithm:                Core
    Integral Cache:           SAVE
    Schwarz Cutoff:          1E-12
    Fitting Condition:       1E-10

   => Auxiliary Basis Set <=

  Basis Set: (AUG-CC-PVDZ AUX)
    Blend: AUG-CC-PVDZ-JKFIT
    Number of shells: 344
    Number of basis function: 1008
    Number of Cartesian functions: 1158
    Spherical Harmonics?: true
    Max angular momentum: 3

  Minimum eigenvalue in the overlap matrix is 2.6424634013E-05.
  Using Symmetric Orthogonalization.

  SCF Guess: Superposition of Atomic Densities via on-the-fly atomic UHF.

  ==> Iterations <==

                           Total Energy        Delta E     RMS |[F,P]|

   @DF-RHF iter SAD:  -414.41957246386210   -4.14420e+02   0.00000e+00 
   @DF-RHF iter   1:  -415.68634181243840   -1.26677e+00   3.01920e-03 DIIS
   @DF-RHF iter   2:  -415.94836221337249   -2.62020e-01   1.67786e-03 DIIS
   @DF-RHF iter   3:  -416.02585874195529   -7.74965e-02   3.30586e-04 DIIS
   @DF-RHF iter   4:  -416.03050118837729   -4.64245e-03   1.31613e-04 DIIS
   @DF-RHF iter   5:  -416.03139568390344   -8.94496e-04   2.31651e-05 DIIS
   @DF-RHF iter   6:  -416.03144408397100   -4.84001e-05   1.09691e-05 DIIS
   @DF-RHF iter   7:  -416.03145310281957   -9.01885e-06   3.82621e-06 DIIS
   @DF-RHF iter   8:  -416.03145492547520   -1.82266e-06   1.33104e-06 DIIS
   @DF-RHF iter   9:  -416.03145515898495   -2.33510e-07   3.49696e-07 DIIS
   @DF-RHF iter  10:  -416.03145517074108   -1.17561e-08   1.12032e-07 DIIS
   @DF-RHF iter  11:  -416.03145517197959   -1.23850e-09   2.62831e-08 DIIS
   @DF-RHF iter  12:  -416.03145517203995   -6.03677e-11   6.38035e-09 DIIS
  Energy and wave function converged.


  ==> Post-Iterations <==

    Orbital Energies [Eh]
    ---------------------

    Doubly Occupied:                                                      

       1A    -20.521249     2A    -20.521233     3A    -15.592332  
       4A    -15.592321     5A    -11.359039     6A    -11.359037  
       7A    -11.242114     8A    -11.242114     9A     -1.372995  
      10A     -1.372730    11A     -1.214820    12A     -1.214523  
      13A     -1.004342    14A     -1.003934    15A     -0.800667  
      16A     -0.799438    17A     -0.724536    18A     -0.722788  
      19A     -0.664404    20A     -0.661288    21A     -0.612719  
      22A     -0.612475    23A     -0.579814    24A     -0.577929  
      25A     -0.560825    26A     -0.560184    27A     -0.520766  
      28A     -0.520093    29A     -0.423081    30A     -0.418268  
      31A     -0.409714    32A     -0.408584  

    Virtual:                                                              

      33A      0.032464    34A      0.035985    35A      0.049912  
      36A      0.054542    37A      0.060260    38A      0.060628  
      39A      0.064486    40A      0.071949    41A      0.096602  
      42A      0.099679    43A      0.118154    44A      0.118838  
      45A      0.121642    46A      0.135019    47A      0.146340  
      48A      0.150751    49A      0.153194    50A      0.157320  
      51A      0.158503    52A      0.168391    53A      0.169606  
      54A      0.174933    55A      0.185387    56A      0.189570  
      57A      0.190353    58A      0.191809    59A      0.196440  
      60A      0.201571    61A      0.209646    62A      0.221191  
      63A      0.223145    64A      0.233038    65A      0.241270  
      66A      0.263829    67A      0.289495    68A      0.290095  
      69A      0.293620    70A      0.303434    71A      0.303836  
      72A      0.306521    73A      0.314932    74A      0.322297  
      75A      0.342785    76A      0.343448    77A      0.343863  
      78A      0.355403    79A      0.372701    80A      0.376783  
      81A      0.383947    82A      0.397461    83A      0.406088  
      84A      0.406810    85A      0.415567    86A      0.422548  
      87A      0.425127    88A      0.435535    89A      0.441128  
      90A      0.444891    91A      0.447827    92A      0.456307  
      93A      0.468635    94A      0.470115    95A      0.484836  
      96A      0.492358    97A      0.493371    98A      0.510619  
      99A      0.521491   100A      0.525258   101A      0.535966  
     102A      0.545702   103A      0.554270   104A      0.555831  
     105A      0.567220   106A      0.568889   107A      0.582012  
     108A      0.598098   109A      0.602798   110A      0.604258  
     111A      0.606883   112A      0.617572   113A      0.627109  
     114A      0.638604   115A      0.643478   116A      0.655227  
     117A      0.657687   118A      0.666045   119A      0.669478  
     120A      0.686240   121A      0.692740   122A      0.702366  
     123A      0.713442   124A      0.724857   125A      0.725309  
     126A      0.731302   127A      0.746169   128A      0.760029  
     129A      0.765198   130A      0.769690   131A      0.777256  
     132A      0.779280   133A      0.796702   134A      0.802779  
     135A      0.808089   136A      0.809460   137A      0.841807  
     138A      0.865022   139A      0.893408   140A      0.894092  
     141A      0.899142   142A      0.910036   143A      0.919911  
     144A      0.939310   145A      0.944609   146A      0.952326  
     147A      0.966495   148A      0.997484   149A      1.005806  
     150A      1.013469   151A      1.031927   152A      1.045021  
     153A      1.069710   154A      1.101991   155A      1.104097  
     156A      1.105644   157A      1.113221   158A      1.117389  
     159A      1.126367   160A      1.135458   161A      1.148062  
     162A      1.165354   163A      1.203547   164A      1.233149  
     165A      1.260072   166A      1.273615   167A      1.303973  
     168A      1.305892   169A      1.327846   170A      1.336619  
     171A      1.384546   172A      1.393359   173A      1.402263  
     174A      1.412477   175A      1.431310   176A      1.440763  
     177A      1.490892   178A      1.497129   179A      1.511489  
     180A      1.527850   181A      1.550092   182A      1.565707  
     183A      1.579672   184A      1.609068   185A      1.635232  
     186A      1.669898   187A      1.728871   188A      1.729412  
     189A      1.750717   190A      1.758625   191A      1.801062  
     192A      1.812967   193A      1.836708   194A      1.851692  
     195A      1.883079   196A      1.884526   197A      1.910984  
     198A      1.921530   199A      1.933348   200A      1.937464  
     201A      1.972684   202A      1.979330   203A      2.018961  
     204A      2.026570   205A      2.041140   206A      2.048104  
     207A      2.062430   208A      2.066429   209A      2.129896  
     210A      2.137771   211A      2.155296   212A      2.164800  
     213A      2.196683   214A      2.200829   215A      2.263804  
     216A      2.265344   217A      2.268581   218A      2.270240  
     219A      2.299032   220A      2.320123   221A      2.337227  
     222A      2.339747   223A      2.355618   224A      2.373259  
     225A      2.378880   226A      2.386011   227A      2.398974  
     228A      2.399539   229A      2.484445   230A      2.501979  
     231A      2.507999   232A      2.517931   233A      2.544244  
     234A      2.561690   235A      2.625402   236A      2.638498  
     237A      2.639500   238A      2.662582   239A      2.722449  
     240A      2.729384   241A      2.787482   242A      2.794335  
     243A      2.804943   244A      2.809137   245A      2.832619  
     246A      2.841226   247A      2.863645   248A      2.878972  
     249A      2.908803   250A      2.909857   251A      2.989463  
     252A      2.996052   253A      3.053377   254A      3.085421  
     255A      3.117741   256A      3.121685   257A      3.178470  
     258A      3.184623   259A      3.434639   260A      3.445112  
     261A      3.613783   262A      3.626071   263A      3.673589  
     264A      3.702992   265A      3.772574   266A      3.790636  
     267A      3.819393   268A      3.828270   269A      3.928898  
     270A      3.946997   271A      4.050189   272A      4.059789  
     273A      4.185528   274A      4.192599  

    Final Occupation by Irrep:
              A 
    DOCC [    32 ]

  @DF-RHF Final Energy:  -416.03145517203995

   => Energetics <=

    Nuclear Repulsion Energy =            345.5257609887457306
    One-Electron Energy =               -1252.7337178189784481
    Two-Electron Energy =                 491.1765016581927057
    Total Energy =                       -416.0314551720399550

Computation Completed


Properties will be evaluated at   0.000000,   0.000000,   0.000000 [a0]

Properties computed using the SCF density matrix

  Nuclear Dipole Moment: [e a0]
     X:     0.0003      Y:    -0.0000      Z:     0.0004

  Electronic Dipole Moment: [e a0]
     X:    -0.0002      Y:    -0.0006      Z:     0.0006

  Dipole Moment: [e a0]
     X:     0.0001      Y:    -0.0007      Z:     0.0010     Total:     0.0012

  Dipole Moment: [D]
     X:     0.0002      Y:    -0.0017      Z:     0.0026     Total:     0.0031


*** tstop() called on node63.bme.utexas.edu at Thu Apr 23 17:15:46 2020
Module time:
	user time   =      54.93 seconds =       0.92 minutes
	system time =       2.34 seconds =       0.04 minutes
	total time  =          8 seconds =       0.13 minutes
Total time:
	user time   =      54.93 seconds =       0.92 minutes
	system time =       2.34 seconds =       0.04 minutes
	total time  =          8 seconds =       0.13 minutes

  //>>>>>>>>>>>>>>>>>>>>>>>>>>>>>>>>>>>//
  //            Monomer A HF           //
  //<<<<<<<<<<<<<<<<<<<<<<<<<<<<<<<<<<<//


*** tstart() called on node63.bme.utexas.edu
*** at Thu Apr 23 17:15:46 2020

   => Loading Basis Set <=

    Name: AUG-CC-PVDZ
    Role: ORBITAL
    Keyword: BASIS
    atoms 1, 6, 10, 15           entry C          line   182 file /home/liuchw/anaconda3/envs/psi4env/share/psi4/basis/aug-cc-pvdz.gbs 
    atoms 2, 11                  entry O          line   254 file /home/liuchw/anaconda3/envs/psi4env/share/psi4/basis/aug-cc-pvdz.gbs 
    atoms 3, 12                  entry N          line   218 file /home/liuchw/anaconda3/envs/psi4env/share/psi4/basis/aug-cc-pvdz.gbs 
    atoms 4-5, 7-9, 13-14, 16-18 entry H          line    40 file /home/liuchw/anaconda3/envs/psi4env/share/psi4/basis/aug-cc-pvdz.gbs 


         ---------------------------------------------------------
                                   SCF
               by Justin Turney, Rob Parrish, Andy Simmonett
                          and Daniel G. A. Smith
                              RHF Reference
                        8 Threads,  19073 MiB Core
         ---------------------------------------------------------

  ==> Geometry <==

    Molecular point group: c1
    Full point group: C1

    Geometry (in Angstrom), charge = 0, multiplicity = 1:

       Center              X                  Y                   Z               Mass       
    ------------   -----------------  -----------------  -----------------  -----------------
         C           -2.608346798282     0.046294286727    -0.114527926612    12.000000000000
         O           -2.023896798282     1.021264286727     0.363352073388    15.994914619570
         N           -1.964216798282    -1.038825713273    -0.581347926612    14.003074004430
         H           -0.944016798282    -1.082435713273    -0.548667926612     1.007825032230
         H           -2.482226798282    -1.807485713273    -0.960117926612     1.007825032230
         C           -4.115316798282     0.022114286727    -0.199967926612    12.000000000000
         H           -4.519226798282     0.128654286727     0.803722073388     1.007825032230
         H           -4.508026798282    -0.885255713273    -0.651257926612     1.007825032230
         H           -4.441756798282     0.882714286727    -0.778247926612     1.007825032230
      Gh(C)           2.608313201718    -0.046495713273     0.114852073388    12.000000000000
      Gh(O)           2.023893201718    -1.020525713273    -0.364877926612    15.994914619570
      Gh(N)           1.964233201718     1.038244286727     0.582692073388    14.003074004430
      Gh(H)           0.944123201718     1.082684286727     0.548392073388     1.007825032230
      Gh(H)           2.482253201718     1.806204286727     0.962812073388     1.007825032230
      Gh(C)           4.115313201718    -0.022215713273     0.200072073388    12.000000000000
      Gh(H)           4.507183201718     0.877434286727     0.667262073388     1.007825032230
      Gh(H)           4.518873201718    -0.109765713273    -0.805707926612     1.007825032230
      Gh(H)           4.443093201718    -0.892785713273     0.762252073388     1.007825032230

  Running in c1 symmetry.

  Rotational constants: A =      0.17892  B =      0.01774  C =      0.01623 [cm^-1]
  Rotational constants: A =   5363.91496  B =    531.74673  C =    486.67711 [MHz]
  Nuclear repulsion =  121.855395054718628

  Charge       = 0
  Multiplicity = 1
  Electrons    = 32
  Nalpha       = 16
  Nbeta        = 16

  ==> Algorithm <==

  SCF Algorithm Type is DF.
  DIIS enabled.
  MOM disabled.
  Fractional occupation disabled.
  Guess Type is SAD.
  Energy threshold   = 1.00e-08
  Density threshold  = 1.00e-08
  Integral threshold = 0.00e+00

  ==> Primary Basis <==

  Basis Set: AUG-CC-PVDZ
    Blend: AUG-CC-PVDZ
    Number of shells: 122
    Number of basis function: 274
    Number of Cartesian functions: 290
    Spherical Harmonics?: true
    Max angular momentum: 2

   => Loading Basis Set <=

    Name: (AUG-CC-PVDZ AUX)
    Role: JKFIT
    Keyword: DF_BASIS_SCF
    atoms 1, 6, 10, 15           entry C          line   154 file /home/liuchw/anaconda3/envs/psi4env/share/psi4/basis/aug-cc-pvdz-jkfit.gbs 
    atoms 2, 11                  entry O          line   270 file /home/liuchw/anaconda3/envs/psi4env/share/psi4/basis/aug-cc-pvdz-jkfit.gbs 
    atoms 3, 12                  entry N          line   212 file /home/liuchw/anaconda3/envs/psi4env/share/psi4/basis/aug-cc-pvdz-jkfit.gbs 
    atoms 4-5, 7-9, 13-14, 16-18 entry H          line    70 file /home/liuchw/anaconda3/envs/psi4env/share/psi4/basis/aug-cc-pvdz-jkfit.gbs 

  ==> Pre-Iterations <==

   -------------------------------------------------------
    Irrep   Nso     Nmo     Nalpha   Nbeta   Ndocc  Nsocc
   -------------------------------------------------------
     A        274     274       0       0       0       0
   -------------------------------------------------------
    Total     274     274      16      16      16       0
   -------------------------------------------------------

  ==> Integral Setup <==

  ==> DiskDFJK: Density-Fitted J/K Matrices <==

    J tasked:                  Yes
    K tasked:                  Yes
    wK tasked:                  No
    OpenMP threads:              8
    Integrals threads:           8
    Memory [MiB]:            14305
    Algorithm:                Core
    Integral Cache:           LOAD
    Schwarz Cutoff:          1E-12
    Fitting Condition:       1E-10

   => Auxiliary Basis Set <=

  Basis Set: (AUG-CC-PVDZ AUX)
    Blend: AUG-CC-PVDZ-JKFIT
    Number of shells: 344
    Number of basis function: 1008
    Number of Cartesian functions: 1158
    Spherical Harmonics?: true
    Max angular momentum: 3

  Minimum eigenvalue in the overlap matrix is 2.6424634013E-05.
  Using Symmetric Orthogonalization.

  SCF Guess: Superposition of Atomic Densities via on-the-fly atomic UHF.

  ==> Iterations <==

                           Total Energy        Delta E     RMS |[F,P]|

   @DF-RHF iter SAD:  -207.19858326633366   -2.07199e+02   0.00000e+00 
   @DF-RHF iter   1:  -207.83260258363848   -6.34019e-01   2.15988e-03 DIIS
   @DF-RHF iter   2:  -207.96620001751609   -1.33597e-01   1.22895e-03 DIIS
   @DF-RHF iter   3:  -208.00771415952252   -4.15141e-02   2.41820e-04 DIIS
   @DF-RHF iter   4:  -208.01018320959366   -2.46905e-03   9.60401e-05 DIIS
   @DF-RHF iter   5:  -208.01066713780793   -4.83928e-04   1.71906e-05 DIIS
   @DF-RHF iter   6:  -208.01069456493889   -2.74271e-05   8.23008e-06 DIIS
   @DF-RHF iter   7:  -208.01069974772435   -5.18279e-06   2.94862e-06 DIIS
   @DF-RHF iter   8:  -208.01070077299045   -1.02527e-06   9.95378e-07 DIIS
   @DF-RHF iter   9:  -208.01070090005481   -1.27064e-07   2.58231e-07 DIIS
   @DF-RHF iter  10:  -208.01070090618367   -6.12886e-09   8.24780e-08 DIIS
   @DF-RHF iter  11:  -208.01070090684647   -6.62794e-10   1.86268e-08 DIIS
   @DF-RHF iter  12:  -208.01070090687858   -3.21165e-11   4.17204e-09 DIIS
  Energy and wave function converged.


  ==> Post-Iterations <==

    Orbital Energies [Eh]
    ---------------------

    Doubly Occupied:                                                      

       1A    -20.521877     2A    -15.601158     3A    -11.361276  
       4A    -11.244713     5A     -1.373823     6A     -1.221594  
       7A     -1.007168     8A     -0.806598     9A     -0.731750  
      10A     -0.664301    11A     -0.615272    12A     -0.580148  
      13A     -0.563952    14A     -0.523728    15A     -0.420640  
      16A     -0.413135  

    Virtual:                                                              

      17A      0.022833    18A      0.032264    19A      0.045237  
      20A      0.055519    21A      0.055909    22A      0.057120  
      23A      0.062695    24A      0.071656    25A      0.084462  
      26A      0.097461    27A      0.105971    28A      0.108894  
      29A      0.118937    30A      0.124405    31A      0.127917  
      32A      0.140464    33A      0.141034    34A      0.145510  
      35A      0.148697    36A      0.156618    37A      0.162377  
      38A      0.172162    39A      0.176342    40A      0.179029  
      41A      0.186937    42A      0.188939    43A      0.189938  
      44A      0.204485    45A      0.209152    46A      0.213553  
      47A      0.231958    48A      0.240319    49A      0.248754  
      50A      0.250848    51A      0.261434    52A      0.264584  
      53A      0.283790    54A      0.298704    55A      0.299355  
      56A      0.306502    57A      0.322152    58A      0.332674  
      59A      0.336276    60A      0.344135    61A      0.347120  
      62A      0.359501    63A      0.362678    64A      0.386409  
      65A      0.388602    66A      0.399060    67A      0.408935  
      68A      0.412393    69A      0.415144    70A      0.423896  
      71A      0.439620    72A      0.443758    73A      0.444552  
      74A      0.449871    75A      0.455904    76A      0.464252  
      77A      0.476421    78A      0.479185    79A      0.492271  
      80A      0.501779    81A      0.514383    82A      0.518903  
      83A      0.520783    84A      0.524513    85A      0.536899  
      86A      0.545914    87A      0.562063    88A      0.568088  
      89A      0.569971    90A      0.575526    91A      0.590051  
      92A      0.591896    93A      0.598004    94A      0.606409  
      95A      0.620824    96A      0.622530    97A      0.645261  
      98A      0.645672    99A      0.667198   100A      0.667810  
     101A      0.673148   102A      0.682703   103A      0.688042  
     104A      0.700506   105A      0.707525   106A      0.719997  
     107A      0.725536   108A      0.731680   109A      0.745535  
     110A      0.760538   111A      0.766488   112A      0.769145  
     113A      0.792071   114A      0.795642   115A      0.803744  
     116A      0.806522   117A      0.813752   118A      0.819361  
     119A      0.832410   120A      0.850931   121A      0.867596  
     122A      0.868760   123A      0.872179   124A      0.900872  
     125A      0.907092   126A      0.907677   127A      0.926039  
     128A      0.931923   129A      0.977263   130A      0.988909  
     131A      0.992824   132A      1.019938   133A      1.030242  
     134A      1.034456   135A      1.053634   136A      1.061865  
     137A      1.080358   138A      1.093774   139A      1.105447  
     140A      1.113867   141A      1.127061   142A      1.144812  
     143A      1.146460   144A      1.160891   145A      1.175199  
     146A      1.193406   147A      1.221467   148A      1.236538  
     149A      1.239517   150A      1.276867   151A      1.292120  
     152A      1.309143   153A      1.322389   154A      1.344364  
     155A      1.360797   156A      1.405237   157A      1.410164  
     158A      1.423719   159A      1.442293   160A      1.461247  
     161A      1.488333   162A      1.507092   163A      1.531272  
     164A      1.545127   165A      1.550066   166A      1.567563  
     167A      1.588421   168A      1.649597   169A      1.697184  
     170A      1.726085   171A      1.737420   172A      1.757776  
     173A      1.805859   174A      1.842064   175A      1.881353  
     176A      1.886800   177A      1.912926   178A      1.929938  
     179A      1.938688   180A      1.973966   181A      2.019261  
     182A      2.035534   183A      2.046020   184A      2.069324  
     185A      2.127583   186A      2.154495   187A      2.194219  
     188A      2.243505   189A      2.252323   190A      2.263000  
     191A      2.264576   192A      2.266700   193A      2.296902  
     194A      2.318758   195A      2.336663   196A      2.339439  
     197A      2.354060   198A      2.359336   199A      2.371411  
     200A      2.372058   201A      2.388021   202A      2.393898  
     203A      2.395745   204A      2.424137   205A      2.477430  
     206A      2.505410   207A      2.508207   208A      2.511657  
     209A      2.530576   210A      2.543565   211A      2.594206  
     212A      2.633330   213A      2.635757   214A      2.673377  
     215A      2.722025   216A      2.780574   217A      2.784088  
     218A      2.790120   219A      2.802838   220A      2.824821  
     221A      2.829343   222A      2.867866   223A      2.873706  
     224A      2.905818   225A      2.986648   226A      2.988928  
     227A      3.054644   228A      3.066764   229A      3.112852  
     230A      3.129570   231A      3.176371   232A      3.222095  
     233A      3.291540   234A      3.295268   235A      3.372170  
     236A      3.401407   237A      3.429875   238A      3.502499  
     239A      3.559937   240A      3.591938   241A      3.652994  
     242A      3.678132   243A      3.679533   244A      3.690416  
     245A      3.761263   246A      3.800146   247A      3.824864  
     248A      3.867239   249A      3.943947   250A      4.052894  
     251A      4.093002   252A      4.193941   253A      4.432433  
     254A      4.554553   255A      4.584697   256A      4.623188  
     257A      4.783469   258A      4.970759   259A      5.007437  
     260A      5.084837   261A      5.122501   262A      5.132853  
     263A      5.185950   264A      5.216386   265A      5.861508  
     266A      5.992368   267A      5.994119   268A      6.170718  
     269A      6.380331   270A      6.971903   271A     18.368069  
     272A     19.003057   273A     25.494584   274A     33.529372  

    Final Occupation by Irrep:
              A 
    DOCC [    16 ]

  @DF-RHF Final Energy:  -208.01070090687858

   => Energetics <=

    Nuclear Repulsion Energy =            121.8553950547186275
    One-Electron Energy =                -524.4299284542671558
    Two-Electron Energy =                 194.5638324926699170
    Total Energy =                       -208.0107009068785828

Computation Completed


Properties will be evaluated at   0.000000,   0.000000,   0.000000 [a0]

Properties computed using the SCF density matrix

  Nuclear Dipole Moment: [e a0]
     X:  -164.7424      Y:    -2.7496      Z:    -9.7966

  Electronic Dipole Moment: [e a0]
     X:   164.1607      Y:     1.2692      Z:     9.0887

  Dipole Moment: [e a0]
     X:    -0.5817      Y:    -1.4804      Z:    -0.7079     Total:     1.7410

  Dipole Moment: [D]
     X:    -1.4785      Y:    -3.7628      Z:    -1.7994     Total:     4.4252


*** tstop() called on node63.bme.utexas.edu at Thu Apr 23 17:15:51 2020
Module time:
	user time   =      31.49 seconds =       0.52 minutes
	system time =       1.63 seconds =       0.03 minutes
	total time  =          5 seconds =       0.08 minutes
Total time:
	user time   =      86.46 seconds =       1.44 minutes
	system time =       3.98 seconds =       0.07 minutes
	total time  =         13 seconds =       0.22 minutes

  //>>>>>>>>>>>>>>>>>>>>>>>>>>>>>>>>>>>//
  //            Monomer B HF           //
  //<<<<<<<<<<<<<<<<<<<<<<<<<<<<<<<<<<<//


*** tstart() called on node63.bme.utexas.edu
*** at Thu Apr 23 17:15:51 2020

   => Loading Basis Set <=

    Name: AUG-CC-PVDZ
    Role: ORBITAL
    Keyword: BASIS
    atoms 1, 6, 10, 15           entry C          line   182 file /home/liuchw/anaconda3/envs/psi4env/share/psi4/basis/aug-cc-pvdz.gbs 
    atoms 2, 11                  entry O          line   254 file /home/liuchw/anaconda3/envs/psi4env/share/psi4/basis/aug-cc-pvdz.gbs 
    atoms 3, 12                  entry N          line   218 file /home/liuchw/anaconda3/envs/psi4env/share/psi4/basis/aug-cc-pvdz.gbs 
    atoms 4-5, 7-9, 13-14, 16-18 entry H          line    40 file /home/liuchw/anaconda3/envs/psi4env/share/psi4/basis/aug-cc-pvdz.gbs 


         ---------------------------------------------------------
                                   SCF
               by Justin Turney, Rob Parrish, Andy Simmonett
                          and Daniel G. A. Smith
                              RHF Reference
                        8 Threads,  19073 MiB Core
         ---------------------------------------------------------

  ==> Geometry <==

    Molecular point group: c1
    Full point group: C1

    Geometry (in Angstrom), charge = 0, multiplicity = 1:

       Center              X                  Y                   Z               Mass       
    ------------   -----------------  -----------------  -----------------  -----------------
      Gh(C)          -2.608346798282     0.046294286727    -0.114527926612    12.000000000000
      Gh(O)          -2.023896798282     1.021264286727     0.363352073388    15.994914619570
      Gh(N)          -1.964216798282    -1.038825713273    -0.581347926612    14.003074004430
      Gh(H)          -0.944016798282    -1.082435713273    -0.548667926612     1.007825032230
      Gh(H)          -2.482226798282    -1.807485713273    -0.960117926612     1.007825032230
      Gh(C)          -4.115316798282     0.022114286727    -0.199967926612    12.000000000000
      Gh(H)          -4.519226798282     0.128654286727     0.803722073388     1.007825032230
      Gh(H)          -4.508026798282    -0.885255713273    -0.651257926612     1.007825032230
      Gh(H)          -4.441756798282     0.882714286727    -0.778247926612     1.007825032230
         C            2.608313201718    -0.046495713273     0.114852073388    12.000000000000
         O            2.023893201718    -1.020525713273    -0.364877926612    15.994914619570
         N            1.964233201718     1.038244286727     0.582692073388    14.003074004430
         H            0.944123201718     1.082684286727     0.548392073388     1.007825032230
         H            2.482253201718     1.806204286727     0.962812073388     1.007825032230
         C            4.115313201718    -0.022215713273     0.200072073388    12.000000000000
         H            4.507183201718     0.877434286727     0.667262073388     1.007825032230
         H            4.518873201718    -0.109765713273    -0.805707926612     1.007825032230
         H            4.443093201718    -0.892785713273     0.762252073388     1.007825032230

  Running in c1 symmetry.

  Rotational constants: A =      0.17892  B =      0.01774  C =      0.01623 [cm^-1]
  Rotational constants: A =   5363.91496  B =    531.74673  C =    486.67711 [MHz]
  Nuclear repulsion =  121.855634128121380

  Charge       = 0
  Multiplicity = 1
  Electrons    = 32
  Nalpha       = 16
  Nbeta        = 16

  ==> Algorithm <==

  SCF Algorithm Type is DF.
  DIIS enabled.
  MOM disabled.
  Fractional occupation disabled.
  Guess Type is SAD.
  Energy threshold   = 1.00e-08
  Density threshold  = 1.00e-08
  Integral threshold = 0.00e+00

  ==> Primary Basis <==

  Basis Set: AUG-CC-PVDZ
    Blend: AUG-CC-PVDZ
    Number of shells: 122
    Number of basis function: 274
    Number of Cartesian functions: 290
    Spherical Harmonics?: true
    Max angular momentum: 2

   => Loading Basis Set <=

    Name: (AUG-CC-PVDZ AUX)
    Role: JKFIT
    Keyword: DF_BASIS_SCF
    atoms 1, 6, 10, 15           entry C          line   154 file /home/liuchw/anaconda3/envs/psi4env/share/psi4/basis/aug-cc-pvdz-jkfit.gbs 
    atoms 2, 11                  entry O          line   270 file /home/liuchw/anaconda3/envs/psi4env/share/psi4/basis/aug-cc-pvdz-jkfit.gbs 
    atoms 3, 12                  entry N          line   212 file /home/liuchw/anaconda3/envs/psi4env/share/psi4/basis/aug-cc-pvdz-jkfit.gbs 
    atoms 4-5, 7-9, 13-14, 16-18 entry H          line    70 file /home/liuchw/anaconda3/envs/psi4env/share/psi4/basis/aug-cc-pvdz-jkfit.gbs 

  ==> Pre-Iterations <==

   -------------------------------------------------------
    Irrep   Nso     Nmo     Nalpha   Nbeta   Ndocc  Nsocc
   -------------------------------------------------------
     A        274     274       0       0       0       0
   -------------------------------------------------------
    Total     274     274      16      16      16       0
   -------------------------------------------------------

  ==> Integral Setup <==

  ==> DiskDFJK: Density-Fitted J/K Matrices <==

    J tasked:                  Yes
    K tasked:                  Yes
    wK tasked:                  No
    OpenMP threads:              8
    Integrals threads:           8
    Memory [MiB]:            14305
    Algorithm:                Core
    Integral Cache:           LOAD
    Schwarz Cutoff:          1E-12
    Fitting Condition:       1E-10

   => Auxiliary Basis Set <=

  Basis Set: (AUG-CC-PVDZ AUX)
    Blend: AUG-CC-PVDZ-JKFIT
    Number of shells: 344
    Number of basis function: 1008
    Number of Cartesian functions: 1158
    Spherical Harmonics?: true
    Max angular momentum: 3

  Minimum eigenvalue in the overlap matrix is 2.6424634013E-05.
  Using Symmetric Orthogonalization.

  SCF Guess: Superposition of Atomic Densities via on-the-fly atomic UHF.

  ==> Iterations <==

                           Total Energy        Delta E     RMS |[F,P]|

   @DF-RHF iter SAD:  -207.19861030873238   -2.07199e+02   0.00000e+00 
   @DF-RHF iter   1:  -207.83261201444816   -6.34002e-01   2.15986e-03 DIIS
   @DF-RHF iter   2:  -207.96621016850975   -1.33598e-01   1.22887e-03 DIIS
   @DF-RHF iter   3:  -208.00771879879701   -4.15086e-02   2.41799e-04 DIIS
   @DF-RHF iter   4:  -208.01018757835712   -2.46878e-03   9.60418e-05 DIIS
   @DF-RHF iter   5:  -208.01067150171650   -4.83923e-04   1.71912e-05 DIIS
   @DF-RHF iter   6:  -208.01069893419515   -2.74325e-05   8.23124e-06 DIIS
   @DF-RHF iter   7:  -208.01070411862807   -5.18443e-06   2.94921e-06 DIIS
   @DF-RHF iter   8:  -208.01070514427275   -1.02564e-06   9.95362e-07 DIIS
   @DF-RHF iter   9:  -208.01070527132981   -1.27057e-07   2.58182e-07 DIIS
   @DF-RHF iter  10:  -208.01070527745583   -6.12602e-09   8.24608e-08 DIIS
   @DF-RHF iter  11:  -208.01070527811808   -6.62254e-10   1.86251e-08 DIIS
   @DF-RHF iter  12:  -208.01070527815051   -3.24292e-11   4.17322e-09 DIIS
  Energy and wave function converged.


  ==> Post-Iterations <==

    Orbital Energies [Eh]
    ---------------------

    Doubly Occupied:                                                      

       1A    -20.521891     2A    -15.601145     3A    -11.361275  
       4A    -11.244711     5A     -1.373848     6A     -1.221590  
       7A     -1.007163     8A     -0.806588     9A     -0.731748  
      10A     -0.664304    11A     -0.615275    12A     -0.580165  
      13A     -0.563945    14A     -0.523735    15A     -0.420647  
      16A     -0.413142  

    Virtual:                                                              

      17A      0.022834    18A      0.032264    19A      0.045239  
      20A      0.055487    21A      0.055944    22A      0.057120  
      23A      0.062672    24A      0.071674    25A      0.084459  
      26A      0.097463    27A      0.105950    28A      0.108900  
      29A      0.118926    30A      0.124405    31A      0.127958  
      32A      0.140352    33A      0.141080    34A      0.145535  
      35A      0.148736    36A      0.156601    37A      0.162395  
      38A      0.172175    39A      0.176339    40A      0.179029  
      41A      0.186970    42A      0.189034    43A      0.189808  
      44A      0.204477    45A      0.209181    46A      0.213583  
      47A      0.231964    48A      0.240292    49A      0.248753  
      50A      0.250826    51A      0.261440    52A      0.264582  
      53A      0.283812    54A      0.298671    55A      0.299311  
      56A      0.306518    57A      0.322175    58A      0.332659  
      59A      0.336278    60A      0.344090    61A      0.347127  
      62A      0.359462    63A      0.362707    64A      0.386417  
      65A      0.388640    66A      0.399064    67A      0.408960  
      68A      0.412337    69A      0.415195    70A      0.423904  
      71A      0.439599    72A      0.443776    73A      0.444511  
      74A      0.449862    75A      0.455921    76A      0.464231  
      77A      0.476543    78A      0.479233    79A      0.492255  
      80A      0.501765    81A      0.514369    82A      0.518890  
      83A      0.520780    84A      0.524507    85A      0.536869  
      86A      0.545934    87A      0.562065    88A      0.568112  
      89A      0.569926    90A      0.575504    91A      0.590277  
      92A      0.591659    93A      0.597965    94A      0.606360  
      95A      0.620962    96A      0.622552    97A      0.645238  
      98A      0.645713    99A      0.667078   100A      0.667865  
     101A      0.673193   102A      0.682766   103A      0.688065  
     104A      0.700609   105A      0.707453   106A      0.720004  
     107A      0.725436   108A      0.731560   109A      0.745478  
     110A      0.759717   111A      0.766769   112A      0.769618  
     113A      0.792068   114A      0.795810   115A      0.803930  
     116A      0.806564   117A      0.813682   118A      0.819259  
     119A      0.832311   120A      0.850910   121A      0.867771  
     122A      0.868810   123A      0.871963   124A      0.901023  
     125A      0.906551   126A      0.908147   127A      0.926015  
     128A      0.931982   129A      0.977277   130A      0.988988  
     131A      0.992780   132A      1.019953   133A      1.030149  
     134A      1.034409   135A      1.053657   136A      1.061898  
     137A      1.080305   138A      1.093566   139A      1.105028  
     140A      1.114485   141A      1.127177   142A      1.144762  
     143A      1.146527   144A      1.160884   145A      1.175143  
     146A      1.193409   147A      1.221451   148A      1.236738  
     149A      1.239250   150A      1.276904   151A      1.292106  
     152A      1.309054   153A      1.322450   154A      1.344362  
     155A      1.360809   156A      1.405474   157A      1.410230  
     158A      1.423667   159A      1.442473   160A      1.461298  
     161A      1.488323   162A      1.507097   163A      1.531268  
     164A      1.545068   165A      1.550089   166A      1.567573  
     167A      1.588418   168A      1.649448   169A      1.697187  
     170A      1.726246   171A      1.737393   172A      1.757726  
     173A      1.805904   174A      1.841923   175A      1.881384  
     176A      1.886870   177A      1.912905   178A      1.929912  
     179A      1.938280   180A      1.973967   181A      2.019150  
     182A      2.035391   183A      2.046186   184A      2.069469  
     185A      2.127519   186A      2.154692   187A      2.194123  
     188A      2.243521   189A      2.252276   190A      2.262975  
     191A      2.264573   192A      2.266654   193A      2.296990  
     194A      2.318692   195A      2.337476   196A      2.338783  
     197A      2.354107   198A      2.359341   199A      2.371204  
     200A      2.372315   201A      2.388021   202A      2.393999  
     203A      2.395599   204A      2.424137   205A      2.477591  
     206A      2.505471   207A      2.508236   208A      2.511689  
     209A      2.530239   210A      2.543672   211A      2.594080  
     212A      2.632458   213A      2.636592   214A      2.673407  
     215A      2.721870   216A      2.780318   217A      2.784302  
     218A      2.790148   219A      2.802759   220A      2.824785  
     221A      2.829361   222A      2.867962   223A      2.873771  
     224A      2.905809   225A      2.986638   226A      2.989001  
     227A      3.054748   228A      3.066696   229A      3.112638  
     230A      3.129516   231A      3.176384   232A      3.222104  
     233A      3.291544   234A      3.294969   235A      3.372210  
     236A      3.401413   237A      3.429882   238A      3.502579  
     239A      3.560084   240A      3.591954   241A      3.653034  
     242A      3.678250   243A      3.679471   244A      3.690377  
     245A      3.761262   246A      3.800192   247A      3.824867  
     248A      3.867350   249A      3.943861   250A      4.052890  
     251A      4.093030   252A      4.193982   253A      4.432481  
     254A      4.554596   255A      4.584782   256A      4.623093  
     257A      4.783621   258A      4.970666   259A      5.007433  
     260A      5.084932   261A      5.122634   262A      5.132664  
     263A      5.186109   264A      5.216385   265A      5.861457  
     266A      5.992692   267A      5.993998   268A      6.170634  
     269A      6.380312   270A      6.971774   271A     18.368031  
     272A     19.003237   273A     25.494594   274A     33.529367  

    Final Occupation by Irrep:
              A 
    DOCC [    16 ]

  @DF-RHF Final Energy:  -208.01070527815051

   => Energetics <=

    Nuclear Repulsion Energy =            121.8556341281213804
    One-Electron Energy =                -524.4303406900618256
    Two-Electron Energy =                 194.5640012837899349
    Total Energy =                       -208.0107052781505104

Computation Completed


Properties will be evaluated at   0.000000,   0.000000,   0.000000 [a0]

Properties computed using the SCF density matrix

  Nuclear Dipole Moment: [e a0]
     X:   164.7427      Y:     2.7496      Z:     9.7971

  Electronic Dipole Moment: [e a0]
     X:  -164.1609      Y:    -1.2698      Z:    -9.0881

  Dipole Moment: [e a0]
     X:     0.5817      Y:     1.4797      Z:     0.7089     Total:     1.7409

  Dipole Moment: [D]
     X:     1.4786      Y:     3.7611      Z:     1.8019     Total:     4.4248


*** tstop() called on node63.bme.utexas.edu at Thu Apr 23 17:15:56 2020
Module time:
	user time   =      31.48 seconds =       0.52 minutes
	system time =       1.48 seconds =       0.02 minutes
	total time  =          5 seconds =       0.08 minutes
Total time:
	user time   =     118.02 seconds =       1.97 minutes
	system time =       5.46 seconds =       0.09 minutes
	total time  =         18 seconds =       0.30 minutes
  Constructing Basis Sets for SAPT...

   => Loading Basis Set <=

    Name: (AUG-CC-PVDZ AUX)
    Role: RIFIT
    Keyword: DF_BASIS_SAPT
    atoms 1, 6, 10, 15           entry C          line   112 file /home/liuchw/anaconda3/envs/psi4env/share/psi4/basis/aug-cc-pvdz-ri.gbs 
    atoms 2, 11                  entry O          line   204 file /home/liuchw/anaconda3/envs/psi4env/share/psi4/basis/aug-cc-pvdz-ri.gbs 
    atoms 3, 12                  entry N          line   158 file /home/liuchw/anaconda3/envs/psi4env/share/psi4/basis/aug-cc-pvdz-ri.gbs 
    atoms 4-5, 7-9, 13-14, 16-18 entry H          line    30 file /home/liuchw/anaconda3/envs/psi4env/share/psi4/basis/aug-cc-pvdz-ri.gbs 


  //>>>>>>>>>>>>>>>>>>>>>>>>>>>>>>>>>>>//
  //               SAPT2+              //
  //<<<<<<<<<<<<<<<<<<<<<<<<<<<<<<<<<<<//


*** tstart() called on node63.bme.utexas.edu
*** at Thu Apr 23 17:15:56 2020

        SAPT2+  
    Ed Hohenstein
     6 June 2009

      Orbital Information
  --------------------------
    NSO        =       274
    NMO        =       274
    NRI        =       806
    NOCC A     =        16
    NOCC B     =        16
    FOCC A     =         4
    FOCC B     =         4
    NVIR A     =       258
    NVIR B     =       258

    Estimated memory usage: 838.2 MB

    Natural Orbital Cutoff:   1.000E-06
    Disp(T3) Truncation:            Yes
    CCD (vv|vv) Truncation:         Yes
    MBPT T2 Truncation:             Yes

    Monomer A: 141 virtual orbitals dropped
    Monomer B: 141 virtual orbitals dropped

    Elst10,r            =    -0.009780959157 [Eh]
    Exch10 (S^2)        =     0.000793563146 [Eh]
    Exch10              =     0.000793958954 [Eh]
    Ind20,r (A<-B)      =    -0.000530360722 [Eh]
    Ind20,r (B<-A)      =    -0.000530442592 [Eh]
    Ind20,r             =    -0.001060803314 [Eh]
    Exch-Ind20,r (A<-B) =     0.000079116222 [Eh]
    Exch-Ind20,r (B<-A) =     0.000079136352 [Eh]
    Exch-Ind20,r        =     0.000158252573 [Eh]
    Disp20              =    -0.001617017818 [Eh]
    Disp20 (NO)         =    -0.001520107453 [Eh]
    Exch-Disp20         =     0.000076929214 [Eh]
    Elst12,r            =     0.001039072484 [Eh]
    Exch11              =    -0.000018185574 [Eh]
    Exch12              =     0.000365630891 [Eh]
    Ind22               =    -0.000090966987 [Eh]
    Disp21              =     0.000100721056 [Eh]
    Disp22 (SDQ)        =    -0.000085426374 [Eh]

    (i =   1 of  12)          6 seconds
    (i =   2 of  12)         12 seconds
    (i =   3 of  12)         17 seconds
    (i =   4 of  12)         23 seconds
    (i =   5 of  12)         29 seconds
    (i =   6 of  12)         35 seconds
    (i =   7 of  12)         41 seconds
    (i =   8 of  12)         47 seconds
    (i =   9 of  12)         53 seconds
    (i =  10 of  12)         59 seconds
    (i =  11 of  12)         64 seconds
    (i =  12 of  12)         70 seconds

    Disp220 (T)         =    -0.000154752341 [Eh]

    (i =   1 of  12)          6 seconds
    (i =   2 of  12)         12 seconds
    (i =   3 of  12)         18 seconds
    (i =   4 of  12)         24 seconds
    (i =   5 of  12)         29 seconds
    (i =   6 of  12)         37 seconds
    (i =   7 of  12)         46 seconds
    (i =   8 of  12)         52 seconds
    (i =   9 of  12)         58 seconds
    (i =  10 of  12)         63 seconds
    (i =  11 of  12)         69 seconds
    (i =  12 of  12)         74 seconds

    Disp202 (T)         =    -0.000154752701 [Eh]

    Disp22 (T)          =    -0.000309505043 [Eh]

    Est. Disp220 (T)    =    -0.000164618161 [Eh]
    Est. Disp202 (T)    =    -0.000164618544 [Eh]

    Est. Disp22 (T)     =    -0.000329236705 [Eh]

    SAPT Results 
  --------------------------------------------------------------------------------------------------------
    Electrostatics                 -8.74188667 [mEh]      -5.48561671 [kcal/mol]     -22.95182030 [kJ/mol]
      Elst10,r                     -9.78095916 [mEh]      -6.13764453 [kcal/mol]     -25.67990473 [kJ/mol]
      Elst12,r                      1.03907248 [mEh]       0.65202783 [kcal/mol]       2.72808443 [kJ/mol]

    Exchange                        1.14140427 [mEh]       0.71624199 [kcal/mol]       2.99675650 [kJ/mol]
      Exch10                        0.79395895 [mEh]       0.49821677 [kcal/mol]       2.08453895 [kJ/mol]
      Exch10(S^2)                   0.79356315 [mEh]       0.49796839 [kcal/mol]       2.08349975 [kJ/mol]
      Exch11(S^2)                  -0.01818557 [mEh]      -0.01141162 [kcal/mol]      -0.04774622 [kJ/mol]
      Exch12(S^2)                   0.36563089 [mEh]       0.22943685 [kcal/mol]       0.95996377 [kJ/mol]

    Induction                      -1.13938317 [mEh]      -0.71497374 [kcal/mol]      -2.99145011 [kJ/mol]
      Ind20,r                      -1.06080331 [mEh]      -0.66566413 [kcal/mol]      -2.78513872 [kJ/mol]
      Ind22                        -0.09096699 [mEh]      -0.05708265 [kcal/mol]      -0.23883379 [kJ/mol]
      Exch-Ind20,r                  0.15825257 [mEh]       0.09930499 [kcal/mol]       0.41549207 [kJ/mol]
      Exch-Ind22                    0.01357062 [mEh]       0.00851569 [kcal/mol]       0.03562966 [kJ/mol]
      delta HF,r (2)               -0.15943607 [mEh]      -0.10004764 [kcal/mol]      -0.41859934 [kJ/mol]

    Dispersion                     -1.85403063 [mEh]      -1.16342178 [kcal/mol]      -4.86775674 [kJ/mol]
      Disp20                       -1.61701782 [mEh]      -1.01469400 [kcal/mol]      -4.24547970 [kJ/mol]
      Disp21                        0.10072106 [mEh]       0.06320342 [kcal/mol]       0.26444309 [kJ/mol]
      Disp22 (SDQ)                 -0.08542637 [mEh]      -0.05360586 [kcal/mol]      -0.22428691 [kJ/mol]
      Disp22 (T)                   -0.30950504 [mEh]      -0.19421735 [kcal/mol]      -0.81260538 [kJ/mol]
      Est. Disp22 (T)              -0.32923670 [mEh]      -0.20659915 [kcal/mol]      -0.86441085 [kJ/mol]
      Exch-Disp20                   0.07692921 [mEh]       0.04827381 [kcal/mol]       0.20197762 [kJ/mol]

  Total HF                        -10.04898701 [mEh]      -6.30583455 [kcal/mol]     -26.38361176 [kJ/mol]
  Total SAPT0                     -11.58907561 [mEh]      -7.27225474 [kcal/mol]     -30.42711383 [kJ/mol]
  Total SAPT2                     -10.27995418 [mEh]      -6.45076864 [kcal/mol]     -26.99001598 [kJ/mol]
  Total SAPT2+                    -10.59389620 [mEh]      -6.64777023 [kcal/mol]     -27.81427065 [kJ/mol]

  Special recipe for scaled SAPT0 (see Manual):
    Electrostatics sSAPT0          -9.78095916 [mEh]      -6.13764453 [kcal/mol]     -25.67990473 [kJ/mol]
    Exchange sSAPT0                 0.79395895 [mEh]       0.49821677 [kcal/mol]       2.08453895 [kJ/mol]
    Induction sSAPT0               -1.06174989 [mEh]      -0.66625812 [kcal/mol]      -2.78762396 [kJ/mol]
    Dispersion sSAPT0              -1.53997344 [mEh]      -0.96634792 [kcal/mol]      -4.04319970 [kJ/mol]
  Total sSAPT0                    -11.58872353 [mEh]      -7.27203381 [kcal/mol]     -30.42618944 [kJ/mol]
  --------------------------------------------------------------------------------------------------------

*** tstop() called on node63.bme.utexas.edu at Thu Apr 23 17:19:25 2020
Module time:
	user time   =    1535.97 seconds =      25.60 minutes
	system time =      62.87 seconds =       1.05 minutes
	total time  =        209 seconds =       3.48 minutes
Total time:
	user time   =    1655.11 seconds =      27.59 minutes
	system time =      68.40 seconds =       1.14 minutes
	total time  =        227 seconds =       3.78 minutes

    Psi4 stopped on: Thursday, 23 April 2020 05:19PM
    Psi4 wall time for execution: 0:03:47.77

*** Psi4 exiting successfully. Buy a developer a beer!
