
    -----------------------------------------------------------------------
          Psi4: An Open-Source Ab Initio Electronic Structure Package
                               Psi4 1.4a2.dev224 

                         Git: Rev {master} e453b16 


    R. M. Parrish, L. A. Burns, D. G. A. Smith, A. C. Simmonett,
    A. E. DePrince III, E. G. Hohenstein, U. Bozkaya, A. Yu. Sokolov,
    R. Di Remigio, R. M. Richard, J. F. Gonthier, A. M. James,
    H. R. McAlexander, A. Kumar, M. Saitow, X. Wang, B. P. Pritchard,
    P. Verma, H. F. Schaefer III, K. Patkowski, R. A. King, E. F. Valeev,
    F. A. Evangelista, J. M. Turney, T. D. Crawford, and C. D. Sherrill,
    J. Chem. Theory Comput. 13(7) pp 3185--3197 (2017).
    (doi: 10.1021/acs.jctc.7b00174)


                         Additional Contributions by
    P. Kraus, H. Kruse, M. H. Lechner, M. C. Schieber, R. A. Shaw,
    A. Alenaizan, R. Galvelis, Z. L. Glick, S. Lehtola, and J. P. Misiewicz

    -----------------------------------------------------------------------


    Psi4 started on: Thursday, 23 April 2020 05:25PM

    Process ID: 37791
    Host:       node84.bme.utexas.edu
    PSIDATADIR: /home/liuchw/anaconda3/envs/psi4env/share/psi4
    Memory:     500.0 MiB
    Threads:    8
    
  ==> Input File <==

--------------------------------------------------------------------------
#Generated by lconvert.py for sapt job

memory 20 GB

molecule  {
0 1
  C      -1.113630    1.327020    0.275170
  O      -0.467080    2.349390    0.461540
  O      -0.578090    0.136920    0.049620
  H       0.413320    0.203260    0.055490
  C      -2.611430    1.286190    0.277360
  H      -3.006650    2.276890    0.465790
  H      -2.964260    0.915260   -0.682000
  H      -2.953110    0.591800    1.041240
--
0 1
  N       4.708210    1.084880    0.178360
  H       5.101420    0.169490    0.006640
  C       5.629740    2.132990    0.359810
  O       6.826880    1.914700    0.306930
  C       4.990670    3.412460    0.600420
  H       5.610210    4.279380    0.751900
  C       3.643590    3.492450    0.629800
  H       3.120750    4.420890    0.805100
  N       2.839860    2.401770    0.439390
  H       1.815800    2.471710    0.463190
  C       3.339790    1.151540    0.205220
  O       2.627760    0.162040    0.031750
units angstrom
no_reorient
symmetry c1
}

set {
scf_type DF
basis aug-cc-pvdz
freeze_core True
guess SAD
}
energy('sapt2+')
--------------------------------------------------------------------------

  Memory set to  18.626 GiB by Python driver.

Scratch directory: /scratch/liuchw/

  //>>>>>>>>>>>>>>>>>>>>>>>>>>>>>>>>>>>//
  //              Dimer HF             //
  //<<<<<<<<<<<<<<<<<<<<<<<<<<<<<<<<<<<//


*** tstart() called on node84.bme.utexas.edu
*** at Thu Apr 23 17:25:22 2020

   => Loading Basis Set <=

    Name: AUG-CC-PVDZ
    Role: ORBITAL
    Keyword: BASIS
    atoms 1, 5, 11, 13, 15, 19   entry C          line   182 file /home/liuchw/anaconda3/envs/psi4env/share/psi4/basis/aug-cc-pvdz.gbs 
    atoms 2-3, 12, 20            entry O          line   254 file /home/liuchw/anaconda3/envs/psi4env/share/psi4/basis/aug-cc-pvdz.gbs 
    atoms 4, 6-8, 10, 14, 16, 18 entry H          line    40 file /home/liuchw/anaconda3/envs/psi4env/share/psi4/basis/aug-cc-pvdz.gbs 
    atoms 9, 17                  entry N          line   218 file /home/liuchw/anaconda3/envs/psi4env/share/psi4/basis/aug-cc-pvdz.gbs 


         ---------------------------------------------------------
                                   SCF
               by Justin Turney, Rob Parrish, Andy Simmonett
                          and Daniel G. A. Smith
                              RHF Reference
                        8 Threads,  19073 MiB Core
         ---------------------------------------------------------

  ==> Geometry <==

    Molecular point group: c1
    Full point group: C1

    Geometry (in Angstrom), charge = 0, multiplicity = 1:

       Center              X                  Y                   Z               Mass       
    ------------   -----------------  -----------------  -----------------  -----------------
         C           -3.519598391623    -0.363724169335    -0.034899580552    12.000000000000
         O           -2.873048391623     0.658645830665     0.151470419448    15.994914619570
         O           -2.984058391623    -1.553824169335    -0.260449580552    15.994914619570
         H           -1.992648391623    -1.487484169335    -0.254579580552     1.007825032230
         C           -5.017398391623    -0.404554169335    -0.032709580552    12.000000000000
         H           -5.412618391623     0.586145830665     0.155720419448     1.007825032230
         H           -5.370228391623    -0.775484169335    -0.992069580552     1.007825032230
         H           -5.359078391623    -1.098944169335     0.731170419448     1.007825032230
         N            2.302241608377    -0.605864169335    -0.131709580552    14.003074004430
         H            2.695451608377    -1.521254169335    -0.303429580552     1.007825032230
         C            3.223771608377     0.442245830665     0.049740419448    12.000000000000
         O            4.420911608377     0.223955830665    -0.003139580552    15.994914619570
         C            2.584701608377     1.721715830665     0.290350419448    12.000000000000
         H            3.204241608377     2.588635830665     0.441830419448     1.007825032230
         C            1.237621608377     1.801705830665     0.319730419448    12.000000000000
         H            0.714781608377     2.730145830665     0.495030419448     1.007825032230
         N            0.433891608377     0.711025830665     0.129320419448    14.003074004430
         H           -0.590168391623     0.780965830665     0.153120419448     1.007825032230
         C            0.933821608377    -0.539204169335    -0.104849580552    12.000000000000
         O            0.221791608377    -1.528704169335    -0.278319580552    15.994914619570

  Running in c1 symmetry.

  Rotational constants: A =      0.09264  B =      0.01133  C =      0.01011 [cm^-1]
  Rotational constants: A =   2777.17223  B =    339.61685  C =    303.17395 [MHz]
  Nuclear repulsion =  664.577459214789883

  Charge       = 0
  Multiplicity = 1
  Electrons    = 90
  Nalpha       = 45
  Nbeta        = 45

  ==> Algorithm <==

  SCF Algorithm Type is DF.
  DIIS enabled.
  MOM disabled.
  Fractional occupation disabled.
  Guess Type is SAD.
  Energy threshold   = 1.00e-08
  Density threshold  = 1.00e-08
  Integral threshold = 0.00e+00

  ==> Primary Basis <==

  Basis Set: AUG-CC-PVDZ
    Blend: AUG-CC-PVDZ
    Number of shells: 148
    Number of basis function: 348
    Number of Cartesian functions: 372
    Spherical Harmonics?: true
    Max angular momentum: 2

   => Loading Basis Set <=

    Name: (AUG-CC-PVDZ AUX)
    Role: JKFIT
    Keyword: DF_BASIS_SCF
    atoms 1, 5, 11, 13, 15, 19   entry C          line   154 file /home/liuchw/anaconda3/envs/psi4env/share/psi4/basis/aug-cc-pvdz-jkfit.gbs 
    atoms 2-3, 12, 20            entry O          line   270 file /home/liuchw/anaconda3/envs/psi4env/share/psi4/basis/aug-cc-pvdz-jkfit.gbs 
    atoms 4, 6-8, 10, 14, 16, 18 entry H          line    70 file /home/liuchw/anaconda3/envs/psi4env/share/psi4/basis/aug-cc-pvdz-jkfit.gbs 
    atoms 9, 17                  entry N          line   212 file /home/liuchw/anaconda3/envs/psi4env/share/psi4/basis/aug-cc-pvdz-jkfit.gbs 

  ==> Pre-Iterations <==

   -------------------------------------------------------
    Irrep   Nso     Nmo     Nalpha   Nbeta   Ndocc  Nsocc
   -------------------------------------------------------
     A        348     348       0       0       0       0
   -------------------------------------------------------
    Total     348     348      45      45      45       0
   -------------------------------------------------------

  ==> Integral Setup <==

  ==> DiskDFJK: Density-Fitted J/K Matrices <==

    J tasked:                  Yes
    K tasked:                  Yes
    wK tasked:                  No
    OpenMP threads:              8
    Integrals threads:           8
    Memory [MiB]:            14305
    Algorithm:                Core
    Integral Cache:           SAVE
    Schwarz Cutoff:          1E-12
    Fitting Condition:       1E-10

   => Auxiliary Basis Set <=

  Basis Set: (AUG-CC-PVDZ AUX)
    Blend: AUG-CC-PVDZ-JKFIT
    Number of shells: 432
    Number of basis function: 1288
    Number of Cartesian functions: 1492
    Spherical Harmonics?: true
    Max angular momentum: 3

  Minimum eigenvalue in the overlap matrix is 1.0569415141E-05.
  Using Symmetric Orthogonalization.

  SCF Guess: Superposition of Atomic Densities via on-the-fly atomic UHF.

  ==> Iterations <==

                           Total Energy        Delta E     RMS |[F,P]|

   @DF-RHF iter SAD:  -638.94817723686242   -6.38948e+02   0.00000e+00 
   @DF-RHF iter   1:  -640.00957310553974   -1.06140e+00   2.60448e-03 DIIS
   @DF-RHF iter   2:  -640.28244806764621   -2.72875e-01   1.56619e-03 DIIS
   @DF-RHF iter   3:  -640.38744916307041   -1.05001e-01   3.01248e-04 DIIS
   @DF-RHF iter   4:  -640.39359279338009   -6.14363e-03   1.25137e-04 DIIS
   @DF-RHF iter   5:  -640.39486025246140   -1.26746e-03   2.73323e-05 DIIS
   @DF-RHF iter   6:  -640.39497879488795   -1.18542e-04   1.46898e-05 DIIS
   @DF-RHF iter   7:  -640.39501198444373   -3.31896e-05   5.18832e-06 DIIS
   @DF-RHF iter   8:  -640.39501690684051   -4.92240e-06   2.13849e-06 DIIS
   @DF-RHF iter   9:  -640.39501747804343   -5.71203e-07   7.42939e-07 DIIS
   @DF-RHF iter  10:  -640.39501756620234   -8.81589e-08   2.54931e-07 DIIS
   @DF-RHF iter  11:  -640.39501757605797   -9.85563e-09   9.63111e-08 DIIS
   @DF-RHF iter  12:  -640.39501757743881   -1.38084e-09   2.70743e-08 DIIS
   @DF-RHF iter  13:  -640.39501757757057   -1.31763e-10   1.09602e-08 DIIS
   @DF-RHF iter  14:  -640.39501757759342   -2.28511e-11   4.79728e-09 DIIS
  Energy and wave function converged.


  ==> Post-Iterations <==

    Orbital Energies [Eh]
    ---------------------

    Doubly Occupied:                                                      

       1A    -20.626720     2A    -20.568840     3A    -20.562063  
       4A    -20.553256     5A    -15.648456     6A    -15.636897  
       7A    -11.431105     8A    -11.408157     9A    -11.389668  
      10A    -11.345016    11A    -11.260684    12A    -11.255384  
      13A     -1.476103    14A     -1.441433    15A     -1.403792  
      16A     -1.369013    17A     -1.316656    18A     -1.250139  
      19A     -1.090404    20A     -1.034852    21A     -0.937127  
      22A     -0.903946    23A     -0.835577    24A     -0.806580  
      25A     -0.767911    26A     -0.720543    27A     -0.711602  
      28A     -0.689593    29A     -0.678611    30A     -0.670914  
      31A     -0.658197    32A     -0.656299    33A     -0.614819  
      34A     -0.602276    35A     -0.585975    36A     -0.574777  
      37A     -0.571449    38A     -0.565025    39A     -0.523462  
      40A     -0.489703    41A     -0.488561    42A     -0.464468  
      43A     -0.449886    44A     -0.439421    45A     -0.367374  

    Virtual:                                                              

      46A      0.027880    47A      0.035689    48A      0.046349  
      49A      0.051870    50A      0.053684    51A      0.059278  
      52A      0.069153    53A      0.073510    54A      0.081349  
      55A      0.084528    56A      0.099361    57A      0.110076  
      58A      0.117571    59A      0.118995    60A      0.122402  
      61A      0.135467    62A      0.140725    63A      0.142735  
      64A      0.145834    65A      0.147258    66A      0.151649  
      67A      0.158441    68A      0.159614    69A      0.163552  
      70A      0.165327    71A      0.167389    72A      0.173317  
      73A      0.175915    74A      0.176430    75A      0.184091  
      76A      0.200095    77A      0.217174    78A      0.225666  
      79A      0.225815    80A      0.242500    81A      0.243403  
      82A      0.244652    83A      0.257896    84A      0.258221  
      85A      0.262794    86A      0.264763    87A      0.268629  
      88A      0.275865    89A      0.293195    90A      0.294371  
      91A      0.302971    92A      0.313925    93A      0.321688  
      94A      0.323856    95A      0.333002    96A      0.333755  
      97A      0.340091    98A      0.349350    99A      0.352886  
     100A      0.361756   101A      0.361883   102A      0.370652  
     103A      0.372925   104A      0.378110   105A      0.379891  
     106A      0.386329   107A      0.395432   108A      0.402050  
     109A      0.405067   110A      0.411291   111A      0.425745  
     112A      0.427355   113A      0.437651   114A      0.439875  
     115A      0.441403   116A      0.454023   117A      0.454541  
     118A      0.456069   119A      0.473171   120A      0.474758  
     121A      0.486495   122A      0.490962   123A      0.493829  
     124A      0.508760   125A      0.513137   126A      0.524915  
     127A      0.527608   128A      0.532239   129A      0.548631  
     130A      0.556663   131A      0.558215   132A      0.574781  
     133A      0.579883   134A      0.582202   135A      0.587307  
     136A      0.597520   137A      0.600573   138A      0.605045  
     139A      0.617397   140A      0.630323   141A      0.636358  
     142A      0.643740   143A      0.643960   144A      0.656446  
     145A      0.660506   146A      0.666297   147A      0.667544  
     148A      0.677661   149A      0.692083   150A      0.692147  
     151A      0.707569   152A      0.715454   153A      0.720086  
     154A      0.730314   155A      0.733200   156A      0.742699  
     157A      0.754927   158A      0.769438   159A      0.774551  
     160A      0.785252   161A      0.796610   162A      0.804725  
     163A      0.804905   164A      0.810582   165A      0.827123  
     166A      0.833671   167A      0.839422   168A      0.844299  
     169A      0.863479   170A      0.873631   171A      0.874333  
     172A      0.883441   173A      0.896069   174A      0.913277  
     175A      0.920859   176A      0.923834   177A      0.944340  
     178A      0.946207   179A      0.966445   180A      0.966866  
     181A      0.980046   182A      0.981219   183A      0.982796  
     184A      1.000992   185A      1.014555   186A      1.033358  
     187A      1.046169   188A      1.054605   189A      1.062960  
     190A      1.073687   191A      1.085529   192A      1.090255  
     193A      1.099105   194A      1.109249   195A      1.117381  
     196A      1.122279   197A      1.134345   198A      1.148778  
     199A      1.159769   200A      1.168316   201A      1.185869  
     202A      1.204321   203A      1.205502   204A      1.241512  
     205A      1.246716   206A      1.259748   207A      1.276211  
     208A      1.284624   209A      1.291282   210A      1.299623  
     211A      1.314249   212A      1.326090   213A      1.350562  
     214A      1.383438   215A      1.384055   216A      1.392022  
     217A      1.393996   218A      1.414348   219A      1.416808  
     220A      1.465561   221A      1.491477   222A      1.512038  
     223A      1.526790   224A      1.535687   225A      1.546930  
     226A      1.555753   227A      1.567887   228A      1.583752  
     229A      1.598831   230A      1.631055   231A      1.639752  
     232A      1.646490   233A      1.649143   234A      1.664292  
     235A      1.671031   236A      1.675947   237A      1.700742  
     238A      1.730681   239A      1.752335   240A      1.757226  
     241A      1.760528   242A      1.784450   243A      1.803799  
     244A      1.812095   245A      1.824336   246A      1.830105  
     247A      1.846699   248A      1.868446   249A      1.881725  
     250A      1.887852   251A      1.906507   252A      1.915253  
     253A      1.936464   254A      1.980100   255A      1.992384  
     256A      1.994578   257A      2.000564   258A      2.009634  
     259A      2.013249   260A      2.020974   261A      2.049614  
     262A      2.056683   263A      2.080162   264A      2.099176  
     265A      2.107524   266A      2.121168   267A      2.160642  
     268A      2.176574   269A      2.187928   270A      2.215477  
     271A      2.224924   272A      2.235659   273A      2.245217  
     274A      2.252945   275A      2.255844   276A      2.270985  
     277A      2.283289   278A      2.305563   279A      2.321624  
     280A      2.343898   281A      2.366573   282A      2.380049  
     283A      2.388256   284A      2.437882   285A      2.455444  
     286A      2.471249   287A      2.490110   288A      2.497147  
     289A      2.512490   290A      2.539359   291A      2.548661  
     292A      2.578878   293A      2.614644   294A      2.637419  
     295A      2.645245   296A      2.658614   297A      2.718959  
     298A      2.738511   299A      2.758531   300A      2.784192  
     301A      2.790207   302A      2.797422   303A      2.828575  
     304A      2.842541   305A      2.863851   306A      2.878525  
     307A      2.896608   308A      2.911617   309A      2.919318  
     310A      2.958079   311A      2.980367   312A      3.006592  
     313A      3.025931   314A      3.048831   315A      3.075794  
     316A      3.110535   317A      3.178351   318A      3.199166  
     319A      3.223567   320A      3.277905   321A      3.346558  
     322A      3.380149   323A      3.404312   324A      3.493055  
     325A      3.531856   326A      3.665720   327A      3.678641  
     328A      3.701017   329A      3.756824   330A      3.761551  
     331A      3.772575   332A      3.772771   333A      3.798398  
     334A      3.800706   335A      3.811152   336A      3.822021  
     337A      3.845951   338A      3.850824   339A      3.867462  
     340A      4.010955   341A      4.043046   342A      4.047020  
     343A      4.059817   344A      4.105721   345A      4.196802  
     346A      4.249489   347A      4.345262   348A      4.465595  

    Final Occupation by Irrep:
              A 
    DOCC [    45 ]

  @DF-RHF Final Energy:  -640.39501757759342

   => Energetics <=

    Nuclear Repulsion Energy =            664.5774592147898829
    One-Electron Energy =               -2194.2594899933087618
    Two-Electron Energy =                 889.2870132009253439
    Total Energy =                       -640.3950175775934213

Computation Completed


Properties will be evaluated at   0.000000,   0.000000,   0.000000 [a0]

Properties computed using the SCF density matrix

  Nuclear Dipole Moment: [e a0]
     X:   -11.3668      Y:     1.6791      Z:     0.3982

  Electronic Dipole Moment: [e a0]
     X:     9.7484      Y:    -0.8433      Z:    -0.2323

  Dipole Moment: [e a0]
     X:    -1.6184      Y:     0.8358      Z:     0.1659     Total:     1.8291

  Dipole Moment: [D]
     X:    -4.1136      Y:     2.1245      Z:     0.4217     Total:     4.6490


*** tstop() called on node84.bme.utexas.edu at Thu Apr 23 17:25:38 2020
Module time:
	user time   =     109.01 seconds =       1.82 minutes
	system time =       2.38 seconds =       0.04 minutes
	total time  =         16 seconds =       0.27 minutes
Total time:
	user time   =     109.01 seconds =       1.82 minutes
	system time =       2.38 seconds =       0.04 minutes
	total time  =         16 seconds =       0.27 minutes

  //>>>>>>>>>>>>>>>>>>>>>>>>>>>>>>>>>>>//
  //            Monomer A HF           //
  //<<<<<<<<<<<<<<<<<<<<<<<<<<<<<<<<<<<//


*** tstart() called on node84.bme.utexas.edu
*** at Thu Apr 23 17:25:38 2020

   => Loading Basis Set <=

    Name: AUG-CC-PVDZ
    Role: ORBITAL
    Keyword: BASIS
    atoms 1, 5, 11, 13, 15, 19   entry C          line   182 file /home/liuchw/anaconda3/envs/psi4env/share/psi4/basis/aug-cc-pvdz.gbs 
    atoms 2-3, 12, 20            entry O          line   254 file /home/liuchw/anaconda3/envs/psi4env/share/psi4/basis/aug-cc-pvdz.gbs 
    atoms 4, 6-8, 10, 14, 16, 18 entry H          line    40 file /home/liuchw/anaconda3/envs/psi4env/share/psi4/basis/aug-cc-pvdz.gbs 
    atoms 9, 17                  entry N          line   218 file /home/liuchw/anaconda3/envs/psi4env/share/psi4/basis/aug-cc-pvdz.gbs 


         ---------------------------------------------------------
                                   SCF
               by Justin Turney, Rob Parrish, Andy Simmonett
                          and Daniel G. A. Smith
                              RHF Reference
                        8 Threads,  19073 MiB Core
         ---------------------------------------------------------

  ==> Geometry <==

    Molecular point group: c1
    Full point group: C1

    Geometry (in Angstrom), charge = 0, multiplicity = 1:

       Center              X                  Y                   Z               Mass       
    ------------   -----------------  -----------------  -----------------  -----------------
         C           -3.519598391623    -0.363724169335    -0.034899580552    12.000000000000
         O           -2.873048391623     0.658645830665     0.151470419448    15.994914619570
         O           -2.984058391623    -1.553824169335    -0.260449580552    15.994914619570
         H           -1.992648391623    -1.487484169335    -0.254579580552     1.007825032230
         C           -5.017398391623    -0.404554169335    -0.032709580552    12.000000000000
         H           -5.412618391623     0.586145830665     0.155720419448     1.007825032230
         H           -5.370228391623    -0.775484169335    -0.992069580552     1.007825032230
         H           -5.359078391623    -1.098944169335     0.731170419448     1.007825032230
      Gh(N)           2.302241608377    -0.605864169335    -0.131709580552    14.003074004430
      Gh(H)           2.695451608377    -1.521254169335    -0.303429580552     1.007825032230
      Gh(C)           3.223771608377     0.442245830665     0.049740419448    12.000000000000
      Gh(O)           4.420911608377     0.223955830665    -0.003139580552    15.994914619570
      Gh(C)           2.584701608377     1.721715830665     0.290350419448    12.000000000000
      Gh(H)           3.204241608377     2.588635830665     0.441830419448     1.007825032230
      Gh(C)           1.237621608377     1.801705830665     0.319730419448    12.000000000000
      Gh(H)           0.714781608377     2.730145830665     0.495030419448     1.007825032230
      Gh(N)           0.433891608377     0.711025830665     0.129320419448    14.003074004430
      Gh(H)          -0.590168391623     0.780965830665     0.153120419448     1.007825032230
      Gh(C)           0.933821608377    -0.539204169335    -0.104849580552    12.000000000000
      Gh(O)           0.221791608377    -1.528704169335    -0.278319580552    15.994914619570

  Running in c1 symmetry.

  Rotational constants: A =      0.09264  B =      0.01133  C =      0.01011 [cm^-1]
  Rotational constants: A =   2777.17223  B =    339.61685  C =    303.17395 [MHz]
  Nuclear repulsion =  121.305871324627333

  Charge       = 0
  Multiplicity = 1
  Electrons    = 32
  Nalpha       = 16
  Nbeta        = 16

  ==> Algorithm <==

  SCF Algorithm Type is DF.
  DIIS enabled.
  MOM disabled.
  Fractional occupation disabled.
  Guess Type is SAD.
  Energy threshold   = 1.00e-08
  Density threshold  = 1.00e-08
  Integral threshold = 0.00e+00

  ==> Primary Basis <==

  Basis Set: AUG-CC-PVDZ
    Blend: AUG-CC-PVDZ
    Number of shells: 148
    Number of basis function: 348
    Number of Cartesian functions: 372
    Spherical Harmonics?: true
    Max angular momentum: 2

   => Loading Basis Set <=

    Name: (AUG-CC-PVDZ AUX)
    Role: JKFIT
    Keyword: DF_BASIS_SCF
    atoms 1, 5, 11, 13, 15, 19   entry C          line   154 file /home/liuchw/anaconda3/envs/psi4env/share/psi4/basis/aug-cc-pvdz-jkfit.gbs 
    atoms 2-3, 12, 20            entry O          line   270 file /home/liuchw/anaconda3/envs/psi4env/share/psi4/basis/aug-cc-pvdz-jkfit.gbs 
    atoms 4, 6-8, 10, 14, 16, 18 entry H          line    70 file /home/liuchw/anaconda3/envs/psi4env/share/psi4/basis/aug-cc-pvdz-jkfit.gbs 
    atoms 9, 17                  entry N          line   212 file /home/liuchw/anaconda3/envs/psi4env/share/psi4/basis/aug-cc-pvdz-jkfit.gbs 

  ==> Pre-Iterations <==

   -------------------------------------------------------
    Irrep   Nso     Nmo     Nalpha   Nbeta   Ndocc  Nsocc
   -------------------------------------------------------
     A        348     348       0       0       0       0
   -------------------------------------------------------
    Total     348     348      16      16      16       0
   -------------------------------------------------------

  ==> Integral Setup <==

  ==> DiskDFJK: Density-Fitted J/K Matrices <==

    J tasked:                  Yes
    K tasked:                  Yes
    wK tasked:                  No
    OpenMP threads:              8
    Integrals threads:           8
    Memory [MiB]:            14305
    Algorithm:                Core
    Integral Cache:           LOAD
    Schwarz Cutoff:          1E-12
    Fitting Condition:       1E-10

   => Auxiliary Basis Set <=

  Basis Set: (AUG-CC-PVDZ AUX)
    Blend: AUG-CC-PVDZ-JKFIT
    Number of shells: 432
    Number of basis function: 1288
    Number of Cartesian functions: 1492
    Spherical Harmonics?: true
    Max angular momentum: 3

  Minimum eigenvalue in the overlap matrix is 1.0569415141E-05.
  Using Symmetric Orthogonalization.

  SCF Guess: Superposition of Atomic Densities via on-the-fly atomic UHF.

  ==> Iterations <==

                           Total Energy        Delta E     RMS |[F,P]|

   @DF-RHF iter SAD:  -226.95927471369606   -2.26959e+02   0.00000e+00 
   @DF-RHF iter   1:  -227.68316712892613   -7.23892e-01   1.68242e-03 DIIS
   @DF-RHF iter   2:  -227.80209065837920   -1.18924e-01   9.89014e-04 DIIS
   @DF-RHF iter   3:  -227.84376063396746   -4.16700e-02   1.75169e-04 DIIS
   @DF-RHF iter   4:  -227.84604660106208   -2.28597e-03   7.60573e-05 DIIS
   @DF-RHF iter   5:  -227.84653275202052   -4.86151e-04   1.79777e-05 DIIS
   @DF-RHF iter   6:  -227.84656984585419   -3.70938e-05   8.58860e-06 DIIS
   @DF-RHF iter   7:  -227.84657956694883   -9.72109e-06   2.77815e-06 DIIS
   @DF-RHF iter   8:  -227.84658109406547   -1.52712e-06   7.53915e-07 DIIS
   @DF-RHF iter   9:  -227.84658121550544   -1.21440e-07   1.53022e-07 DIIS
   @DF-RHF iter  10:  -227.84658121966606   -4.16063e-09   3.26182e-08 DIIS
   @DF-RHF iter  11:  -227.84658121981252   -1.46457e-10   7.22935e-09 DIIS
  Energy and wave function converged.


  ==> Post-Iterations <==

    Orbital Energies [Eh]
    ---------------------

    Doubly Occupied:                                                      

       1A    -20.633025     2A    -20.556151     3A    -11.398488  
       4A    -11.250580     5A     -1.474921     6A     -1.359589  
       7A     -1.029781     8A     -0.837120     9A     -0.706236  
      10A     -0.682725    11A     -0.655537    12A     -0.579884  
      13A     -0.571973    14A     -0.563576    15A     -0.477484  
      16A     -0.451534  

    Virtual:                                                              

      17A      0.022183    18A      0.034821    19A      0.039940  
      20A      0.051879    21A      0.054333    22A      0.057779  
      23A      0.071017    24A      0.071560    25A      0.074580  
      26A      0.084632    27A      0.097270    28A      0.110369  
      29A      0.110617    30A      0.114073    31A      0.122730  
      32A      0.124195    33A      0.128506    34A      0.142304  
      35A      0.142940    36A      0.150708    37A      0.152942  
      38A      0.155315    39A      0.165518    40A      0.166019  
      41A      0.171228    42A      0.175586    43A      0.178255  
      44A      0.181832    45A      0.190373    46A      0.205247  
      47A      0.215318    48A      0.218301    49A      0.219607  
      50A      0.222803    51A      0.226755    52A      0.233740  
      53A      0.243817    54A      0.245949    55A      0.251250  
      56A      0.254857    57A      0.267092    58A      0.272842  
      59A      0.274420    60A      0.277828    61A      0.289779  
      62A      0.296871    63A      0.304230    64A      0.311634  
      65A      0.311995    66A      0.330365    67A      0.336520  
      68A      0.340671    69A      0.351814    70A      0.362445  
      71A      0.368365    72A      0.374767    73A      0.392620  
      74A      0.400867    75A      0.401208    76A      0.409513  
      77A      0.418628    78A      0.422356    79A      0.429256  
      80A      0.439452    81A      0.439535    82A      0.443599  
      83A      0.450078    84A      0.461211    85A      0.474386  
      86A      0.479510    87A      0.480596    88A      0.490241  
      89A      0.492939    90A      0.496900    91A      0.514404  
      92A      0.516604    93A      0.522145    94A      0.528138  
      95A      0.529128    96A      0.539539    97A      0.550601  
      98A      0.557116    99A      0.561179   100A      0.565978  
     101A      0.573892   102A      0.584514   103A      0.586886  
     104A      0.590402   105A      0.597813   106A      0.608720  
     107A      0.612084   108A      0.620027   109A      0.628908  
     110A      0.639119   111A      0.644366   112A      0.653692  
     113A      0.654163   114A      0.656026   115A      0.662117  
     116A      0.670224   117A      0.674864   118A      0.700490  
     119A      0.701355   120A      0.704614   121A      0.710448  
     122A      0.727480   123A      0.736149   124A      0.752050  
     125A      0.753428   126A      0.756031   127A      0.773236  
     128A      0.796091   129A      0.801347   130A      0.804968  
     131A      0.814603   132A      0.829958   133A      0.841345  
     134A      0.862611   135A      0.866138   136A      0.871959  
     137A      0.888536   138A      0.897088   139A      0.909414  
     140A      0.909619   141A      0.922089   142A      0.932012  
     143A      0.943437   144A      0.955186   145A      0.967890  
     146A      0.985306   147A      0.996219   148A      1.019122  
     149A      1.024140   150A      1.042008   151A      1.043292  
     152A      1.057822   153A      1.061015   154A      1.068360  
     155A      1.094594   156A      1.097862   157A      1.108880  
     158A      1.110967   159A      1.126149   160A      1.143932  
     161A      1.147153   162A      1.156449   163A      1.162323  
     164A      1.164505   165A      1.176444   166A      1.195023  
     167A      1.203092   168A      1.220507   169A      1.222869  
     170A      1.240578   171A      1.248450   172A      1.257211  
     173A      1.263855   174A      1.276104   175A      1.302750  
     176A      1.304666   177A      1.319000   178A      1.324804  
     179A      1.341662   180A      1.348875   181A      1.362135  
     182A      1.385982   183A      1.388147   184A      1.401704  
     185A      1.403090   186A      1.412735   187A      1.418453  
     188A      1.428476   189A      1.451679   190A      1.459827  
     191A      1.473746   192A      1.485177   193A      1.502901  
     194A      1.522785   195A      1.547841   196A      1.555463  
     197A      1.566233   198A      1.572827   199A      1.576461  
     200A      1.594823   201A      1.631625   202A      1.637152  
     203A      1.657127   204A      1.685119   205A      1.686428  
     206A      1.721805   207A      1.754200   208A      1.761549  
     209A      1.781347   210A      1.803951   211A      1.829981  
     212A      1.834729   213A      1.843482   214A      1.873005  
     215A      1.893934   216A      1.907224   217A      1.983865  
     218A      2.013355   219A      2.046289   220A      2.066540  
     221A      2.101255   222A      2.106078   223A      2.168422  
     224A      2.179511   225A      2.182949   226A      2.210548  
     227A      2.218916   228A      2.250250   229A      2.251561  
     230A      2.261960   231A      2.262294   232A      2.275383  
     233A      2.294160   234A      2.310096   235A      2.368100  
     236A      2.378352   237A      2.403187   238A      2.418635  
     239A      2.451506   240A      2.469055   241A      2.472395  
     242A      2.494687   243A      2.513770   244A      2.526828  
     245A      2.548462   246A      2.556620   247A      2.565384  
     248A      2.581812   249A      2.621134   250A      2.650861  
     251A      2.657777   252A      2.670993   253A      2.688906  
     254A      2.714841   255A      2.732707   256A      2.773452  
     257A      2.777407   258A      2.820562   259A      2.827794  
     260A      2.858178   261A      2.883742   262A      2.904589  
     263A      2.915679   264A      2.962284   265A      2.966624  
     266A      3.005195   267A      3.031474   268A      3.046430  
     269A      3.062115   270A      3.074588   271A      3.129028  
     272A      3.160368   273A      3.214657   274A      3.236427  
     275A      3.316196   276A      3.329458   277A      3.357980  
     278A      3.393166   279A      3.453416   280A      3.472060  
     281A      3.505489   282A      3.539869   283A      3.643336  
     284A      3.662282   285A      3.665458   286A      3.685805  
     287A      3.690111   288A      3.714913   289A      3.732669  
     290A      3.768505   291A      3.791721   292A      3.796880  
     293A      3.807728   294A      3.811486   295A      3.842906  
     296A      3.871573   297A      3.888275   298A      3.896385  
     299A      3.961240   300A      4.005609   301A      4.070179  
     302A      4.082402   303A      4.126187   304A      4.199679  
     305A      4.251576   306A      4.347051   307A      4.432028  
     308A      4.471660   309A      4.502121   310A      4.577015  
     311A      4.638178   312A      4.673195   313A      4.728981  
     314A      4.756146   315A      4.823388   316A      4.932597  
     317A      4.972471   318A      5.007683   319A      5.018436  
     320A      5.041590   321A      5.043587   322A      5.071227  
     323A      5.170201   324A      5.272924   325A      5.367049  
     326A      5.465457   327A      5.551585   328A      5.717753  
     329A      5.823655   330A      5.902618   331A      5.945235  
     332A      5.993988   333A      6.033993   334A      6.070842  
     335A      6.182851   336A      6.235329   337A      6.396404  
     338A      6.531628   339A      7.008329   340A      7.280835  
     341A     18.174196   342A     18.738675   343A     18.826147  
     344A     19.533797   345A     25.460967   346A     25.476594  
     347A     33.517781   348A     33.544909  

    Final Occupation by Irrep:
              A 
    DOCC [    16 ]

  @DF-RHF Final Energy:  -227.84658121981252

   => Energetics <=

    Nuclear Repulsion Energy =            121.3058713246273328
    One-Electron Energy =                -551.8476958639156464
    Two-Electron Energy =                 202.6952433194757930
    Total Energy =                       -227.8465812198125207

Computation Completed


Properties will be evaluated at   0.000000,   0.000000,   0.000000 [a0]

Properties computed using the SCF density matrix

  Nuclear Dipole Moment: [e a0]
     X:  -219.6115      Y:   -27.4896      Z:    -3.0939

  Electronic Dipole Moment: [e a0]
     X:   219.2256      Y:    26.7095      Z:     2.9510

  Dipole Moment: [e a0]
     X:    -0.3859      Y:    -0.7800      Z:    -0.1429     Total:     0.8820

  Dipole Moment: [D]
     X:    -0.9809      Y:    -1.9827      Z:    -0.3633     Total:     2.2417


*** tstop() called on node84.bme.utexas.edu at Thu Apr 23 17:25:45 2020
Module time:
	user time   =      43.46 seconds =       0.72 minutes
	system time =       1.15 seconds =       0.02 minutes
	total time  =          7 seconds =       0.12 minutes
Total time:
	user time   =     152.54 seconds =       2.54 minutes
	system time =       3.53 seconds =       0.06 minutes
	total time  =         23 seconds =       0.38 minutes

  //>>>>>>>>>>>>>>>>>>>>>>>>>>>>>>>>>>>//
  //            Monomer B HF           //
  //<<<<<<<<<<<<<<<<<<<<<<<<<<<<<<<<<<<//


*** tstart() called on node84.bme.utexas.edu
*** at Thu Apr 23 17:25:45 2020

   => Loading Basis Set <=

    Name: AUG-CC-PVDZ
    Role: ORBITAL
    Keyword: BASIS
    atoms 1, 5, 11, 13, 15, 19   entry C          line   182 file /home/liuchw/anaconda3/envs/psi4env/share/psi4/basis/aug-cc-pvdz.gbs 
    atoms 2-3, 12, 20            entry O          line   254 file /home/liuchw/anaconda3/envs/psi4env/share/psi4/basis/aug-cc-pvdz.gbs 
    atoms 4, 6-8, 10, 14, 16, 18 entry H          line    40 file /home/liuchw/anaconda3/envs/psi4env/share/psi4/basis/aug-cc-pvdz.gbs 
    atoms 9, 17                  entry N          line   218 file /home/liuchw/anaconda3/envs/psi4env/share/psi4/basis/aug-cc-pvdz.gbs 


         ---------------------------------------------------------
                                   SCF
               by Justin Turney, Rob Parrish, Andy Simmonett
                          and Daniel G. A. Smith
                              RHF Reference
                        8 Threads,  19073 MiB Core
         ---------------------------------------------------------

  ==> Geometry <==

    Molecular point group: c1
    Full point group: C1

    Geometry (in Angstrom), charge = 0, multiplicity = 1:

       Center              X                  Y                   Z               Mass       
    ------------   -----------------  -----------------  -----------------  -----------------
      Gh(C)          -3.519598391623    -0.363724169335    -0.034899580552    12.000000000000
      Gh(O)          -2.873048391623     0.658645830665     0.151470419448    15.994914619570
      Gh(O)          -2.984058391623    -1.553824169335    -0.260449580552    15.994914619570
      Gh(H)          -1.992648391623    -1.487484169335    -0.254579580552     1.007825032230
      Gh(C)          -5.017398391623    -0.404554169335    -0.032709580552    12.000000000000
      Gh(H)          -5.412618391623     0.586145830665     0.155720419448     1.007825032230
      Gh(H)          -5.370228391623    -0.775484169335    -0.992069580552     1.007825032230
      Gh(H)          -5.359078391623    -1.098944169335     0.731170419448     1.007825032230
         N            2.302241608377    -0.605864169335    -0.131709580552    14.003074004430
         H            2.695451608377    -1.521254169335    -0.303429580552     1.007825032230
         C            3.223771608377     0.442245830665     0.049740419448    12.000000000000
         O            4.420911608377     0.223955830665    -0.003139580552    15.994914619570
         C            2.584701608377     1.721715830665     0.290350419448    12.000000000000
         H            3.204241608377     2.588635830665     0.441830419448     1.007825032230
         C            1.237621608377     1.801705830665     0.319730419448    12.000000000000
         H            0.714781608377     2.730145830665     0.495030419448     1.007825032230
         N            0.433891608377     0.711025830665     0.129320419448    14.003074004430
         H           -0.590168391623     0.780965830665     0.153120419448     1.007825032230
         C            0.933821608377    -0.539204169335    -0.104849580552    12.000000000000
         O            0.221791608377    -1.528704169335    -0.278319580552    15.994914619570

  Running in c1 symmetry.

  Rotational constants: A =      0.09264  B =      0.01133  C =      0.01011 [cm^-1]
  Rotational constants: A =   2777.17223  B =    339.61685  C =    303.17395 [MHz]
  Nuclear repulsion =  357.302661703468004

  Charge       = 0
  Multiplicity = 1
  Electrons    = 58
  Nalpha       = 29
  Nbeta        = 29

  ==> Algorithm <==

  SCF Algorithm Type is DF.
  DIIS enabled.
  MOM disabled.
  Fractional occupation disabled.
  Guess Type is SAD.
  Energy threshold   = 1.00e-08
  Density threshold  = 1.00e-08
  Integral threshold = 0.00e+00

  ==> Primary Basis <==

  Basis Set: AUG-CC-PVDZ
    Blend: AUG-CC-PVDZ
    Number of shells: 148
    Number of basis function: 348
    Number of Cartesian functions: 372
    Spherical Harmonics?: true
    Max angular momentum: 2

   => Loading Basis Set <=

    Name: (AUG-CC-PVDZ AUX)
    Role: JKFIT
    Keyword: DF_BASIS_SCF
    atoms 1, 5, 11, 13, 15, 19   entry C          line   154 file /home/liuchw/anaconda3/envs/psi4env/share/psi4/basis/aug-cc-pvdz-jkfit.gbs 
    atoms 2-3, 12, 20            entry O          line   270 file /home/liuchw/anaconda3/envs/psi4env/share/psi4/basis/aug-cc-pvdz-jkfit.gbs 
    atoms 4, 6-8, 10, 14, 16, 18 entry H          line    70 file /home/liuchw/anaconda3/envs/psi4env/share/psi4/basis/aug-cc-pvdz-jkfit.gbs 
    atoms 9, 17                  entry N          line   212 file /home/liuchw/anaconda3/envs/psi4env/share/psi4/basis/aug-cc-pvdz-jkfit.gbs 

  ==> Pre-Iterations <==

   -------------------------------------------------------
    Irrep   Nso     Nmo     Nalpha   Nbeta   Ndocc  Nsocc
   -------------------------------------------------------
     A        348     348       0       0       0       0
   -------------------------------------------------------
    Total     348     348      29      29      29       0
   -------------------------------------------------------

  ==> Integral Setup <==

  ==> DiskDFJK: Density-Fitted J/K Matrices <==

    J tasked:                  Yes
    K tasked:                  Yes
    wK tasked:                  No
    OpenMP threads:              8
    Integrals threads:           8
    Memory [MiB]:            14305
    Algorithm:                Core
    Integral Cache:           LOAD
    Schwarz Cutoff:          1E-12
    Fitting Condition:       1E-10

   => Auxiliary Basis Set <=

  Basis Set: (AUG-CC-PVDZ AUX)
    Blend: AUG-CC-PVDZ-JKFIT
    Number of shells: 432
    Number of basis function: 1288
    Number of Cartesian functions: 1492
    Spherical Harmonics?: true
    Max angular momentum: 3

  Minimum eigenvalue in the overlap matrix is 1.0569415141E-05.
  Using Symmetric Orthogonalization.

  SCF Guess: Superposition of Atomic Densities via on-the-fly atomic UHF.

  ==> Iterations <==

                           Total Energy        Delta E     RMS |[F,P]|

   @DF-RHF iter SAD:  -411.89643114182223   -4.11896e+02   0.00000e+00 
   @DF-RHF iter   1:  -412.28297375486932   -3.86543e-01   2.06833e-03 DIIS
   @DF-RHF iter   2:  -412.44566143729804   -1.62688e-01   1.34603e-03 DIIS
   @DF-RHF iter   3:  -412.52307641756562   -7.74150e-02   2.52523e-04 DIIS
   @DF-RHF iter   4:  -412.52735021311946   -4.27380e-03   9.92102e-05 DIIS
   @DF-RHF iter   5:  -412.52818485329163   -8.34640e-04   2.02530e-05 DIIS
   @DF-RHF iter   6:  -412.52828159979413   -9.67465e-05   1.02524e-05 DIIS
   @DF-RHF iter   7:  -412.52829855645149   -1.69567e-05   3.91361e-06 DIIS
   @DF-RHF iter   8:  -412.52830135738623   -2.80093e-06   1.33946e-06 DIIS
   @DF-RHF iter   9:  -412.52830155978211   -2.02396e-07   5.58162e-07 DIIS
   @DF-RHF iter  10:  -412.52830161169726   -5.19152e-08   1.82620e-07 DIIS
   @DF-RHF iter  11:  -412.52830161759368   -5.89642e-09   6.23963e-08 DIIS
   @DF-RHF iter  12:  -412.52830161807873   -4.85045e-10   1.80725e-08 DIIS
   @DF-RHF iter  13:  -412.52830161813358   -5.48539e-11   6.37958e-09 DIIS
  Energy and wave function converged.


  ==> Post-Iterations <==

    Orbital Energies [Eh]
    ---------------------

    Doubly Occupied:                                                      

       1A    -20.554737     2A    -20.552245     3A    -15.656788  
       4A    -15.635008     5A    -11.425986     6A    -11.390837  
       7A    -11.350206     8A    -11.264962     9A     -1.436577  
      10A     -1.402993    11A     -1.316964    12A     -1.250494  
      13A     -1.093897    14A     -0.940483    15A     -0.904177  
      16A     -0.809952    17A     -0.769842    18A     -0.717038  
      19A     -0.679452    20A     -0.670586    21A     -0.650172  
      22A     -0.617269    23A     -0.603151    24A     -0.571836  
      25A     -0.523377    26A     -0.480617    27A     -0.448772  
      28A     -0.434526    29A     -0.370503  

    Virtual:                                                              

      30A      0.013544    31A      0.029467    32A      0.042976  
      33A      0.047595    34A      0.052659    35A      0.056087  
      36A      0.062509    37A      0.069671    38A      0.080535  
      39A      0.082351    40A      0.086702    41A      0.101392  
      42A      0.108233    43A      0.110377    44A      0.115115  
      45A      0.119569    46A      0.131080    47A      0.137176  
      48A      0.139736    49A      0.140867    50A      0.143356  
      51A      0.146742    52A      0.154346    53A      0.154553  
      54A      0.161073    55A      0.161210    56A      0.172479  
      57A      0.173838    58A      0.177526    59A      0.188262  
      60A      0.210019    61A      0.210416    62A      0.216426  
      63A      0.227628    64A      0.227759    65A      0.235436  
      66A      0.242506    67A      0.243143    68A      0.252570  
      69A      0.260934    70A      0.262204    71A      0.272477  
      72A      0.280035    73A      0.285353    74A      0.293620  
      75A      0.299955    76A      0.306389    77A      0.317456  
      78A      0.317748    79A      0.326833    80A      0.332931  
      81A      0.339006    82A      0.343165    83A      0.346649  
      84A      0.358531    85A      0.362939    86A      0.365144  
      87A      0.368889    88A      0.371047    89A      0.379689  
      90A      0.384950    91A      0.389023    92A      0.396328  
      93A      0.411290    94A      0.421034    95A      0.425911  
      96A      0.431918    97A      0.443524    98A      0.445157  
      99A      0.449914   100A      0.458474   101A      0.461445  
     102A      0.466154   103A      0.485932   104A      0.487152  
     105A      0.493459   106A      0.511170   107A      0.513003  
     108A      0.519236   109A      0.528708   110A      0.529333  
     111A      0.535655   112A      0.543057   113A      0.551470  
     114A      0.555618   115A      0.574905   116A      0.577301  
     117A      0.593551   118A      0.594041   119A      0.603565  
     120A      0.605476   121A      0.610274   122A      0.625963  
     123A      0.634406   124A      0.639307   125A      0.642257  
     126A      0.650705   127A      0.652363   128A      0.662184  
     129A      0.665156   130A      0.682616   131A      0.687316  
     132A      0.699497   133A      0.701309   134A      0.708007  
     135A      0.712338   136A      0.725043   137A      0.731116  
     138A      0.748662   139A      0.752102   140A      0.757383  
     141A      0.783893   142A      0.785031   143A      0.792431  
     144A      0.797677   145A      0.804402   146A      0.808226  
     147A      0.814609   148A      0.822151   149A      0.828354  
     150A      0.836660   151A      0.846470   152A      0.852863  
     153A      0.862744   154A      0.868111   155A      0.871432  
     156A      0.883508   157A      0.894800   158A      0.897763  
     159A      0.924642   160A      0.926871   161A      0.940338  
     162A      0.940435   163A      0.958602   164A      0.966512  
     165A      0.971246   166A      0.980199   167A      0.983638  
     168A      0.998533   169A      1.011208   170A      1.037274  
     171A      1.043353   172A      1.051452   173A      1.057353  
     174A      1.069381   175A      1.080356   176A      1.100700  
     177A      1.106883   178A      1.108620   179A      1.125151  
     180A      1.127804   181A      1.163790   182A      1.164231  
     183A      1.194837   184A      1.196944   185A      1.202623  
     186A      1.243919   187A      1.253194   188A      1.258577  
     189A      1.271688   190A      1.283029   191A      1.298512  
     192A      1.299842   193A      1.322206   194A      1.350420  
     195A      1.353017   196A      1.369175   197A      1.398919  
     198A      1.409535   199A      1.410200   200A      1.435162  
     201A      1.459181   202A      1.467380   203A      1.472053  
     204A      1.487072   205A      1.503330   206A      1.523312  
     207A      1.537210   208A      1.543499   209A      1.545581  
     210A      1.564308   211A      1.567765   212A      1.593994  
     213A      1.607568   214A      1.621562   215A      1.639553  
     216A      1.651054   217A      1.659087   218A      1.677387  
     219A      1.685481   220A      1.709487   221A      1.721282  
     222A      1.755760   223A      1.768130   224A      1.810130  
     225A      1.818196   226A      1.827677   227A      1.838681  
     228A      1.843995   229A      1.879614   230A      1.893292  
     231A      1.904605   232A      1.912207   233A      1.927661  
     234A      1.938220   235A      1.981115   236A      1.996106  
     237A      2.007586   238A      2.012599   239A      2.015881  
     240A      2.035526   241A      2.103073   242A      2.106285  
     243A      2.116034   244A      2.127203   245A      2.158101  
     246A      2.222410   247A      2.222740   248A      2.241744  
     249A      2.247533   250A      2.248693   251A      2.254662  
     252A      2.291673   253A      2.316475   254A      2.319215  
     255A      2.331638   256A      2.337259   257A      2.356575  
     258A      2.369205   259A      2.375070   260A      2.400461  
     261A      2.427467   262A      2.451042   263A      2.452513  
     264A      2.477161   265A      2.501768   266A      2.510826  
     267A      2.524939   268A      2.533732   269A      2.553846  
     270A      2.569975   271A      2.597809   272A      2.638152  
     273A      2.673933   274A      2.676578   275A      2.735886  
     276A      2.742328   277A      2.767895   278A      2.773082  
     279A      2.774503   280A      2.790346   281A      2.796051  
     282A      2.804203   283A      2.837565   284A      2.843886  
     285A      2.874573   286A      2.895538   287A      2.903460  
     288A      2.913239   289A      2.995569   290A      3.017814  
     291A      3.022741   292A      3.044188   293A      3.106346  
     294A      3.124111   295A      3.176526   296A      3.203680  
     297A      3.279536   298A      3.318466   299A      3.341044  
     300A      3.343824   301A      3.394101   302A      3.421280  
     303A      3.421651   304A      3.486387   305A      3.528395  
     306A      3.547096   307A      3.648858   308A      3.746440  
     309A      3.757398   310A      3.771520   311A      3.786412  
     312A      3.802919   313A      3.821888   314A      3.829408  
     315A      3.875674   316A      3.894507   317A      4.043629  
     318A      4.060261   319A      4.067130   320A      4.132954  
     321A      4.205952   322A      4.238033   323A      4.346315  
     324A      4.570764   325A      4.713243   326A      4.734701  
     327A      4.937977   328A      4.982659   329A      4.984572  
     330A      5.025831   331A      5.066903   332A      5.095133  
     333A      5.150590   334A      5.154380   335A      5.320936  
     336A      5.663691   337A      5.759388   338A      5.791947  
     339A      5.983572   340A      6.057679   341A      6.311189  
     342A      6.619869   343A      6.886841   344A      7.133704  
     345A     18.363727   346A     18.988075   347A     33.505273  
     348A     33.585143  

    Final Occupation by Irrep:
              A 
    DOCC [    29 ]

  @DF-RHF Final Energy:  -412.52830161813358

   => Energetics <=

    Nuclear Repulsion Energy =            357.3026617034680044
    One-Electron Energy =               -1270.6150349686531627
    Two-Electron Energy =                 500.7840716470516327
    Total Energy =                       -412.5283016181335825

Computation Completed


Properties will be evaluated at   0.000000,   0.000000,   0.000000 [a0]

Properties computed using the SCF density matrix

  Nuclear Dipole Moment: [e a0]
     X:   208.2447      Y:    29.1687      Z:     3.4922

  Electronic Dipole Moment: [e a0]
     X:  -209.4558      Y:   -27.5428      Z:    -3.1818

  Dipole Moment: [e a0]
     X:    -1.2111      Y:     1.6259      Z:     0.3104     Total:     2.0510

  Dipole Moment: [D]
     X:    -3.0783      Y:     4.1326      Z:     0.7889     Total:     5.2131


*** tstop() called on node84.bme.utexas.edu at Thu Apr 23 17:25:54 2020
Module time:
	user time   =      59.03 seconds =       0.98 minutes
	system time =       1.45 seconds =       0.02 minutes
	total time  =          9 seconds =       0.15 minutes
Total time:
	user time   =     211.62 seconds =       3.53 minutes
	system time =       4.98 seconds =       0.08 minutes
	total time  =         32 seconds =       0.53 minutes
  Constructing Basis Sets for SAPT...

   => Loading Basis Set <=

    Name: (AUG-CC-PVDZ AUX)
    Role: RIFIT
    Keyword: DF_BASIS_SAPT
    atoms 1, 5, 11, 13, 15, 19   entry C          line   112 file /home/liuchw/anaconda3/envs/psi4env/share/psi4/basis/aug-cc-pvdz-ri.gbs 
    atoms 2-3, 12, 20            entry O          line   204 file /home/liuchw/anaconda3/envs/psi4env/share/psi4/basis/aug-cc-pvdz-ri.gbs 
    atoms 4, 6-8, 10, 14, 16, 18 entry H          line    30 file /home/liuchw/anaconda3/envs/psi4env/share/psi4/basis/aug-cc-pvdz-ri.gbs 
    atoms 9, 17                  entry N          line   158 file /home/liuchw/anaconda3/envs/psi4env/share/psi4/basis/aug-cc-pvdz-ri.gbs 


  //>>>>>>>>>>>>>>>>>>>>>>>>>>>>>>>>>>>//
  //               SAPT2+              //
  //<<<<<<<<<<<<<<<<<<<<<<<<<<<<<<<<<<<//


*** tstart() called on node84.bme.utexas.edu
*** at Thu Apr 23 17:25:54 2020

        SAPT2+  
    Ed Hohenstein
     6 June 2009

      Orbital Information
  --------------------------
    NSO        =       348
    NMO        =       348
    NRI        =      1048
    NOCC A     =        16
    NOCC B     =        29
    FOCC A     =         4
    FOCC B     =         8
    NVIR A     =       332
    NVIR B     =       319

    Estimated memory usage: 3148.9 MB

    Natural Orbital Cutoff:   1.000E-06
    Disp(T3) Truncation:            Yes
    CCD (vv|vv) Truncation:         Yes
    MBPT T2 Truncation:             Yes

    Monomer A: 220 virtual orbitals dropped
    Monomer B: 133 virtual orbitals dropped

    Elst10,r            =    -0.022703688139 [Eh]
    Exch10 (S^2)        =     0.007881124193 [Eh]
    Exch10              =     0.007907797436 [Eh]
    Ind20,r (A<-B)      =    -0.002842604184 [Eh]
    Ind20,r (B<-A)      =    -0.002774324199 [Eh]
    Ind20,r             =    -0.005616928383 [Eh]
    Exch-Ind20,r (A<-B) =     0.000953890742 [Eh]
    Exch-Ind20,r (B<-A) =     0.000913747619 [Eh]
    Exch-Ind20,r        =     0.001867638362 [Eh]
    Disp20              =    -0.005347646223 [Eh]
    Disp20 (NO)         =    -0.004856317796 [Eh]
    Exch-Disp20         =     0.000584645358 [Eh]
    Elst12,r            =     0.002242121136 [Eh]
    Exch11              =    -0.000088522060 [Eh]
    Exch12              =     0.002350088348 [Eh]
    Ind22               =    -0.000821858095 [Eh]
    Disp21              =     0.000412520622 [Eh]
    Disp22 (SDQ)        =    -0.000337178821 [Eh]

    (i =   1 of  21)          8 seconds
    (i =   2 of  21)         16 seconds
    (i =   3 of  21)         25 seconds
    (i =   4 of  21)         33 seconds
    (i =   5 of  21)         41 seconds
    (i =   6 of  21)         49 seconds
    (i =   7 of  21)         57 seconds
    (i =   8 of  21)         65 seconds
    (i =   9 of  21)         74 seconds
    (i =  10 of  21)         82 seconds
    (i =  11 of  21)         90 seconds
    (i =  12 of  21)         98 seconds
    (i =  13 of  21)        106 seconds
    (i =  14 of  21)        115 seconds
    (i =  15 of  21)        123 seconds
    (i =  16 of  21)        131 seconds
    (i =  17 of  21)        139 seconds
    (i =  18 of  21)        147 seconds
    (i =  19 of  21)        155 seconds
    (i =  20 of  21)        164 seconds
    (i =  21 of  21)        172 seconds

    Disp220 (T)         =    -0.000508104942 [Eh]

    (i =   1 of  12)         40 seconds
    (i =   2 of  12)         81 seconds
    (i =   3 of  12)        121 seconds
    (i =   4 of  12)        162 seconds
    (i =   5 of  12)        202 seconds
    (i =   6 of  12)        242 seconds
    (i =   7 of  12)        283 seconds
    (i =   8 of  12)        323 seconds
    (i =   9 of  12)        363 seconds
    (i =  10 of  12)        404 seconds
    (i =  11 of  12)        444 seconds
    (i =  12 of  12)        484 seconds

    Disp202 (T)         =    -0.000505037428 [Eh]

    Disp22 (T)          =    -0.001013142370 [Eh]

    Est. Disp220 (T)    =    -0.000559511462 [Eh]
    Est. Disp202 (T)    =    -0.000556133600 [Eh]

    Est. Disp22 (T)     =    -0.001115645062 [Eh]

    SAPT Results 
  --------------------------------------------------------------------------------------------------------
    Electrostatics                -20.46156700 [mEh]     -12.83982714 [kcal/mol]     -53.72183676 [kJ/mol]
      Elst10,r                    -22.70368814 [mEh]     -14.24677940 [kcal/mol]     -59.60852500 [kJ/mol]
      Elst12,r                      2.24212114 [mEh]       1.40695225 [kcal/mol]       5.88668823 [kJ/mol]

    Exchange                       10.16936372 [mEh]       6.38137208 [kcal/mol]      26.69966078 [kJ/mol]
      Exch10                        7.90779744 [mEh]       4.96221781 [kcal/mol]      20.76191931 [kJ/mol]
      Exch10(S^2)                   7.88112419 [mEh]       4.94548010 [kcal/mol]      20.69188872 [kJ/mol]
      Exch11(S^2)                  -0.08852206 [mEh]      -0.05554843 [kcal/mol]      -0.23241464 [kJ/mol]
      Exch12(S^2)                   2.35008835 [mEh]       1.47470270 [kcal/mol]       6.17015611 [kJ/mol]

    Induction                      -5.88743781 [mEh]      -3.69442300 [kcal/mol]     -15.45746583 [kJ/mol]
      Ind20,r                      -5.61692838 [mEh]      -3.52467577 [kcal/mol]     -14.74724344 [kJ/mol]
      Ind22                        -0.82185810 [mEh]      -0.51572374 [kcal/mol]      -2.15778813 [kJ/mol]
      Exch-Ind20,r                  1.86763836 [mEh]       1.17196077 [kcal/mol]       4.90348384 [kJ/mol]
      Exch-Ind22                    0.27326923 [mEh]       0.17147903 [kcal/mol]       0.71746827 [kJ/mol]
      delta HF,r (2)               -1.58955892 [mEh]      -0.99746328 [kcal/mol]      -4.17338638 [kJ/mol]

    Dispersion                     -5.80330413 [mEh]      -3.64162832 [kcal/mol]     -15.23657288 [kJ/mol]
      Disp20                       -5.34764622 [mEh]      -3.35569867 [kcal/mol]     -14.04024322 [kJ/mol]
      Disp21                        0.41252062 [mEh]       0.25886060 [kcal/mol]       1.08307274 [kJ/mol]
      Disp22 (SDQ)                 -0.33717882 [mEh]      -0.21158290 [kcal/mol]      -0.88526287 [kJ/mol]
      Disp22 (T)                   -1.01314237 [mEh]      -0.63575644 [kcal/mol]      -2.66000493 [kJ/mol]
      Est. Disp22 (T)              -1.11564506 [mEh]      -0.70007785 [kcal/mol]      -2.92912571 [kJ/mol]
      Exch-Disp20                   0.58464536 [mEh]       0.36687050 [kcal/mol]       1.53498618 [kJ/mol]

  Total HF                        -20.13473965 [mEh]     -12.63473988 [kcal/mol]     -52.86375166 [kJ/mol]
  Total SAPT0                     -24.89774051 [mEh]     -15.62356805 [kcal/mol]     -65.36900871 [kJ/mol]
  Total SAPT2                     -20.94264195 [mEh]     -13.14170623 [kcal/mol]     -54.98489887 [kJ/mol]
  Total SAPT2+                    -21.98294521 [mEh]     -13.79450638 [kcal/mol]     -57.71621470 [kJ/mol]

  Special recipe for scaled SAPT0 (see Manual):
    Electrostatics sSAPT0         -22.70368814 [mEh]     -14.24677940 [kcal/mol]     -59.60852500 [kJ/mol]
    Exchange sSAPT0                 7.90779744 [mEh]       4.96221781 [kcal/mol]      20.76191931 [kJ/mol]
    Induction sSAPT0               -5.31982193 [mEh]      -3.33823866 [kcal/mol]     -13.96719055 [kJ/mol]
    Dispersion sSAPT0              -4.75704465 [mEh]      -2.98509058 [kcal/mol]     -12.48961901 [kJ/mol]
  Total sSAPT0                    -24.87275728 [mEh]     -15.60789083 [kcal/mol]     -65.30341524 [kJ/mol]
  --------------------------------------------------------------------------------------------------------

*** tstop() called on node84.bme.utexas.edu at Thu Apr 23 17:40:49 2020
Module time:
	user time   =    6594.15 seconds =     109.90 minutes
	system time =      93.13 seconds =       1.55 minutes
	total time  =        895 seconds =      14.92 minutes
Total time:
	user time   =    6807.01 seconds =     113.45 minutes
	system time =      98.15 seconds =       1.64 minutes
	total time  =        927 seconds =      15.45 minutes

    Psi4 stopped on: Thursday, 23 April 2020 05:40PM
    Psi4 wall time for execution: 0:15:26.98

*** Psi4 exiting successfully. Buy a developer a beer!
