
    -----------------------------------------------------------------------
          Psi4: An Open-Source Ab Initio Electronic Structure Package
                               Psi4 1.4a2.dev224 

                         Git: Rev {master} e453b16 


    R. M. Parrish, L. A. Burns, D. G. A. Smith, A. C. Simmonett,
    A. E. DePrince III, E. G. Hohenstein, U. Bozkaya, A. Yu. Sokolov,
    R. Di Remigio, R. M. Richard, J. F. Gonthier, A. M. James,
    H. R. McAlexander, A. Kumar, M. Saitow, X. Wang, B. P. Pritchard,
    P. Verma, H. F. Schaefer III, K. Patkowski, R. A. King, E. F. Valeev,
    F. A. Evangelista, J. M. Turney, T. D. Crawford, and C. D. Sherrill,
    J. Chem. Theory Comput. 13(7) pp 3185--3197 (2017).
    (doi: 10.1021/acs.jctc.7b00174)


                         Additional Contributions by
    P. Kraus, H. Kruse, M. H. Lechner, M. C. Schieber, R. A. Shaw,
    A. Alenaizan, R. Galvelis, Z. L. Glick, S. Lehtola, and J. P. Misiewicz

    -----------------------------------------------------------------------


    Psi4 started on: Thursday, 23 April 2020 11:27AM

    Process ID: 36490
    Host:       node89.bme.utexas.edu
    PSIDATADIR: /home/liuchw/anaconda3/envs/psi4env/share/psi4
    Memory:     500.0 MiB
    Threads:    8
    
  ==> Input File <==

--------------------------------------------------------------------------
#Generated by lconvert.py for sapt job

memory 20 GB

molecule  {
0 1
  C      -1.113630    1.327020    0.275170
  O      -0.467080    2.349390    0.461540
  O      -0.578090    0.136920    0.049620
  H       0.413320    0.203260    0.055490
  C      -2.611430    1.286190    0.277360
  H      -3.006650    2.276890    0.465790
  H      -2.964260    0.915260   -0.682000
  H      -2.953110    0.591800    1.041240
--
0 1
  N       5.219170    1.073500    0.172590
  H       5.612380    0.158110    0.000870
  C       6.140700    2.121610    0.354040
  O       7.337840    1.903320    0.301160
  C       5.501630    3.401070    0.594650
  H       6.121170    4.268000    0.746130
  C       4.154550    3.481070    0.624030
  H       3.631710    4.409510    0.799330
  N       3.350820    2.390380    0.433620
  H       2.326760    2.460330    0.457410
  C       3.850750    1.140160    0.199450
  O       3.138720    0.150660    0.025980
units angstrom
no_reorient
symmetry c1
}

set {
scf_type DF
basis aug-cc-pvdz
freeze_core True
guess SAD
}
energy('sapt2+')
--------------------------------------------------------------------------

  Memory set to  18.626 GiB by Python driver.

Scratch directory: /scratch/liuchw/

  //>>>>>>>>>>>>>>>>>>>>>>>>>>>>>>>>>>>//
  //              Dimer HF             //
  //<<<<<<<<<<<<<<<<<<<<<<<<<<<<<<<<<<<//


*** tstart() called on node89.bme.utexas.edu
*** at Thu Apr 23 11:27:20 2020

   => Loading Basis Set <=

    Name: AUG-CC-PVDZ
    Role: ORBITAL
    Keyword: BASIS
    atoms 1, 5, 11, 13, 15, 19   entry C          line   182 file /home/liuchw/anaconda3/envs/psi4env/share/psi4/basis/aug-cc-pvdz.gbs 
    atoms 2-3, 12, 20            entry O          line   254 file /home/liuchw/anaconda3/envs/psi4env/share/psi4/basis/aug-cc-pvdz.gbs 
    atoms 4, 6-8, 10, 14, 16, 18 entry H          line    40 file /home/liuchw/anaconda3/envs/psi4env/share/psi4/basis/aug-cc-pvdz.gbs 
    atoms 9, 17                  entry N          line   218 file /home/liuchw/anaconda3/envs/psi4env/share/psi4/basis/aug-cc-pvdz.gbs 


         ---------------------------------------------------------
                                   SCF
               by Justin Turney, Rob Parrish, Andy Simmonett
                          and Daniel G. A. Smith
                              RHF Reference
                        8 Threads,  19073 MiB Core
         ---------------------------------------------------------

  ==> Geometry <==

    Molecular point group: c1
    Full point group: C1

    Geometry (in Angstrom), charge = 0, multiplicity = 1:

       Center              X                  Y                   Z               Mass       
    ------------   -----------------  -----------------  -----------------  -----------------
         C           -3.852303929160    -0.356312706065    -0.031142454979    12.000000000000
         O           -3.205753929160     0.666057293935     0.155227545021    15.994914619570
         O           -3.316763929160    -1.546412706065    -0.256692454979    15.994914619570
         H           -2.325353929160    -1.480072706065    -0.250822454979     1.007825032230
         C           -5.350103929160    -0.397142706065    -0.028952454979    12.000000000000
         H           -5.745323929160     0.593557293935     0.159477545021     1.007825032230
         H           -5.702933929160    -0.768072706065    -0.988312454979     1.007825032230
         H           -5.691783929160    -1.091532706065     0.734927545021     1.007825032230
         N            2.480496070840    -0.609832706065    -0.133722454979    14.003074004430
         H            2.873706070840    -1.525222706065    -0.305442454979     1.007825032230
         C            3.402026070840     0.438277293935     0.047727545021    12.000000000000
         O            4.599166070840     0.219987293935    -0.005152454979    15.994914619570
         C            2.762956070840     1.717737293935     0.288337545021    12.000000000000
         H            3.382496070840     2.584667293935     0.439817545021     1.007825032230
         C            1.415876070840     1.797737293935     0.317717545021    12.000000000000
         H            0.893036070840     2.726177293935     0.493017545021     1.007825032230
         N            0.612146070840     0.707047293935     0.127307545021    14.003074004430
         H           -0.411913929160     0.776997293935     0.151097545021     1.007825032230
         C            1.112076070840    -0.543172706065    -0.106862454979    12.000000000000
         O            0.400046070840    -1.532672706065    -0.280332454979    15.994914619570

  Running in c1 symmetry.

  Rotational constants: A =      0.09225  B =      0.00982  C =      0.00889 [cm^-1]
  Rotational constants: A =   2765.44676  B =    294.51083  C =    266.60062 [MHz]
  Nuclear repulsion =  647.640231190576628

  Charge       = 0
  Multiplicity = 1
  Electrons    = 90
  Nalpha       = 45
  Nbeta        = 45

  ==> Algorithm <==

  SCF Algorithm Type is DF.
  DIIS enabled.
  MOM disabled.
  Fractional occupation disabled.
  Guess Type is SAD.
  Energy threshold   = 1.00e-08
  Density threshold  = 1.00e-08
  Integral threshold = 0.00e+00

  ==> Primary Basis <==

  Basis Set: AUG-CC-PVDZ
    Blend: AUG-CC-PVDZ
    Number of shells: 148
    Number of basis function: 348
    Number of Cartesian functions: 372
    Spherical Harmonics?: true
    Max angular momentum: 2

   => Loading Basis Set <=

    Name: (AUG-CC-PVDZ AUX)
    Role: JKFIT
    Keyword: DF_BASIS_SCF
    atoms 1, 5, 11, 13, 15, 19   entry C          line   154 file /home/liuchw/anaconda3/envs/psi4env/share/psi4/basis/aug-cc-pvdz-jkfit.gbs 
    atoms 2-3, 12, 20            entry O          line   270 file /home/liuchw/anaconda3/envs/psi4env/share/psi4/basis/aug-cc-pvdz-jkfit.gbs 
    atoms 4, 6-8, 10, 14, 16, 18 entry H          line    70 file /home/liuchw/anaconda3/envs/psi4env/share/psi4/basis/aug-cc-pvdz-jkfit.gbs 
    atoms 9, 17                  entry N          line   212 file /home/liuchw/anaconda3/envs/psi4env/share/psi4/basis/aug-cc-pvdz-jkfit.gbs 

  ==> Pre-Iterations <==

   -------------------------------------------------------
    Irrep   Nso     Nmo     Nalpha   Nbeta   Ndocc  Nsocc
   -------------------------------------------------------
     A        348     348       0       0       0       0
   -------------------------------------------------------
    Total     348     348      45      45      45       0
   -------------------------------------------------------

  ==> Integral Setup <==

  ==> DiskDFJK: Density-Fitted J/K Matrices <==

    J tasked:                  Yes
    K tasked:                  Yes
    wK tasked:                  No
    OpenMP threads:              8
    Integrals threads:           8
    Memory [MiB]:            14305
    Algorithm:                Core
    Integral Cache:           SAVE
    Schwarz Cutoff:          1E-12
    Fitting Condition:       1E-10

   => Auxiliary Basis Set <=

  Basis Set: (AUG-CC-PVDZ AUX)
    Blend: AUG-CC-PVDZ-JKFIT
    Number of shells: 432
    Number of basis function: 1288
    Number of Cartesian functions: 1492
    Spherical Harmonics?: true
    Max angular momentum: 3

  Minimum eigenvalue in the overlap matrix is 1.1848517709E-05.
  Using Symmetric Orthogonalization.

  SCF Guess: Superposition of Atomic Densities via on-the-fly atomic UHF.

  ==> Iterations <==

                           Total Energy        Delta E     RMS |[F,P]|

   @DF-RHF iter SAD:  -638.88695419876274   -6.38887e+02   0.00000e+00 
   @DF-RHF iter   1:  -639.99106869115496   -1.10411e+00   2.63456e-03 DIIS
   @DF-RHF iter   2:  -640.26822307288148   -2.77154e-01   1.61293e-03 DIIS
   @DF-RHF iter   3:  -640.37935130876178   -1.11128e-01   3.04769e-04 DIIS
   @DF-RHF iter   4:  -640.38565378897397   -6.30248e-03   1.26364e-04 DIIS
   @DF-RHF iter   5:  -640.38696021067267   -1.30642e-03   2.77293e-05 DIIS
   @DF-RHF iter   6:  -640.38708152725121   -1.21317e-04   1.49063e-05 DIIS
   @DF-RHF iter   7:  -640.38711523816528   -3.37109e-05   5.31402e-06 DIIS
   @DF-RHF iter   8:  -640.38712025104962   -5.01288e-06   2.24306e-06 DIIS
   @DF-RHF iter   9:  -640.38712086935823   -6.18309e-07   7.55839e-07 DIIS
   @DF-RHF iter  10:  -640.38712096170059   -9.23424e-08   2.56870e-07 DIIS
   @DF-RHF iter  11:  -640.38712097189955   -1.01990e-08   9.77899e-08 DIIS
   @DF-RHF iter  12:  -640.38712097329585   -1.39630e-09   2.73135e-08 DIIS
   @DF-RHF iter  13:  -640.38712097342727   -1.31422e-10   1.17389e-08 DIIS
   @DF-RHF iter  14:  -640.38712097345024   -2.29647e-11   4.78482e-09 DIIS
  Energy and wave function converged.


  ==> Post-Iterations <==

    Orbital Energies [Eh]
    ---------------------

    Doubly Occupied:                                                      

       1A    -20.632077     2A    -20.566088     3A    -20.557757  
       4A    -20.553521     5A    -15.652396     6A    -15.635913  
       7A    -11.428894     8A    -11.406609     9A    -11.389792  
      10A    -11.346584    11A    -11.261884    12A    -11.255266  
      13A     -1.477734    14A     -1.439026    15A     -1.403174  
      16A     -1.367596    17A     -1.316572    18A     -1.250112  
      19A     -1.091357    20A     -1.034617    21A     -0.938106  
      22A     -0.903564    23A     -0.837945    24A     -0.807326  
      25A     -0.768265    26A     -0.716090    27A     -0.713370  
      28A     -0.688330    29A     -0.678727    30A     -0.670503  
      31A     -0.659158    32A     -0.653795    33A     -0.615499  
      34A     -0.601998    35A     -0.585630    36A     -0.575816  
      37A     -0.571216    38A     -0.566261    39A     -0.523191  
      40A     -0.486704    41A     -0.485329    42A     -0.461744  
      43A     -0.449317    44A     -0.437215    45A     -0.368337  

    Virtual:                                                              

      46A      0.027162    47A      0.035105    48A      0.046929  
      49A      0.051161    50A      0.053602    51A      0.058524  
      52A      0.069061    53A      0.072255    54A      0.080524  
      55A      0.083587    56A      0.097925    57A      0.108903  
      58A      0.113944    59A      0.115275    60A      0.122318  
      61A      0.131066    62A      0.139125    63A      0.141804  
      64A      0.145245    65A      0.148291    66A      0.150470  
      67A      0.157801    68A      0.158438    69A      0.159943  
      70A      0.162609    71A      0.165436    72A      0.170488  
      73A      0.174523    74A      0.175286    75A      0.182507  
      76A      0.193749    77A      0.214324    78A      0.215423  
      79A      0.220275    80A      0.226379    81A      0.237698  
      82A      0.241324    83A      0.251589    84A      0.255992  
      85A      0.260644    86A      0.261280    87A      0.263314  
      88A      0.270779    89A      0.286176    90A      0.290700  
      91A      0.300265    92A      0.308854    93A      0.312278  
      94A      0.319623    95A      0.329187    96A      0.329427  
      97A      0.336022    98A      0.345170    99A      0.349161  
     100A      0.356249   101A      0.358390   102A      0.364305  
     103A      0.369759   104A      0.373258   105A      0.377888  
     106A      0.385005   107A      0.386083   108A      0.395660  
     109A      0.399264   110A      0.405967   111A      0.417802  
     112A      0.422782   113A      0.431875   114A      0.436853  
     115A      0.440537   116A      0.446046   117A      0.452080  
     118A      0.454177   119A      0.464136   120A      0.475230  
     121A      0.476820   122A      0.488169   123A      0.490652  
     124A      0.492773   125A      0.510792   126A      0.515558  
     127A      0.520854   128A      0.530199   129A      0.532523  
     130A      0.544582   131A      0.554679   132A      0.562043  
     133A      0.576695   134A      0.578150   135A      0.583259  
     136A      0.587157   137A      0.596697   138A      0.600944  
     139A      0.612778   140A      0.628904   141A      0.634483  
     142A      0.636001   143A      0.641911   144A      0.642752  
     145A      0.654381   146A      0.657386   147A      0.660388  
     148A      0.674999   149A      0.683147   150A      0.688668  
     151A      0.695370   152A      0.705451   153A      0.712699  
     154A      0.723101   155A      0.724138   156A      0.728630  
     157A      0.741823   158A      0.749442   159A      0.752588  
     160A      0.776090   161A      0.788853   162A      0.790900  
     163A      0.799881   164A      0.803689   165A      0.807900  
     166A      0.819750   167A      0.831445   168A      0.837267  
     169A      0.856052   170A      0.859160   171A      0.869689  
     172A      0.870634   173A      0.877469   174A      0.882829  
     175A      0.917436   176A      0.917647   177A      0.933923  
     178A      0.941391   179A      0.943840   180A      0.961711  
     181A      0.966274   182A      0.967316   183A      0.979661  
     184A      0.993835   185A      0.999039   186A      1.015406  
     187A      1.024863   188A      1.041724   189A      1.057431  
     190A      1.062248   191A      1.077071   192A      1.082250  
     193A      1.088719   194A      1.095797   195A      1.102394  
     196A      1.117147   197A      1.121881   198A      1.135371  
     199A      1.159186   200A      1.165038   201A      1.169926  
     202A      1.187327   203A      1.190385   204A      1.219434  
     205A      1.219949   206A      1.247499   207A      1.263690  
     208A      1.273233   209A      1.280325   210A      1.288146  
     211A      1.299167   212A      1.321070   213A      1.339327  
     214A      1.351232   215A      1.363245   216A      1.377928  
     217A      1.386166   218A      1.404041   219A      1.410931  
     220A      1.456050   221A      1.475748   222A      1.496081  
     223A      1.500427   224A      1.522835   225A      1.531377  
     226A      1.543387   227A      1.545854   228A      1.565872  
     229A      1.567541   230A      1.597615   231A      1.607483  
     232A      1.629757   233A      1.642172   234A      1.643627  
     235A      1.643962   236A      1.658539   237A      1.669144  
     238A      1.683006   239A      1.726133   240A      1.749210  
     241A      1.750282   242A      1.757445   243A      1.786136  
     244A      1.813465   245A      1.815639   246A      1.823095  
     247A      1.836851   248A      1.865916   249A      1.870211  
     250A      1.878066   251A      1.902517   252A      1.905155  
     253A      1.934122   254A      1.976027   255A      1.982890  
     256A      1.990596   257A      1.998428   258A      2.002934  
     259A      2.009517   260A      2.014346   261A      2.020726  
     262A      2.043183   263A      2.045153   264A      2.073653  
     265A      2.106059   266A      2.109380   267A      2.144964  
     268A      2.158798   269A      2.173219   270A      2.193202  
     271A      2.222643   272A      2.223917   273A      2.243502  
     274A      2.243595   275A      2.247675   276A      2.248331  
     277A      2.281101   278A      2.295235   279A      2.320321  
     280A      2.337350   281A      2.360722   282A      2.371067  
     283A      2.388564   284A      2.425442   285A      2.448049  
     286A      2.450219   287A      2.458383   288A      2.489346  
     289A      2.494328   290A      2.531081   291A      2.539794  
     292A      2.565697   293A      2.584834   294A      2.617431  
     295A      2.642916   296A      2.644686   297A      2.692102  
     298A      2.729030   299A      2.749379   300A      2.765293  
     301A      2.783269   302A      2.789362   303A      2.815857  
     304A      2.831657   305A      2.866072   306A      2.870290  
     307A      2.874528   308A      2.888484   309A      2.913140  
     310A      2.956196   311A      2.958954   312A      3.002572  
     313A      3.020708   314A      3.028923   315A      3.053708  
     316A      3.106366   317A      3.163786   318A      3.191257  
     319A      3.196053   320A      3.258254   321A      3.337652  
     322A      3.354638   323A      3.385195   324A      3.482623  
     325A      3.529385   326A      3.636665   327A      3.668291  
     328A      3.685202   329A      3.741708   330A      3.759945  
     331A      3.763629   332A      3.764643   333A      3.775899  
     334A      3.800224   335A      3.809739   336A      3.821422  
     337A      3.821514   338A      3.840244   339A      3.859698  
     340A      3.937503   341A      4.041964   342A      4.046724  
     343A      4.057215   344A      4.101446   345A      4.173821  
     346A      4.190472   347A      4.322003   348A      4.337236  

    Final Occupation by Irrep:
              A 
    DOCC [    45 ]

  @DF-RHF Final Energy:  -640.38712097345024

   => Energetics <=

    Nuclear Repulsion Energy =            647.6402311905766283
    One-Electron Energy =               -2160.3938949624780435
    Two-Electron Energy =                 872.3665427984510643
    Total Energy =                       -640.3871209734502372

Computation Completed


Properties will be evaluated at   0.000000,   0.000000,   0.000000 [a0]

Properties computed using the SCF density matrix

  Nuclear Dipole Moment: [e a0]
     X:   -11.9485      Y:     1.6921      Z:     0.4048

  Electronic Dipole Moment: [e a0]
     X:    10.3254      Y:    -0.8511      Z:    -0.2380

  Dipole Moment: [e a0]
     X:    -1.6231      Y:     0.8410      Z:     0.1668     Total:     1.8356

  Dipole Moment: [D]
     X:    -4.1256      Y:     2.1375      Z:     0.4239     Total:     4.6658


*** tstop() called on node89.bme.utexas.edu at Thu Apr 23 11:27:36 2020
Module time:
	user time   =     107.61 seconds =       1.79 minutes
	system time =       2.24 seconds =       0.04 minutes
	total time  =         16 seconds =       0.27 minutes
Total time:
	user time   =     107.61 seconds =       1.79 minutes
	system time =       2.24 seconds =       0.04 minutes
	total time  =         16 seconds =       0.27 minutes

  //>>>>>>>>>>>>>>>>>>>>>>>>>>>>>>>>>>>//
  //            Monomer A HF           //
  //<<<<<<<<<<<<<<<<<<<<<<<<<<<<<<<<<<<//


*** tstart() called on node89.bme.utexas.edu
*** at Thu Apr 23 11:27:36 2020

   => Loading Basis Set <=

    Name: AUG-CC-PVDZ
    Role: ORBITAL
    Keyword: BASIS
    atoms 1, 5, 11, 13, 15, 19   entry C          line   182 file /home/liuchw/anaconda3/envs/psi4env/share/psi4/basis/aug-cc-pvdz.gbs 
    atoms 2-3, 12, 20            entry O          line   254 file /home/liuchw/anaconda3/envs/psi4env/share/psi4/basis/aug-cc-pvdz.gbs 
    atoms 4, 6-8, 10, 14, 16, 18 entry H          line    40 file /home/liuchw/anaconda3/envs/psi4env/share/psi4/basis/aug-cc-pvdz.gbs 
    atoms 9, 17                  entry N          line   218 file /home/liuchw/anaconda3/envs/psi4env/share/psi4/basis/aug-cc-pvdz.gbs 


         ---------------------------------------------------------
                                   SCF
               by Justin Turney, Rob Parrish, Andy Simmonett
                          and Daniel G. A. Smith
                              RHF Reference
                        8 Threads,  19073 MiB Core
         ---------------------------------------------------------

  ==> Geometry <==

    Molecular point group: c1
    Full point group: C1

    Geometry (in Angstrom), charge = 0, multiplicity = 1:

       Center              X                  Y                   Z               Mass       
    ------------   -----------------  -----------------  -----------------  -----------------
         C           -3.852303929160    -0.356312706065    -0.031142454979    12.000000000000
         O           -3.205753929160     0.666057293935     0.155227545021    15.994914619570
         O           -3.316763929160    -1.546412706065    -0.256692454979    15.994914619570
         H           -2.325353929160    -1.480072706065    -0.250822454979     1.007825032230
         C           -5.350103929160    -0.397142706065    -0.028952454979    12.000000000000
         H           -5.745323929160     0.593557293935     0.159477545021     1.007825032230
         H           -5.702933929160    -0.768072706065    -0.988312454979     1.007825032230
         H           -5.691783929160    -1.091532706065     0.734927545021     1.007825032230
      Gh(N)           2.480496070840    -0.609832706065    -0.133722454979    14.003074004430
      Gh(H)           2.873706070840    -1.525222706065    -0.305442454979     1.007825032230
      Gh(C)           3.402026070840     0.438277293935     0.047727545021    12.000000000000
      Gh(O)           4.599166070840     0.219987293935    -0.005152454979    15.994914619570
      Gh(C)           2.762956070840     1.717737293935     0.288337545021    12.000000000000
      Gh(H)           3.382496070840     2.584667293935     0.439817545021     1.007825032230
      Gh(C)           1.415876070840     1.797737293935     0.317717545021    12.000000000000
      Gh(H)           0.893036070840     2.726177293935     0.493017545021     1.007825032230
      Gh(N)           0.612146070840     0.707047293935     0.127307545021    14.003074004430
      Gh(H)          -0.411913929160     0.776997293935     0.151097545021     1.007825032230
      Gh(C)           1.112076070840    -0.543172706065    -0.106862454979    12.000000000000
      Gh(O)           0.400046070840    -1.532672706065    -0.280332454979    15.994914619570

  Running in c1 symmetry.

  Rotational constants: A =      0.09225  B =      0.00982  C =      0.00889 [cm^-1]
  Rotational constants: A =   2765.44676  B =    294.51083  C =    266.60062 [MHz]
  Nuclear repulsion =  121.305871324627333

  Charge       = 0
  Multiplicity = 1
  Electrons    = 32
  Nalpha       = 16
  Nbeta        = 16

  ==> Algorithm <==

  SCF Algorithm Type is DF.
  DIIS enabled.
  MOM disabled.
  Fractional occupation disabled.
  Guess Type is SAD.
  Energy threshold   = 1.00e-08
  Density threshold  = 1.00e-08
  Integral threshold = 0.00e+00

  ==> Primary Basis <==

  Basis Set: AUG-CC-PVDZ
    Blend: AUG-CC-PVDZ
    Number of shells: 148
    Number of basis function: 348
    Number of Cartesian functions: 372
    Spherical Harmonics?: true
    Max angular momentum: 2

   => Loading Basis Set <=

    Name: (AUG-CC-PVDZ AUX)
    Role: JKFIT
    Keyword: DF_BASIS_SCF
    atoms 1, 5, 11, 13, 15, 19   entry C          line   154 file /home/liuchw/anaconda3/envs/psi4env/share/psi4/basis/aug-cc-pvdz-jkfit.gbs 
    atoms 2-3, 12, 20            entry O          line   270 file /home/liuchw/anaconda3/envs/psi4env/share/psi4/basis/aug-cc-pvdz-jkfit.gbs 
    atoms 4, 6-8, 10, 14, 16, 18 entry H          line    70 file /home/liuchw/anaconda3/envs/psi4env/share/psi4/basis/aug-cc-pvdz-jkfit.gbs 
    atoms 9, 17                  entry N          line   212 file /home/liuchw/anaconda3/envs/psi4env/share/psi4/basis/aug-cc-pvdz-jkfit.gbs 

  ==> Pre-Iterations <==

   -------------------------------------------------------
    Irrep   Nso     Nmo     Nalpha   Nbeta   Ndocc  Nsocc
   -------------------------------------------------------
     A        348     348       0       0       0       0
   -------------------------------------------------------
    Total     348     348      16      16      16       0
   -------------------------------------------------------

  ==> Integral Setup <==

  ==> DiskDFJK: Density-Fitted J/K Matrices <==

    J tasked:                  Yes
    K tasked:                  Yes
    wK tasked:                  No
    OpenMP threads:              8
    Integrals threads:           8
    Memory [MiB]:            14305
    Algorithm:                Core
    Integral Cache:           LOAD
    Schwarz Cutoff:          1E-12
    Fitting Condition:       1E-10

   => Auxiliary Basis Set <=

  Basis Set: (AUG-CC-PVDZ AUX)
    Blend: AUG-CC-PVDZ-JKFIT
    Number of shells: 432
    Number of basis function: 1288
    Number of Cartesian functions: 1492
    Spherical Harmonics?: true
    Max angular momentum: 3

  Minimum eigenvalue in the overlap matrix is 1.1848517709E-05.
  Using Symmetric Orthogonalization.

  SCF Guess: Superposition of Atomic Densities via on-the-fly atomic UHF.

  ==> Iterations <==

                           Total Energy        Delta E     RMS |[F,P]|

   @DF-RHF iter SAD:  -226.95927328342870   -2.26959e+02   0.00000e+00 
   @DF-RHF iter   1:  -227.68299853654273   -7.23725e-01   1.68196e-03 DIIS
   @DF-RHF iter   2:  -227.80191984531555   -1.18921e-01   9.88672e-04 DIIS
   @DF-RHF iter   3:  -227.84359416875219   -4.16743e-02   1.75166e-04 DIIS
   @DF-RHF iter   4:  -227.84588026941742   -2.28610e-03   7.60298e-05 DIIS
   @DF-RHF iter   5:  -227.84636619847237   -4.85929e-04   1.79715e-05 DIIS
   @DF-RHF iter   6:  -227.84640325262541   -3.70542e-05   8.58402e-06 DIIS
   @DF-RHF iter   7:  -227.84641296019836   -9.70757e-06   2.77504e-06 DIIS
   @DF-RHF iter   8:  -227.84641448361745   -1.52342e-06   7.53429e-07 DIIS
   @DF-RHF iter   9:  -227.84641460485378   -1.21236e-07   1.52989e-07 DIIS
   @DF-RHF iter  10:  -227.84641460901136   -4.15758e-09   3.25575e-08 DIIS
   @DF-RHF iter  11:  -227.84641460915617   -1.44809e-10   7.21460e-09 DIIS
  Energy and wave function converged.


  ==> Post-Iterations <==

    Orbital Energies [Eh]
    ---------------------

    Doubly Occupied:                                                      

       1A    -20.633069     2A    -20.556074     3A    -11.398571  
       4A    -11.250640     5A     -1.474991     6A     -1.359664  
       7A     -1.029809     8A     -0.837164     9A     -0.706286  
      10A     -0.682759    11A     -0.655595    12A     -0.579910  
      13A     -0.571997    14A     -0.563612    15A     -0.477574  
      16A     -0.451553  

    Virtual:                                                              

      17A      0.021915    18A      0.034351    19A      0.039906  
      20A      0.050348    21A      0.054548    22A      0.057276  
      23A      0.069779    24A      0.069971    25A      0.075086  
      26A      0.084167    27A      0.098611    28A      0.108080  
      29A      0.109164    30A      0.113074    31A      0.120517  
      32A      0.122277    33A      0.125807    34A      0.139636  
      35A      0.140621    36A      0.148728    37A      0.153015  
      38A      0.153918    39A      0.163617    40A      0.163630  
      41A      0.169966    42A      0.173217    43A      0.174234  
      44A      0.180713    45A      0.190689    46A      0.200083  
      47A      0.212434    48A      0.215388    49A      0.216220  
      50A      0.219882    51A      0.223850    52A      0.231878  
      53A      0.237939    54A      0.244588    55A      0.248447  
      56A      0.250652    57A      0.260599    58A      0.271158  
      59A      0.276850    60A      0.277085    61A      0.281616  
      62A      0.294415    63A      0.298198    64A      0.305721  
      65A      0.307031    66A      0.324095    67A      0.333792  
      68A      0.334046    69A      0.340843    70A      0.351490  
      71A      0.361968    72A      0.368144    73A      0.382232  
      74A      0.390010    75A      0.393501    76A      0.405247  
      77A      0.412846    78A      0.421112    79A      0.425613  
      80A      0.430431    81A      0.435892    82A      0.440652  
      83A      0.441628    84A      0.447490    85A      0.469639  
      86A      0.473990    87A      0.474971    88A      0.478926  
      89A      0.490907    90A      0.494381    91A      0.502216  
      92A      0.513520    93A      0.517116    94A      0.524955  
      95A      0.525978    96A      0.532381    97A      0.533758  
      98A      0.556650    99A      0.557254   100A      0.564069  
     101A      0.573010   102A      0.580013   103A      0.580446  
     104A      0.584417   105A      0.594822   106A      0.602617  
     107A      0.607393   108A      0.619334   109A      0.620427  
     110A      0.627477   111A      0.632465   112A      0.644306  
     113A      0.646936   114A      0.652637   115A      0.655417  
     116A      0.659340   117A      0.664378   118A      0.684510  
     119A      0.692318   120A      0.700227   121A      0.701993  
     122A      0.712133   123A      0.728690   124A      0.734717  
     125A      0.741421   126A      0.748404   127A      0.753151  
     128A      0.787334   129A      0.800708   130A      0.804177  
     131A      0.807480   132A      0.814551   133A      0.830896  
     134A      0.848681   135A      0.856513   136A      0.857034  
     137A      0.865215   138A      0.890613   139A      0.896938  
     140A      0.904688   141A      0.907437   142A      0.926160  
     143A      0.931003   144A      0.936404   145A      0.946875  
     146A      0.982920   147A      0.984595   148A      1.003887  
     149A      1.019136   150A      1.021050   151A      1.025908  
     152A      1.040305   153A      1.058313   154A      1.060200  
     155A      1.080723   156A      1.094239   157A      1.094510  
     158A      1.102758   159A      1.103581   160A      1.120229  
     161A      1.131020   162A      1.151437   163A      1.157377  
     164A      1.162922   165A      1.166082   166A      1.177720  
     167A      1.189564   168A      1.209150   169A      1.220923  
     170A      1.222158   171A      1.238689   172A      1.252489  
     173A      1.255693   174A      1.261004   175A      1.271858  
     176A      1.276504   177A      1.305393   178A      1.306959  
     179A      1.332885   180A      1.335726   181A      1.348130  
     182A      1.370535   183A      1.379468   184A      1.382156  
     185A      1.383584   186A      1.395362   187A      1.410883  
     188A      1.413043   189A      1.432764   190A      1.433135  
     191A      1.462380   192A      1.464862   193A      1.478790  
     194A      1.508873   195A      1.526658   196A      1.536900  
     197A      1.564427   198A      1.566129   199A      1.570212  
     200A      1.571126   201A      1.578885   202A      1.606241  
     203A      1.647957   204A      1.650346   205A      1.667992  
     206A      1.687834   207A      1.706789   208A      1.742723  
     209A      1.755343   210A      1.781329   211A      1.799306  
     212A      1.819582   213A      1.838124   214A      1.870507  
     215A      1.882933   216A      1.893283   217A      1.985067  
     218A      1.999130   219A      2.039582   220A      2.045917  
     221A      2.053255   222A      2.099393   223A      2.148778  
     224A      2.167258   225A      2.175657   226A      2.202591  
     227A      2.207652   228A      2.235342   229A      2.250025  
     230A      2.253259   231A      2.260082   232A      2.265383  
     233A      2.292924   234A      2.300638   235A      2.340732  
     236A      2.364221   237A      2.383011   238A      2.415023  
     239A      2.435202   240A      2.454267   241A      2.470921  
     242A      2.475923   243A      2.508218   244A      2.532195  
     245A      2.542788   246A      2.553947   247A      2.561086  
     248A      2.565586   249A      2.611892   250A      2.632530  
     251A      2.649811   252A      2.666330   253A      2.672192  
     254A      2.697677   255A      2.711045   256A      2.762830  
     257A      2.775112   258A      2.818499   259A      2.820713  
     260A      2.843780   261A      2.875434   262A      2.901669  
     263A      2.909058   264A      2.960094   265A      2.960542  
     266A      2.977855   267A      3.017926   268A      3.042969  
     269A      3.051056   270A      3.058945   271A      3.114009  
     272A      3.158178   273A      3.198373   274A      3.215317  
     275A      3.298115   276A      3.315087   277A      3.357081  
     278A      3.371981   279A      3.452843   280A      3.466279  
     281A      3.500584   282A      3.527144   283A      3.615646  
     284A      3.637473   285A      3.653070   286A      3.662941  
     287A      3.680783   288A      3.700072   289A      3.719028  
     290A      3.750697   291A      3.785896   292A      3.788435  
     293A      3.797340   294A      3.804543   295A      3.821248  
     296A      3.851500   297A      3.877644   298A      3.901877  
     299A      3.933119   300A      3.953886   301A      4.055668  
     302A      4.078524   303A      4.116684   304A      4.188200  
     305A      4.208259   306A      4.329997   307A      4.391321  
     308A      4.439671   309A      4.474991   310A      4.558838  
     311A      4.628027   312A      4.663625   313A      4.714569  
     314A      4.745947   315A      4.788755   316A      4.925773  
     317A      4.965099   318A      5.007328   319A      5.016067  
     320A      5.034149   321A      5.038696   322A      5.069720  
     323A      5.143119   324A      5.248715   325A      5.337690  
     326A      5.447269   327A      5.536501   328A      5.698518  
     329A      5.773050   330A      5.898232   331A      5.948025  
     332A      5.963279   333A      6.034149   334A      6.067538  
     335A      6.161585   336A      6.215302   337A      6.390186  
     338A      6.518703   339A      7.007972   340A      7.279042  
     341A     18.171320   342A     18.733550   343A     18.806485  
     344A     19.526436   345A     25.458583   346A     25.471415  
     347A     33.524447   348A     33.545061  

    Final Occupation by Irrep:
              A 
    DOCC [    16 ]

  @DF-RHF Final Energy:  -227.84641460915617

   => Energetics <=

    Nuclear Repulsion Energy =            121.3058713246273328
    One-Electron Energy =                -551.8460357643667749
    Two-Electron Energy =                 202.6937498305832719
    Total Energy =                       -227.8464146091561702

Computation Completed


Properties will be evaluated at   0.000000,   0.000000,   0.000000 [a0]

Properties computed using the SCF density matrix

  Nuclear Dipole Moment: [e a0]
     X:  -239.7306      Y:   -27.0414      Z:    -2.8667

  Electronic Dipole Moment: [e a0]
     X:   239.3431      Y:    26.2611      Z:     2.7238

  Dipole Moment: [e a0]
     X:    -0.3875      Y:    -0.7803      Z:    -0.1430     Total:     0.8829

  Dipole Moment: [D]
     X:    -0.9850      Y:    -1.9833      Z:    -0.3634     Total:     2.2440


*** tstop() called on node89.bme.utexas.edu at Thu Apr 23 11:27:42 2020
Module time:
	user time   =      43.13 seconds =       0.72 minutes
	system time =       1.18 seconds =       0.02 minutes
	total time  =          6 seconds =       0.10 minutes
Total time:
	user time   =     150.81 seconds =       2.51 minutes
	system time =       3.42 seconds =       0.06 minutes
	total time  =         22 seconds =       0.37 minutes

  //>>>>>>>>>>>>>>>>>>>>>>>>>>>>>>>>>>>//
  //            Monomer B HF           //
  //<<<<<<<<<<<<<<<<<<<<<<<<<<<<<<<<<<<//


*** tstart() called on node89.bme.utexas.edu
*** at Thu Apr 23 11:27:42 2020

   => Loading Basis Set <=

    Name: AUG-CC-PVDZ
    Role: ORBITAL
    Keyword: BASIS
    atoms 1, 5, 11, 13, 15, 19   entry C          line   182 file /home/liuchw/anaconda3/envs/psi4env/share/psi4/basis/aug-cc-pvdz.gbs 
    atoms 2-3, 12, 20            entry O          line   254 file /home/liuchw/anaconda3/envs/psi4env/share/psi4/basis/aug-cc-pvdz.gbs 
    atoms 4, 6-8, 10, 14, 16, 18 entry H          line    40 file /home/liuchw/anaconda3/envs/psi4env/share/psi4/basis/aug-cc-pvdz.gbs 
    atoms 9, 17                  entry N          line   218 file /home/liuchw/anaconda3/envs/psi4env/share/psi4/basis/aug-cc-pvdz.gbs 


         ---------------------------------------------------------
                                   SCF
               by Justin Turney, Rob Parrish, Andy Simmonett
                          and Daniel G. A. Smith
                              RHF Reference
                        8 Threads,  19073 MiB Core
         ---------------------------------------------------------

  ==> Geometry <==

    Molecular point group: c1
    Full point group: C1

    Geometry (in Angstrom), charge = 0, multiplicity = 1:

       Center              X                  Y                   Z               Mass       
    ------------   -----------------  -----------------  -----------------  -----------------
      Gh(C)          -3.852303929160    -0.356312706065    -0.031142454979    12.000000000000
      Gh(O)          -3.205753929160     0.666057293935     0.155227545021    15.994914619570
      Gh(O)          -3.316763929160    -1.546412706065    -0.256692454979    15.994914619570
      Gh(H)          -2.325353929160    -1.480072706065    -0.250822454979     1.007825032230
      Gh(C)          -5.350103929160    -0.397142706065    -0.028952454979    12.000000000000
      Gh(H)          -5.745323929160     0.593557293935     0.159477545021     1.007825032230
      Gh(H)          -5.702933929160    -0.768072706065    -0.988312454979     1.007825032230
      Gh(H)          -5.691783929160    -1.091532706065     0.734927545021     1.007825032230
         N            2.480496070840    -0.609832706065    -0.133722454979    14.003074004430
         H            2.873706070840    -1.525222706065    -0.305442454979     1.007825032230
         C            3.402026070840     0.438277293935     0.047727545021    12.000000000000
         O            4.599166070840     0.219987293935    -0.005152454979    15.994914619570
         C            2.762956070840     1.717737293935     0.288337545021    12.000000000000
         H            3.382496070840     2.584667293935     0.439817545021     1.007825032230
         C            1.415876070840     1.797737293935     0.317717545021    12.000000000000
         H            0.893036070840     2.726177293935     0.493017545021     1.007825032230
         N            0.612146070840     0.707047293935     0.127307545021    14.003074004430
         H           -0.411913929160     0.776997293935     0.151097545021     1.007825032230
         C            1.112076070840    -0.543172706065    -0.106862454979    12.000000000000
         O            0.400046070840    -1.532672706065    -0.280332454979    15.994914619570

  Running in c1 symmetry.

  Rotational constants: A =      0.09225  B =      0.00982  C =      0.00889 [cm^-1]
  Rotational constants: A =   2765.44676  B =    294.51083  C =    266.60062 [MHz]
  Nuclear repulsion =  357.302906501041434

  Charge       = 0
  Multiplicity = 1
  Electrons    = 58
  Nalpha       = 29
  Nbeta        = 29

  ==> Algorithm <==

  SCF Algorithm Type is DF.
  DIIS enabled.
  MOM disabled.
  Fractional occupation disabled.
  Guess Type is SAD.
  Energy threshold   = 1.00e-08
  Density threshold  = 1.00e-08
  Integral threshold = 0.00e+00

  ==> Primary Basis <==

  Basis Set: AUG-CC-PVDZ
    Blend: AUG-CC-PVDZ
    Number of shells: 148
    Number of basis function: 348
    Number of Cartesian functions: 372
    Spherical Harmonics?: true
    Max angular momentum: 2

   => Loading Basis Set <=

    Name: (AUG-CC-PVDZ AUX)
    Role: JKFIT
    Keyword: DF_BASIS_SCF
    atoms 1, 5, 11, 13, 15, 19   entry C          line   154 file /home/liuchw/anaconda3/envs/psi4env/share/psi4/basis/aug-cc-pvdz-jkfit.gbs 
    atoms 2-3, 12, 20            entry O          line   270 file /home/liuchw/anaconda3/envs/psi4env/share/psi4/basis/aug-cc-pvdz-jkfit.gbs 
    atoms 4, 6-8, 10, 14, 16, 18 entry H          line    70 file /home/liuchw/anaconda3/envs/psi4env/share/psi4/basis/aug-cc-pvdz-jkfit.gbs 
    atoms 9, 17                  entry N          line   212 file /home/liuchw/anaconda3/envs/psi4env/share/psi4/basis/aug-cc-pvdz-jkfit.gbs 

  ==> Pre-Iterations <==

   -------------------------------------------------------
    Irrep   Nso     Nmo     Nalpha   Nbeta   Ndocc  Nsocc
   -------------------------------------------------------
     A        348     348       0       0       0       0
   -------------------------------------------------------
    Total     348     348      29      29      29       0
   -------------------------------------------------------

  ==> Integral Setup <==

  ==> DiskDFJK: Density-Fitted J/K Matrices <==

    J tasked:                  Yes
    K tasked:                  Yes
    wK tasked:                  No
    OpenMP threads:              8
    Integrals threads:           8
    Memory [MiB]:            14305
    Algorithm:                Core
    Integral Cache:           LOAD
    Schwarz Cutoff:          1E-12
    Fitting Condition:       1E-10

   => Auxiliary Basis Set <=

  Basis Set: (AUG-CC-PVDZ AUX)
    Blend: AUG-CC-PVDZ-JKFIT
    Number of shells: 432
    Number of basis function: 1288
    Number of Cartesian functions: 1492
    Spherical Harmonics?: true
    Max angular momentum: 3

  Minimum eigenvalue in the overlap matrix is 1.1848517709E-05.
  Using Symmetric Orthogonalization.

  SCF Guess: Superposition of Atomic Densities via on-the-fly atomic UHF.

  ==> Iterations <==

                           Total Energy        Delta E     RMS |[F,P]|

   @DF-RHF iter SAD:  -411.89644212154207   -4.11896e+02   0.00000e+00 
   @DF-RHF iter   1:  -412.28282415301067   -3.86382e-01   2.06805e-03 DIIS
   @DF-RHF iter   2:  -412.44550187793538   -1.62678e-01   1.34586e-03 DIIS
   @DF-RHF iter   3:  -412.52291678881386   -7.74149e-02   2.52494e-04 DIIS
   @DF-RHF iter   4:  -412.52719027974103   -4.27349e-03   9.91954e-05 DIIS
   @DF-RHF iter   5:  -412.52802484097691   -8.34561e-04   2.02530e-05 DIIS
   @DF-RHF iter   6:  -412.52812158733798   -9.67464e-05   1.02535e-05 DIIS
   @DF-RHF iter   7:  -412.52813854500243   -1.69577e-05   3.91322e-06 DIIS
   @DF-RHF iter   8:  -412.52814134511374   -2.80011e-06   1.33959e-06 DIIS
   @DF-RHF iter   9:  -412.52814154752116   -2.02407e-07   5.58197e-07 DIIS
   @DF-RHF iter  10:  -412.52814159946359   -5.19424e-08   1.82623e-07 DIIS
   @DF-RHF iter  11:  -412.52814160536070   -5.89711e-09   6.24171e-08 DIIS
   @DF-RHF iter  12:  -412.52814160584626   -4.85556e-10   1.80746e-08 DIIS
   @DF-RHF iter  13:  -412.52814160590174   -5.54792e-11   6.37871e-09 DIIS
  Energy and wave function converged.


  ==> Post-Iterations <==

    Orbital Energies [Eh]
    ---------------------

    Doubly Occupied:                                                      

       1A    -20.554741     2A    -20.552182     3A    -15.656893  
       4A    -15.635011     5A    -11.426030     6A    -11.390856  
       7A    -11.350268     8A    -11.264997     9A     -1.436606  
      10A     -1.403013    11A     -1.316991    12A     -1.250507  
      13A     -1.093913    14A     -0.940498    15A     -0.904190  
      16A     -0.809952    17A     -0.769859    18A     -0.717047  
      19A     -0.679463    20A     -0.670612    21A     -0.650186  
      22A     -0.617280    23A     -0.603161    24A     -0.571857  
      25A     -0.523403    26A     -0.480624    27A     -0.448782  
      28A     -0.434552    29A     -0.370523  

    Virtual:                                                              

      30A      0.013581    31A      0.028710    32A      0.043058  
      33A      0.046980    34A      0.052842    35A      0.055024  
      36A      0.062000    37A      0.069126    38A      0.079469  
      39A      0.081895    40A      0.085648    41A      0.101403  
      42A      0.106522    43A      0.109220    44A      0.113514  
      45A      0.119643    46A      0.128370    47A      0.135946  
      48A      0.136886    49A      0.140188    50A      0.143083  
      51A      0.145416    52A      0.153062    53A      0.154122  
      54A      0.158026    55A      0.158445    56A      0.170023  
      57A      0.173406    58A      0.175460    59A      0.186080  
      60A      0.205271    61A      0.205980    62A      0.211626  
      63A      0.219530    64A      0.223583    65A      0.232438  
      66A      0.239509    67A      0.243783    68A      0.250374  
      69A      0.257379    70A      0.259380    71A      0.266307  
      72A      0.276342    73A      0.277738    74A      0.286620  
      75A      0.295464    76A      0.303315    77A      0.311190  
      78A      0.317128    79A      0.318374    80A      0.333513  
      81A      0.337421    82A      0.341743    83A      0.343988  
      84A      0.350927    85A      0.356834    86A      0.356975  
      87A      0.365777    88A      0.370060    89A      0.374638  
      90A      0.378350    91A      0.385620    92A      0.391385  
      93A      0.407796    94A      0.409528    95A      0.419900  
      96A      0.425142    97A      0.433183    98A      0.438294  
      99A      0.447053   100A      0.455049   101A      0.457414  
     102A      0.471047   103A      0.471472   104A      0.485600  
     105A      0.488820   106A      0.498982   107A      0.502964  
     108A      0.511411   109A      0.520574   110A      0.522946  
     111A      0.533325   112A      0.537141   113A      0.541206  
     114A      0.549951   115A      0.569041   116A      0.574288  
     117A      0.581810   118A      0.589751   119A      0.591900  
     120A      0.599799   121A      0.602307   122A      0.625815  
     123A      0.628939   124A      0.632391   125A      0.639486  
     126A      0.644420   127A      0.648464   128A      0.655038  
     129A      0.659985   130A      0.668786   131A      0.681841  
     132A      0.684719   133A      0.688066   134A      0.697417  
     135A      0.708382   136A      0.718739   137A      0.723172  
     138A      0.729244   139A      0.748711   140A      0.756745  
     141A      0.769412   142A      0.780278   143A      0.781909  
     144A      0.789345   145A      0.794276   146A      0.794634  
     147A      0.801888   148A      0.813674   149A      0.820342  
     150A      0.830807   151A      0.835863   152A      0.840455  
     153A      0.856379   154A      0.858632   155A      0.865370  
     156A      0.867062   157A      0.884349   158A      0.892736  
     159A      0.894995   160A      0.919244   161A      0.920665  
     162A      0.940112   163A      0.952491   164A      0.959710  
     165A      0.972042   166A      0.977013   167A      0.977271  
     168A      0.991140   169A      1.004772   170A      1.005936  
     171A      1.031559   172A      1.034819   173A      1.047068  
     174A      1.055013   175A      1.065004   176A      1.078624  
     177A      1.086913   178A      1.097010   179A      1.112717  
     180A      1.122685   181A      1.141618   182A      1.160603  
     183A      1.178309   184A      1.182084   185A      1.189917  
     186A      1.220806   187A      1.233769   188A      1.238022  
     189A      1.250544   190A      1.276912   191A      1.277064  
     192A      1.291557   193A      1.311191   194A      1.321292  
     195A      1.351172   196A      1.355805   197A      1.376754  
     198A      1.390071   199A      1.390378   200A      1.399372  
     201A      1.440796   202A      1.453642   203A      1.467099  
     204A      1.471511   205A      1.487633   206A      1.509898  
     207A      1.517125   208A      1.522807   209A      1.540983  
     210A      1.547472   211A      1.562672   212A      1.568600  
     213A      1.582744   214A      1.589213   215A      1.597042  
     216A      1.641435   217A      1.646921   218A      1.657564  
     219A      1.662280   220A      1.681848   221A      1.702309  
     222A      1.742321   223A      1.754487   224A      1.761204  
     225A      1.809736   226A      1.816594   227A      1.816876  
     228A      1.829787   229A      1.867599   230A      1.878122  
     231A      1.900960   232A      1.904066   233A      1.928794  
     234A      1.934340   235A      1.975074   236A      1.990117  
     237A      1.995337   238A      2.000107   239A      2.012372  
     240A      2.013305   241A      2.073158   242A      2.101053  
     243A      2.103011   244A      2.111949   245A      2.156518  
     246A      2.215335   247A      2.221272   248A      2.237011  
     249A      2.239020   250A      2.247229   251A      2.254036  
     252A      2.285316   253A      2.313999   254A      2.317862  
     255A      2.328814   256A      2.332353   257A      2.347054  
     258A      2.356501   259A      2.362852   260A      2.383235  
     261A      2.411633   262A      2.427738   263A      2.445647  
     264A      2.446650   265A      2.481227   266A      2.495841  
     267A      2.506450   268A      2.524077   269A      2.538624  
     270A      2.566328   271A      2.597098   272A      2.629845  
     273A      2.644704   274A      2.673054   275A      2.726891  
     276A      2.729289   277A      2.747659   278A      2.755447  
     279A      2.770573   280A      2.783937   281A      2.788941  
     282A      2.801860   283A      2.829661   284A      2.840597  
     285A      2.865928   286A      2.876879   287A      2.887953  
     288A      2.911816   289A      2.991566   290A      3.007367  
     291A      3.015948   292A      3.034726   293A      3.103692  
     294A      3.123287   295A      3.157791   296A      3.191347  
     297A      3.256243   298A      3.315713   299A      3.333079  
     300A      3.338788   301A      3.373349   302A      3.409355  
     303A      3.410957   304A      3.480492   305A      3.512189  
     306A      3.525666   307A      3.626526   308A      3.712870  
     309A      3.743541   310A      3.759688   311A      3.766601  
     312A      3.801985   313A      3.820302   314A      3.820915  
     315A      3.837567   316A      3.871246   317A      4.022486  
     318A      4.040419   319A      4.053024   320A      4.109551  
     321A      4.173501   322A      4.208719   323A      4.324893  
     324A      4.529775   325A      4.674537   326A      4.712557  
     327A      4.924774   328A      4.975991   329A      4.984453  
     330A      5.011833   331A      5.047951   332A      5.071542  
     333A      5.138102   334A      5.152684   335A      5.261458  
     336A      5.636215   337A      5.689408   338A      5.785572  
     339A      5.935290   340A      6.052078   341A      6.267145  
     342A      6.569818   343A      6.867272   344A      7.119357  
     345A     18.356447   346A     18.967421   347A     33.510215  
     348A     33.576323  

    Final Occupation by Irrep:
              A 
    DOCC [    29 ]

  @DF-RHF Final Energy:  -412.52814160590174

   => Energetics <=

    Nuclear Repulsion Energy =            357.3029065010414342
    One-Electron Energy =               -1270.6141045182912421
    Two-Electron Energy =                 500.7830564113480705
    Total Energy =                       -412.5281416059017374

Computation Completed


Properties will be evaluated at   0.000000,   0.000000,   0.000000 [a0]

Properties computed using the SCF density matrix

  Nuclear Dipole Moment: [e a0]
     X:   227.7821      Y:    28.7335      Z:     3.2715

  Electronic Dipole Moment: [e a0]
     X:  -228.9918      Y:   -27.1073      Z:    -2.9611

  Dipole Moment: [e a0]
     X:    -1.2097      Y:     1.6262      Z:     0.3104     Total:     2.0504

  Dipole Moment: [D]
     X:    -3.0747      Y:     4.1334      Z:     0.7890     Total:     5.2117


*** tstop() called on node89.bme.utexas.edu at Thu Apr 23 11:27:51 2020
Module time:
	user time   =      58.17 seconds =       0.97 minutes
	system time =       1.48 seconds =       0.02 minutes
	total time  =          9 seconds =       0.15 minutes
Total time:
	user time   =     209.04 seconds =       3.48 minutes
	system time =       4.90 seconds =       0.08 minutes
	total time  =         31 seconds =       0.52 minutes
  Constructing Basis Sets for SAPT...

   => Loading Basis Set <=

    Name: (AUG-CC-PVDZ AUX)
    Role: RIFIT
    Keyword: DF_BASIS_SAPT
    atoms 1, 5, 11, 13, 15, 19   entry C          line   112 file /home/liuchw/anaconda3/envs/psi4env/share/psi4/basis/aug-cc-pvdz-ri.gbs 
    atoms 2-3, 12, 20            entry O          line   204 file /home/liuchw/anaconda3/envs/psi4env/share/psi4/basis/aug-cc-pvdz-ri.gbs 
    atoms 4, 6-8, 10, 14, 16, 18 entry H          line    30 file /home/liuchw/anaconda3/envs/psi4env/share/psi4/basis/aug-cc-pvdz-ri.gbs 
    atoms 9, 17                  entry N          line   158 file /home/liuchw/anaconda3/envs/psi4env/share/psi4/basis/aug-cc-pvdz-ri.gbs 


  //>>>>>>>>>>>>>>>>>>>>>>>>>>>>>>>>>>>//
  //               SAPT2+              //
  //<<<<<<<<<<<<<<<<<<<<<<<<<<<<<<<<<<<//


*** tstart() called on node89.bme.utexas.edu
*** at Thu Apr 23 11:27:51 2020

        SAPT2+  
    Ed Hohenstein
     6 June 2009

      Orbital Information
  --------------------------
    NSO        =       348
    NMO        =       348
    NRI        =      1048
    NOCC A     =        16
    NOCC B     =        29
    FOCC A     =         4
    FOCC B     =         8
    NVIR A     =       332
    NVIR B     =       319

    Estimated memory usage: 3148.9 MB

    Natural Orbital Cutoff:   1.000E-06
    Disp(T3) Truncation:            Yes
    CCD (vv|vv) Truncation:         Yes
    MBPT T2 Truncation:             Yes

    Monomer A: 221 virtual orbitals dropped
    Monomer B: 134 virtual orbitals dropped

    Elst10,r            =    -0.012287512277 [Eh]
    Exch10 (S^2)        =     0.001302110324 [Eh]
    Exch10              =     0.001303112595 [Eh]
    Ind20,r (A<-B)      =    -0.000848016611 [Eh]
    Ind20,r (B<-A)      =    -0.000734428744 [Eh]
    Ind20,r             =    -0.001582445355 [Eh]
    Exch-Ind20,r (A<-B) =     0.000149894311 [Eh]
    Exch-Ind20,r (B<-A) =     0.000135954003 [Eh]
    Exch-Ind20,r        =     0.000285848313 [Eh]
    Disp20              =    -0.002189138414 [Eh]
    Disp20 (NO)         =    -0.002055465743 [Eh]
    Exch-Disp20         =     0.000113927083 [Eh]
    Elst12,r            =     0.001708511133 [Eh]
    Exch11              =    -0.000024468103 [Eh]
    Exch12              =     0.000550788190 [Eh]
    Ind22               =    -0.000160127679 [Eh]
    Disp21              =     0.000184841630 [Eh]
    Disp22 (SDQ)        =    -0.000142535632 [Eh]

    (i =   1 of  21)          8 seconds
    (i =   2 of  21)         16 seconds
    (i =   3 of  21)         24 seconds
    (i =   4 of  21)         32 seconds
    (i =   5 of  21)         40 seconds
    (i =   6 of  21)         47 seconds
    (i =   7 of  21)         55 seconds
    (i =   8 of  21)         63 seconds
    (i =   9 of  21)         71 seconds
    (i =  10 of  21)         79 seconds
    (i =  11 of  21)         87 seconds
    (i =  12 of  21)         95 seconds
    (i =  13 of  21)        103 seconds
    (i =  14 of  21)        111 seconds
    (i =  15 of  21)        119 seconds
    (i =  16 of  21)        127 seconds
    (i =  17 of  21)        135 seconds
    (i =  18 of  21)        143 seconds
    (i =  19 of  21)        151 seconds
    (i =  20 of  21)        159 seconds
    (i =  21 of  21)        167 seconds

    Disp220 (T)         =    -0.000224719106 [Eh]

    (i =   1 of  12)         40 seconds
    (i =   2 of  12)         80 seconds
    (i =   3 of  12)        120 seconds
    (i =   4 of  12)        160 seconds
    (i =   5 of  12)        199 seconds
    (i =   6 of  12)        239 seconds
    (i =   7 of  12)        279 seconds
    (i =   8 of  12)        319 seconds
    (i =   9 of  12)        359 seconds
    (i =  10 of  12)        399 seconds
    (i =  11 of  12)        439 seconds
    (i =  12 of  12)        478 seconds

    Disp202 (T)         =    -0.000226083013 [Eh]

    Disp22 (T)          =    -0.000450802119 [Eh]

    Est. Disp220 (T)    =    -0.000239333216 [Eh]
    Est. Disp202 (T)    =    -0.000240785822 [Eh]

    Est. Disp22 (T)     =    -0.000480119039 [Eh]

    SAPT Results 
  --------------------------------------------------------------------------------------------------------
    Electrostatics                -10.57900114 [mEh]      -6.63842344 [kcal/mol]     -27.77516368 [kJ/mol]
      Elst10,r                    -12.28751228 [mEh]      -7.71053036 [kcal/mol]     -32.26085904 [kJ/mol]
      Elst12,r                      1.70851113 [mEh]       1.07210692 [kcal/mol]       4.48569536 [kJ/mol]

    Exchange                        1.82943268 [mEh]       1.14798634 [kcal/mol]       4.80317485 [kJ/mol]
      Exch10                        1.30311260 [mEh]       0.81771550 [kcal/mol]       3.42132165 [kJ/mol]
      Exch10(S^2)                   1.30211032 [mEh]       0.81708656 [kcal/mol]       3.41869019 [kJ/mol]
      Exch11(S^2)                  -0.02446810 [mEh]      -0.01535397 [kcal/mol]      -0.06424100 [kJ/mol]
      Exch12(S^2)                   0.55078819 [mEh]       0.34562481 [kcal/mol]       1.44609419 [kJ/mol]

    Induction                      -1.71156139 [mEh]      -1.07402099 [kcal/mol]      -4.49370382 [kJ/mol]
      Ind20,r                      -1.58244535 [mEh]      -0.99299945 [kcal/mol]      -4.15470971 [kJ/mol]
      Ind22                        -0.16012768 [mEh]      -0.10048164 [kcal/mol]      -0.42041516 [kJ/mol]
      Exch-Ind20,r                  0.28584831 [mEh]       0.17937252 [kcal/mol]       0.75049464 [kJ/mol]
      Exch-Ind22                    0.02892500 [mEh]       0.01815071 [kcal/mol]       0.07594257 [kJ/mol]
      delta HF,r (2)               -0.28376167 [mEh]      -0.17806314 [kcal/mol]      -0.74501616 [kJ/mol]

    Dispersion                     -2.51302437 [mEh]      -1.57694660 [kcal/mol]      -6.59794458 [kJ/mol]
      Disp20                       -2.18913841 [mEh]      -1.37370509 [kcal/mol]      -5.74758211 [kJ/mol]
      Disp21                        0.18484163 [mEh]       0.11598987 [kcal/mol]       0.48530163 [kJ/mol]
      Disp22 (SDQ)                 -0.14253563 [mEh]      -0.08944246 [kcal/mol]      -0.37422725 [kJ/mol]
      Disp22 (T)                   -0.45080212 [mEh]      -0.28288260 [kcal/mol]      -1.18358080 [kJ/mol]
      Est. Disp22 (T)              -0.48011904 [mEh]      -0.30127925 [kcal/mol]      -1.26055236 [kJ/mol]
      Exch-Disp20                   0.11392708 [mEh]       0.07149032 [kcal/mol]       0.29911552 [kJ/mol]

  Total HF                        -12.56475839 [mEh]      -7.88450493 [kcal/mol]     -32.98876861 [kJ/mol]
  Total SAPT0                     -14.63996972 [mEh]      -9.18671970 [kcal/mol]     -38.43723521 [kJ/mol]
  Total SAPT2                     -12.53634119 [mEh]      -7.86667286 [kcal/mol]     -32.91415925 [kJ/mol]
  Total SAPT2+                    -12.97415423 [mEh]      -8.14140469 [kcal/mol]     -34.06363723 [kJ/mol]

  Special recipe for scaled SAPT0 (see Manual):
    Electrostatics sSAPT0         -12.28751228 [mEh]      -7.71053036 [kcal/mol]     -32.26085904 [kJ/mol]
    Exchange sSAPT0                 1.30311260 [mEh]       0.81771550 [kcal/mol]       3.42132165 [kJ/mol]
    Induction sSAPT0               -1.57969813 [mEh]      -0.99127554 [kcal/mol]      -4.14749686 [kJ/mol]
    Dispersion sSAPT0              -2.07494805 [mEh]      -1.30204956 [kcal/mol]      -5.44777535 [kJ/mol]
  Total sSAPT0                    -14.63904586 [mEh]      -9.18613996 [kcal/mol]     -38.43480960 [kJ/mol]
  --------------------------------------------------------------------------------------------------------

*** tstop() called on node89.bme.utexas.edu at Thu Apr 23 11:42:56 2020
Module time:
	user time   =    6518.75 seconds =     108.65 minutes
	system time =      96.32 seconds =       1.61 minutes
	total time  =        905 seconds =      15.08 minutes
Total time:
	user time   =    6729.02 seconds =     112.15 minutes
	system time =     101.27 seconds =       1.69 minutes
	total time  =        936 seconds =      15.60 minutes

    Psi4 stopped on: Thursday, 23 April 2020 11:42AM
    Psi4 wall time for execution: 0:15:36.63

*** Psi4 exiting successfully. Buy a developer a beer!
