
    -----------------------------------------------------------------------
          Psi4: An Open-Source Ab Initio Electronic Structure Package
                               Psi4 1.4a2.dev224 

                         Git: Rev {master} e453b16 


    R. M. Parrish, L. A. Burns, D. G. A. Smith, A. C. Simmonett,
    A. E. DePrince III, E. G. Hohenstein, U. Bozkaya, A. Yu. Sokolov,
    R. Di Remigio, R. M. Richard, J. F. Gonthier, A. M. James,
    H. R. McAlexander, A. Kumar, M. Saitow, X. Wang, B. P. Pritchard,
    P. Verma, H. F. Schaefer III, K. Patkowski, R. A. King, E. F. Valeev,
    F. A. Evangelista, J. M. Turney, T. D. Crawford, and C. D. Sherrill,
    J. Chem. Theory Comput. 13(7) pp 3185--3197 (2017).
    (doi: 10.1021/acs.jctc.7b00174)


                         Additional Contributions by
    P. Kraus, H. Kruse, M. H. Lechner, M. C. Schieber, R. A. Shaw,
    A. Alenaizan, R. Galvelis, Z. L. Glick, S. Lehtola, and J. P. Misiewicz

    -----------------------------------------------------------------------


    Psi4 started on: Thursday, 23 April 2020 05:27PM

    Process ID: 122089
    Host:       node58.bme.utexas.edu
    PSIDATADIR: /home/liuchw/anaconda3/envs/psi4env/share/psi4
    Memory:     500.0 MiB
    Threads:    8
    
  ==> Input File <==

--------------------------------------------------------------------------
#Generated by lconvert.py for sapt job

memory 20 GB

molecule  {
0 1
  C      -1.232730    1.211640   -0.141620
  O      -0.571280    2.242020    0.025620
  N      -0.670580    0.003890   -0.314280
  H       0.343850   -0.090560   -0.308330
  H      -1.244210   -0.806320   -0.446680
  C      -2.738250    1.266760   -0.155890
  H      -3.077970    1.646610    0.804500
  H      -3.202120    0.302860   -0.346210
  H      -3.049990    1.975490   -0.918600
--
0 1
  N       5.763100    1.112640   -0.111330
  H       6.253130    0.236680   -0.229260
  C       6.566720    2.255480    0.039160
  O       7.782290    2.159860    0.023970
  C       5.794130    3.470800    0.202300
  H       6.315900    4.403990    0.325330
  C       4.444970    3.409120    0.196620
  H       3.824570    4.285480    0.314300
  N       3.759890    2.236840    0.042060
  H       2.727100    2.227780    0.041220
  C       4.390780    1.032370   -0.120200
  O       3.793590   -0.031540   -0.262010
units angstrom
no_reorient
symmetry c1
}

set {
scf_type DF
basis aug-cc-pvdz
freeze_core True
guess SAD
}
energy('sapt2+')
--------------------------------------------------------------------------

  Memory set to  18.626 GiB by Python driver.

Scratch directory: /scratch/liuchw/

  //>>>>>>>>>>>>>>>>>>>>>>>>>>>>>>>>>>>//
  //              Dimer HF             //
  //<<<<<<<<<<<<<<<<<<<<<<<<<<<<<<<<<<<//


*** tstart() called on node58.bme.utexas.edu
*** at Thu Apr 23 17:27:08 2020

   => Loading Basis Set <=

    Name: AUG-CC-PVDZ
    Role: ORBITAL
    Keyword: BASIS
    atoms 1, 6, 12, 14, 16, 20     entry C          line   182 file /home/liuchw/anaconda3/envs/psi4env/share/psi4/basis/aug-cc-pvdz.gbs 
    atoms 2, 13, 21                entry O          line   254 file /home/liuchw/anaconda3/envs/psi4env/share/psi4/basis/aug-cc-pvdz.gbs 
    atoms 3, 10, 18                entry N          line   218 file /home/liuchw/anaconda3/envs/psi4env/share/psi4/basis/aug-cc-pvdz.gbs 
    atoms 4-5, 7-9, 11, 15, 17, 19 entry H          line    40 file /home/liuchw/anaconda3/envs/psi4env/share/psi4/basis/aug-cc-pvdz.gbs 


         ---------------------------------------------------------
                                   SCF
               by Justin Turney, Rob Parrish, Andy Simmonett
                          and Daniel G. A. Smith
                              RHF Reference
                        8 Threads,  19073 MiB Core
         ---------------------------------------------------------

  ==> Geometry <==

    Molecular point group: c1
    Full point group: C1

    Geometry (in Angstrom), charge = 0, multiplicity = 1:

       Center              X                  Y                   Z               Mass       
    ------------   -----------------  -----------------  -----------------  -----------------
         C           -4.247067775607    -0.442168406275    -0.087290838059    12.000000000000
         O           -3.585617775607     0.588211593725     0.079949161941    15.994914619570
         N           -3.684917775607    -1.649918406275    -0.259950838059    14.003074004430
         H           -2.670487775607    -1.744368406275    -0.254000838059     1.007825032230
         H           -4.258547775607    -2.460128406275    -0.392350838059     1.007825032230
         C           -5.752587775607    -0.387048406275    -0.101560838059    12.000000000000
         H           -6.092307775607    -0.007198406275     0.858829161941     1.007825032230
         H           -6.216457775607    -1.350948406275    -0.291880838059     1.007825032230
         H           -6.064327775607     0.321681593725    -0.864270838059     1.007825032230
         N            2.748762224393    -0.541168406275    -0.057000838059    14.003074004430
         H            3.238792224393    -1.417128406275    -0.174930838059     1.007825032230
         C            3.552382224393     0.601671593725     0.093489161941    12.000000000000
         O            4.767952224393     0.506051593725     0.078299161941    15.994914619570
         C            2.779792224393     1.816991593725     0.256629161941    12.000000000000
         H            3.301562224393     2.750181593725     0.379659161941     1.007825032230
         C            1.430632224393     1.755311593725     0.250949161941    12.000000000000
         H            0.810232224393     2.631671593725     0.368629161941     1.007825032230
         N            0.745552224393     0.583031593725     0.096389161941    14.003074004430
         H           -0.287237775607     0.573971593725     0.095549161941     1.007825032230
         C            1.376442224393    -0.621438406275    -0.065870838059    12.000000000000
         O            0.779252224393    -1.685348406275    -0.207680838059    15.994914619570

  Running in c1 symmetry.

  Rotational constants: A =      0.08752  B =      0.00850  C =      0.00776 [cm^-1]
  Rotational constants: A =   2623.85838  B =    254.75949  C =    232.55097 [MHz]
  Nuclear repulsion =  631.454980732359559

  Charge       = 0
  Multiplicity = 1
  Electrons    = 90
  Nalpha       = 45
  Nbeta        = 45

  ==> Algorithm <==

  SCF Algorithm Type is DF.
  DIIS enabled.
  MOM disabled.
  Fractional occupation disabled.
  Guess Type is SAD.
  Energy threshold   = 1.00e-08
  Density threshold  = 1.00e-08
  Integral threshold = 0.00e+00

  ==> Primary Basis <==

  Basis Set: AUG-CC-PVDZ
    Blend: AUG-CC-PVDZ
    Number of shells: 153
    Number of basis function: 357
    Number of Cartesian functions: 381
    Spherical Harmonics?: true
    Max angular momentum: 2

   => Loading Basis Set <=

    Name: (AUG-CC-PVDZ AUX)
    Role: JKFIT
    Keyword: DF_BASIS_SCF
    atoms 1, 6, 12, 14, 16, 20     entry C          line   154 file /home/liuchw/anaconda3/envs/psi4env/share/psi4/basis/aug-cc-pvdz-jkfit.gbs 
    atoms 2, 13, 21                entry O          line   270 file /home/liuchw/anaconda3/envs/psi4env/share/psi4/basis/aug-cc-pvdz-jkfit.gbs 
    atoms 3, 10, 18                entry N          line   212 file /home/liuchw/anaconda3/envs/psi4env/share/psi4/basis/aug-cc-pvdz-jkfit.gbs 
    atoms 4-5, 7-9, 11, 15, 17, 19 entry H          line    70 file /home/liuchw/anaconda3/envs/psi4env/share/psi4/basis/aug-cc-pvdz-jkfit.gbs 

  ==> Pre-Iterations <==

   -------------------------------------------------------
    Irrep   Nso     Nmo     Nalpha   Nbeta   Ndocc  Nsocc
   -------------------------------------------------------
     A        357     357       0       0       0       0
   -------------------------------------------------------
    Total     357     357      45      45      45       0
   -------------------------------------------------------

  ==> Integral Setup <==

  ==> DiskDFJK: Density-Fitted J/K Matrices <==

    J tasked:                  Yes
    K tasked:                  Yes
    wK tasked:                  No
    OpenMP threads:              8
    Integrals threads:           8
    Memory [MiB]:            14305
    Algorithm:                Core
    Integral Cache:           SAVE
    Schwarz Cutoff:          1E-12
    Fitting Condition:       1E-10

   => Auxiliary Basis Set <=

  Basis Set: (AUG-CC-PVDZ AUX)
    Blend: AUG-CC-PVDZ-JKFIT
    Number of shells: 444
    Number of basis function: 1320
    Number of Cartesian functions: 1527
    Spherical Harmonics?: true
    Max angular momentum: 3

  Minimum eigenvalue in the overlap matrix is 1.2875654092E-05.
  Using Symmetric Orthogonalization.

  SCF Guess: Superposition of Atomic Densities via on-the-fly atomic UHF.

  ==> Iterations <==

                           Total Energy        Delta E     RMS |[F,P]|

   @DF-RHF iter SAD:  -619.10284257910166   -6.19103e+02   0.00000e+00 
   @DF-RHF iter   1:  -620.13172504011698   -1.02888e+00   2.59183e-03 DIIS
   @DF-RHF iter   2:  -620.42534894878452   -2.93624e-01   1.58110e-03 DIIS
   @DF-RHF iter   3:  -620.53892262295244   -1.13574e-01   3.09869e-04 DIIS
   @DF-RHF iter   4:  -620.54559677675854   -6.67415e-03   1.22682e-04 DIIS
   @DF-RHF iter   5:  -620.54691278774646   -1.31601e-03   2.45201e-05 DIIS
   @DF-RHF iter   6:  -620.54702587673137   -1.13089e-04   1.39418e-05 DIIS
   @DF-RHF iter   7:  -620.54705376088214   -2.78842e-05   5.29592e-06 DIIS
   @DF-RHF iter   8:  -620.54705879543428   -5.03455e-06   2.13737e-06 DIIS
   @DF-RHF iter   9:  -620.54705944575403   -6.50320e-07   6.82818e-07 DIIS
   @DF-RHF iter  10:  -620.54705953763209   -9.18781e-08   2.20450e-07 DIIS
   @DF-RHF iter  11:  -620.54705954661028   -8.97819e-09   8.64190e-08 DIIS
   @DF-RHF iter  12:  -620.54705954765132   -1.04103e-09   2.73917e-08 DIIS
   @DF-RHF iter  13:  -620.54705954777239   -1.21076e-10   1.11849e-08 DIIS
   @DF-RHF iter  14:  -620.54705954779445   -2.20552e-11   4.24494e-09 DIIS
  Energy and wave function converged.


  ==> Post-Iterations <==

    Orbital Energies [Eh]
    ---------------------

    Doubly Occupied:                                                      

       1A    -20.551532     2A    -20.548756     3A    -20.532170  
       4A    -15.649299     5A    -15.630907     6A    -15.606131  
       7A    -11.423795     8A    -11.385134     9A    -11.370322  
      10A    -11.342198    11A    -11.257161    12A    -11.251131  
      13A     -1.433492    14A     -1.397892    15A     -1.383020  
      16A     -1.311996    17A     -1.244694    18A     -1.228363  
      19A     -1.086260    20A     -1.014861    21A     -0.933613  
      22A     -0.898437    23A     -0.813223    24A     -0.801367  
      25A     -0.763710    26A     -0.737735    27A     -0.709657  
      28A     -0.674234    29A     -0.673244    30A     -0.665238  
      31A     -0.648052    32A     -0.623044    33A     -0.610429  
      34A     -0.597207    35A     -0.589116    36A     -0.570608  
      37A     -0.566597    38A     -0.531049    39A     -0.518416  
      40A     -0.478755    41A     -0.444399    42A     -0.431675  
      43A     -0.431650    44A     -0.421468    45A     -0.363530  

    Virtual:                                                              

      46A      0.026216    47A      0.033155    48A      0.044269  
      49A      0.051253    50A      0.053587    51A      0.055655  
      52A      0.063389    53A      0.075121    54A      0.075755  
      55A      0.087038    56A      0.090129    57A      0.103746  
      58A      0.111520    59A      0.116439    60A      0.118711  
      61A      0.124952    62A      0.125379    63A      0.139961  
      64A      0.144966    65A      0.148139    66A      0.148773  
      67A      0.151432    68A      0.156989    69A      0.157907  
      70A      0.159811    71A      0.166773    72A      0.168175  
      73A      0.172386    74A      0.175343    75A      0.178570  
      76A      0.184065    77A      0.185417    78A      0.194938  
      79A      0.204918    80A      0.206508    81A      0.216066  
      82A      0.218303    83A      0.222231    84A      0.236298  
      85A      0.252924    86A      0.257370    87A      0.260353  
      88A      0.262852    89A      0.265925    90A      0.283069  
      91A      0.292251    92A      0.302680    93A      0.307420  
      94A      0.310560    95A      0.316080    96A      0.318076  
      97A      0.325376    98A      0.328399    99A      0.332953  
     100A      0.347017   101A      0.348755   102A      0.352266  
     103A      0.357837   104A      0.365192   105A      0.365759  
     106A      0.372112   107A      0.373800   108A      0.378877  
     109A      0.382753   110A      0.389627   111A      0.395353  
     112A      0.402771   113A      0.410629   114A      0.416449  
     115A      0.426610   116A      0.427136   117A      0.437887  
     118A      0.444577   119A      0.445452   120A      0.453155  
     121A      0.455312   122A      0.460853   123A      0.468247  
     124A      0.469256   125A      0.481990   126A      0.488460  
     127A      0.495980   128A      0.501320   129A      0.511968  
     130A      0.516767   131A      0.524726   132A      0.536619  
     133A      0.538352   134A      0.545104   135A      0.556414  
     136A      0.559266   137A      0.569198   138A      0.583870  
     139A      0.591101   140A      0.594631   141A      0.597778  
     142A      0.600987   143A      0.612249   144A      0.624041  
     145A      0.631648   146A      0.632128   147A      0.638647  
     148A      0.643951   149A      0.646953   150A      0.654626  
     151A      0.661916   152A      0.665622   153A      0.670338  
     154A      0.689229   155A      0.693751   156A      0.705080  
     157A      0.709736   158A      0.712944   159A      0.719844  
     160A      0.720459   161A      0.725815   162A      0.743588  
     163A      0.756934   164A      0.766306   165A      0.776725  
     166A      0.784101   167A      0.790815   168A      0.791922  
     169A      0.792423   170A      0.805179   171A      0.819032  
     172A      0.830741   173A      0.836453   174A      0.845798  
     175A      0.861209   176A      0.861646   177A      0.870208  
     178A      0.871847   179A      0.873365   180A      0.888833  
     181A      0.896962   182A      0.904397   183A      0.922751  
     184A      0.929031   185A      0.940785   186A      0.944479  
     187A      0.950516   188A      0.958934   189A      0.983290  
     190A      0.985447   191A      0.991877   192A      0.999283  
     193A      1.004567   194A      1.024700   195A      1.029114  
     196A      1.054565   197A      1.065842   198A      1.072442  
     199A      1.079993   200A      1.088375   201A      1.099108  
     202A      1.105578   203A      1.115066   204A      1.119999  
     205A      1.127348   206A      1.134312   207A      1.152249  
     208A      1.174036   209A      1.176042   210A      1.209842  
     211A      1.221004   212A      1.241851   213A      1.253026  
     214A      1.255661   215A      1.280520   216A      1.285188  
     217A      1.305588   218A      1.307825   219A      1.310972  
     220A      1.350727   221A      1.355611   222A      1.371530  
     223A      1.382139   224A      1.397168   225A      1.404276  
     226A      1.409587   227A      1.460579   228A      1.482251  
     229A      1.485347   230A      1.498916   231A      1.517949  
     232A      1.531190   233A      1.539447   234A      1.544245  
     235A      1.548288   236A      1.560378   237A      1.569579  
     238A      1.593541   239A      1.614595   240A      1.634734  
     241A      1.646150   242A      1.650754   243A      1.661692  
     244A      1.685319   245A      1.719078   246A      1.722057  
     247A      1.744385   248A      1.760537   249A      1.792659  
     250A      1.809563   251A      1.820080   252A      1.830671  
     253A      1.832832   254A      1.866507   255A      1.874799  
     256A      1.891678   257A      1.904627   258A      1.909341  
     259A      1.923391   260A      1.938632   261A      1.956113  
     262A      1.974725   263A      1.983698   264A      2.000743  
     265A      2.001824   266A      2.006305   267A      2.012001  
     268A      2.017465   269A      2.032054   270A      2.050044  
     271A      2.068864   272A      2.109030   273A      2.109543  
     274A      2.122175   275A      2.146766   276A      2.162458  
     277A      2.184944   278A      2.212776   279A      2.222629  
     280A      2.236637   281A      2.243344   282A      2.257207  
     283A      2.259603   284A      2.278035   285A      2.290744  
     286A      2.312093   287A      2.325405   288A      2.342857  
     289A      2.351672   290A      2.371032   291A      2.376417  
     292A      2.379501   293A      2.392108   294A      2.424346  
     295A      2.431548   296A      2.449624   297A      2.479549  
     298A      2.497726   299A      2.499530   300A      2.532267  
     301A      2.538986   302A      2.567119   303A      2.588695  
     304A      2.626626   305A      2.630576   306A      2.642696  
     307A      2.706978   308A      2.727814   309A      2.738257  
     310A      2.762492   311A      2.770389   312A      2.784851  
     313A      2.785892   314A      2.797045   315A      2.824612  
     316A      2.831968   317A      2.858705   318A      2.864492  
     319A      2.874262   320A      2.888156   321A      2.895797  
     322A      2.918624   323A      2.983280   324A      3.007359  
     325A      3.026132   326A      3.063446   327A      3.104190  
     328A      3.110423   329A      3.154731   330A      3.169525  
     331A      3.189656   332A      3.248109   333A      3.334586  
     334A      3.374464   335A      3.428097   336A      3.479147  
     337A      3.525654   338A      3.604101   339A      3.622577  
     340A      3.674093   341A      3.732364   342A      3.764080  
     343A      3.766409   344A      3.770569   345A      3.803312  
     346A      3.813835   347A      3.823060   348A      3.824275  
     349A      3.837831   350A      3.901011   351A      4.034072  
     352A      4.036965   353A      4.053368   354A      4.072091  
     355A      4.162412   356A      4.172332   357A      4.325096  

    Final Occupation by Irrep:
              A 
    DOCC [    45 ]

  @DF-RHF Final Energy:  -620.54705954779445

   => Energetics <=

    Nuclear Repulsion Energy =            631.4549807323595587
    One-Electron Energy =               -2099.7129482974760322
    Two-Electron Energy =                 847.7109080173219127
    Total Energy =                       -620.5470595477944471

Computation Completed


Properties will be evaluated at   0.000000,   0.000000,   0.000000 [a0]

Properties computed using the SCF density matrix

  Nuclear Dipole Moment: [e a0]
     X:   -17.0883      Y:    -0.6565      Z:    -0.2572

  Electronic Dipole Moment: [e a0]
     X:    14.8598      Y:     0.5509      Z:     0.2083

  Dipole Moment: [e a0]
     X:    -2.2286      Y:    -0.1057      Z:    -0.0489     Total:     2.2316

  Dipole Moment: [D]
     X:    -5.6644      Y:    -0.2686      Z:    -0.1242     Total:     5.6722


*** tstop() called on node58.bme.utexas.edu at Thu Apr 23 17:27:25 2020
Module time:
	user time   =     117.99 seconds =       1.97 minutes
	system time =       2.91 seconds =       0.05 minutes
	total time  =         17 seconds =       0.28 minutes
Total time:
	user time   =     117.99 seconds =       1.97 minutes
	system time =       2.91 seconds =       0.05 minutes
	total time  =         17 seconds =       0.28 minutes

  //>>>>>>>>>>>>>>>>>>>>>>>>>>>>>>>>>>>//
  //            Monomer A HF           //
  //<<<<<<<<<<<<<<<<<<<<<<<<<<<<<<<<<<<//


*** tstart() called on node58.bme.utexas.edu
*** at Thu Apr 23 17:27:25 2020

   => Loading Basis Set <=

    Name: AUG-CC-PVDZ
    Role: ORBITAL
    Keyword: BASIS
    atoms 1, 6, 12, 14, 16, 20     entry C          line   182 file /home/liuchw/anaconda3/envs/psi4env/share/psi4/basis/aug-cc-pvdz.gbs 
    atoms 2, 13, 21                entry O          line   254 file /home/liuchw/anaconda3/envs/psi4env/share/psi4/basis/aug-cc-pvdz.gbs 
    atoms 3, 10, 18                entry N          line   218 file /home/liuchw/anaconda3/envs/psi4env/share/psi4/basis/aug-cc-pvdz.gbs 
    atoms 4-5, 7-9, 11, 15, 17, 19 entry H          line    40 file /home/liuchw/anaconda3/envs/psi4env/share/psi4/basis/aug-cc-pvdz.gbs 


         ---------------------------------------------------------
                                   SCF
               by Justin Turney, Rob Parrish, Andy Simmonett
                          and Daniel G. A. Smith
                              RHF Reference
                        8 Threads,  19073 MiB Core
         ---------------------------------------------------------

  ==> Geometry <==

    Molecular point group: c1
    Full point group: C1

    Geometry (in Angstrom), charge = 0, multiplicity = 1:

       Center              X                  Y                   Z               Mass       
    ------------   -----------------  -----------------  -----------------  -----------------
         C           -4.247067775607    -0.442168406275    -0.087290838059    12.000000000000
         O           -3.585617775607     0.588211593725     0.079949161941    15.994914619570
         N           -3.684917775607    -1.649918406275    -0.259950838059    14.003074004430
         H           -2.670487775607    -1.744368406275    -0.254000838059     1.007825032230
         H           -4.258547775607    -2.460128406275    -0.392350838059     1.007825032230
         C           -5.752587775607    -0.387048406275    -0.101560838059    12.000000000000
         H           -6.092307775607    -0.007198406275     0.858829161941     1.007825032230
         H           -6.216457775607    -1.350948406275    -0.291880838059     1.007825032230
         H           -6.064327775607     0.321681593725    -0.864270838059     1.007825032230
      Gh(N)           2.748762224393    -0.541168406275    -0.057000838059    14.003074004430
      Gh(H)           3.238792224393    -1.417128406275    -0.174930838059     1.007825032230
      Gh(C)           3.552382224393     0.601671593725     0.093489161941    12.000000000000
      Gh(O)           4.767952224393     0.506051593725     0.078299161941    15.994914619570
      Gh(C)           2.779792224393     1.816991593725     0.256629161941    12.000000000000
      Gh(H)           3.301562224393     2.750181593725     0.379659161941     1.007825032230
      Gh(C)           1.430632224393     1.755311593725     0.250949161941    12.000000000000
      Gh(H)           0.810232224393     2.631671593725     0.368629161941     1.007825032230
      Gh(N)           0.745552224393     0.583031593725     0.096389161941    14.003074004430
      Gh(H)          -0.287237775607     0.573971593725     0.095549161941     1.007825032230
      Gh(C)           1.376442224393    -0.621438406275    -0.065870838059    12.000000000000
      Gh(O)           0.779252224393    -1.685348406275    -0.207680838059    15.994914619570

  Running in c1 symmetry.

  Rotational constants: A =      0.08752  B =      0.00850  C =      0.00776 [cm^-1]
  Rotational constants: A =   2623.85838  B =    254.75949  C =    232.55097 [MHz]
  Nuclear repulsion =  121.911924787439233

  Charge       = 0
  Multiplicity = 1
  Electrons    = 32
  Nalpha       = 16
  Nbeta        = 16

  ==> Algorithm <==

  SCF Algorithm Type is DF.
  DIIS enabled.
  MOM disabled.
  Fractional occupation disabled.
  Guess Type is SAD.
  Energy threshold   = 1.00e-08
  Density threshold  = 1.00e-08
  Integral threshold = 0.00e+00

  ==> Primary Basis <==

  Basis Set: AUG-CC-PVDZ
    Blend: AUG-CC-PVDZ
    Number of shells: 153
    Number of basis function: 357
    Number of Cartesian functions: 381
    Spherical Harmonics?: true
    Max angular momentum: 2

   => Loading Basis Set <=

    Name: (AUG-CC-PVDZ AUX)
    Role: JKFIT
    Keyword: DF_BASIS_SCF
    atoms 1, 6, 12, 14, 16, 20     entry C          line   154 file /home/liuchw/anaconda3/envs/psi4env/share/psi4/basis/aug-cc-pvdz-jkfit.gbs 
    atoms 2, 13, 21                entry O          line   270 file /home/liuchw/anaconda3/envs/psi4env/share/psi4/basis/aug-cc-pvdz-jkfit.gbs 
    atoms 3, 10, 18                entry N          line   212 file /home/liuchw/anaconda3/envs/psi4env/share/psi4/basis/aug-cc-pvdz-jkfit.gbs 
    atoms 4-5, 7-9, 11, 15, 17, 19 entry H          line    70 file /home/liuchw/anaconda3/envs/psi4env/share/psi4/basis/aug-cc-pvdz-jkfit.gbs 

  ==> Pre-Iterations <==

   -------------------------------------------------------
    Irrep   Nso     Nmo     Nalpha   Nbeta   Ndocc  Nsocc
   -------------------------------------------------------
     A        357     357       0       0       0       0
   -------------------------------------------------------
    Total     357     357      16      16      16       0
   -------------------------------------------------------

  ==> Integral Setup <==

  ==> DiskDFJK: Density-Fitted J/K Matrices <==

    J tasked:                  Yes
    K tasked:                  Yes
    wK tasked:                  No
    OpenMP threads:              8
    Integrals threads:           8
    Memory [MiB]:            14305
    Algorithm:                Core
    Integral Cache:           LOAD
    Schwarz Cutoff:          1E-12
    Fitting Condition:       1E-10

   => Auxiliary Basis Set <=

  Basis Set: (AUG-CC-PVDZ AUX)
    Blend: AUG-CC-PVDZ-JKFIT
    Number of shells: 444
    Number of basis function: 1320
    Number of Cartesian functions: 1527
    Spherical Harmonics?: true
    Max angular momentum: 3

  Minimum eigenvalue in the overlap matrix is 1.2875654092E-05.
  Using Symmetric Orthogonalization.

  SCF Guess: Superposition of Atomic Densities via on-the-fly atomic UHF.

  ==> Iterations <==

                           Total Energy        Delta E     RMS |[F,P]|

   @DF-RHF iter SAD:  -207.20289528709463   -2.07203e+02   0.00000e+00 
   @DF-RHF iter   1:  -207.83204880649220   -6.29154e-01   1.65947e-03 DIIS
   @DF-RHF iter   2:  -207.96572998815222   -1.33681e-01   9.46622e-04 DIIS
   @DF-RHF iter   3:  -208.00754643711824   -4.18164e-02   1.86770e-04 DIIS
   @DF-RHF iter   4:  -208.01003556550197   -2.48913e-03   7.37216e-05 DIIS
   @DF-RHF iter   5:  -208.01052058299456   -4.85017e-04   1.31552e-05 DIIS
   @DF-RHF iter   6:  -208.01054776231342   -2.71793e-05   6.26430e-06 DIIS
   @DF-RHF iter   7:  -208.01055286138248   -5.09907e-06   2.24594e-06 DIIS
   @DF-RHF iter   8:  -208.01055387135980   -1.00998e-06   7.66841e-07 DIIS
   @DF-RHF iter   9:  -208.01055399951977   -1.28160e-07   2.00710e-07 DIIS
   @DF-RHF iter  10:  -208.01055400581990   -6.30013e-09   6.41086e-08 DIIS
   @DF-RHF iter  11:  -208.01055400650853   -6.88630e-10   1.44590e-08 DIIS
   @DF-RHF iter  12:  -208.01055400654073   -3.22018e-11   3.24730e-09 DIIS
  Energy and wave function converged.


  ==> Post-Iterations <==

    Orbital Energies [Eh]
    ---------------------

    Doubly Occupied:                                                      

       1A    -20.521133     2A    -15.601403     3A    -11.361037  
       4A    -11.244610     5A     -1.372348     6A     -1.222352  
       7A     -1.008065     8A     -0.807437     9A     -0.732781  
      10A     -0.664258    11A     -0.615563    12A     -0.579128  
      13A     -0.564426    14A     -0.523569    15A     -0.420352  
      16A     -0.412712  

    Virtual:                                                              

      17A      0.022616    18A      0.030088    19A      0.040460  
      20A      0.048840    21A      0.051432    22A      0.060418  
      23A      0.064843    24A      0.072307    25A      0.072937  
      26A      0.079561    27A      0.096685    28A      0.102122  
      29A      0.113084    30A      0.113443    31A      0.118724  
      32A      0.120711    33A      0.124738    34A      0.126389  
      35A      0.140680    36A      0.144926    37A      0.146280  
      38A      0.151964    39A      0.155056    40A      0.161805  
      41A      0.163871    42A      0.173049    43A      0.175464  
      44A      0.178455    45A      0.181997    46A      0.183905  
      47A      0.200422    48A      0.205277    49A      0.205933  
      50A      0.207107    51A      0.212901    52A      0.219314  
      53A      0.221255    54A      0.222453    55A      0.234789  
      56A      0.243870    57A      0.247958    58A      0.257902  
      59A      0.263678    60A      0.277607    61A      0.279897  
      62A      0.282089    63A      0.290697    64A      0.297361  
      65A      0.300602    66A      0.310303    67A      0.317807  
      68A      0.323665    69A      0.329391    70A      0.332230  
      71A      0.337903    72A      0.340763    73A      0.361133  
      74A      0.362825    75A      0.368458    76A      0.376185  
      77A      0.387540    78A      0.398205    79A      0.413328  
      80A      0.416805    81A      0.423733    82A      0.426335  
      83A      0.428241    84A      0.435720    85A      0.436355  
      86A      0.440964    87A      0.450844    88A      0.464488  
      89A      0.471928    90A      0.474737    91A      0.476962  
      92A      0.486310    93A      0.501268    94A      0.507496  
      95A      0.510390    96A      0.517464    97A      0.523279  
      98A      0.524204    99A      0.525004   100A      0.536823  
     101A      0.548630   102A      0.558179   103A      0.560490  
     104A      0.561803   105A      0.567182   106A      0.580326  
     107A      0.589757   108A      0.596934   109A      0.603685  
     110A      0.606509   111A      0.611949   112A      0.620045  
     113A      0.620813   114A      0.628766   115A      0.630000  
     116A      0.639114   117A      0.639940   118A      0.644986  
     119A      0.653914   120A      0.659489   121A      0.670956  
     122A      0.674512   123A      0.686428   124A      0.701825  
     125A      0.702375   126A      0.712709   127A      0.721983  
     128A      0.724833   129A      0.740210   130A      0.747698  
     131A      0.755127   132A      0.768426   133A      0.771629  
     134A      0.792105   135A      0.797180   136A      0.803857  
     137A      0.810785   138A      0.816948   139A      0.831915  
     140A      0.835715   141A      0.857634   142A      0.864841  
     143A      0.870794   144A      0.885386   145A      0.895508  
     146A      0.904313   147A      0.906215   148A      0.910168  
     149A      0.925241   150A      0.938543   151A      0.945191  
     152A      0.955649   153A      0.963588   154A      0.970784  
     155A      1.002632   156A      1.015520   157A      1.022196  
     158A      1.024071   159A      1.036495   160A      1.053290  
     161A      1.070016   162A      1.071749   163A      1.075002  
     164A      1.101596   165A      1.110459   166A      1.117900  
     167A      1.121893   168A      1.128772   169A      1.133723  
     170A      1.152135   171A      1.162128   172A      1.168087  
     173A      1.175931   174A      1.204034   175A      1.210277  
     176A      1.223384   177A      1.224751   178A      1.227162  
     179A      1.262425   180A      1.263618   181A      1.269905  
     182A      1.288107   183A      1.298682   184A      1.305474  
     185A      1.313932   186A      1.320122   187A      1.339038  
     188A      1.351128   189A      1.370576   190A      1.374009  
     191A      1.385080   192A      1.398969   193A      1.405744  
     194A      1.414778   195A      1.419412   196A      1.427935  
     197A      1.433267   198A      1.460902   199A      1.462689  
     200A      1.489717   201A      1.504320   202A      1.518133  
     203A      1.535202   204A      1.546764   205A      1.565957  
     206A      1.567991   207A      1.571128   208A      1.573554  
     209A      1.575962   210A      1.627108   211A      1.644370  
     212A      1.685383   213A      1.690936   214A      1.725997  
     215A      1.750553   216A      1.758808   217A      1.802520  
     218A      1.819085   219A      1.840446   220A      1.880931  
     221A      1.889599   222A      1.911657   223A      1.930085  
     224A      1.963651   225A      1.987758   226A      2.015264  
     227A      2.036162   228A      2.055585   229A      2.102630  
     230A      2.127258   231A      2.152623   232A      2.169765  
     233A      2.194177   234A      2.210593   235A      2.227215  
     236A      2.259052   237A      2.261127   238A      2.264148  
     239A      2.265024   240A      2.289431   241A      2.297753  
     242A      2.313114   243A      2.332794   244A      2.358771  
     245A      2.378178   246A      2.391582   247A      2.414834  
     248A      2.422012   249A      2.453039   250A      2.457511  
     251A      2.475307   252A      2.504866   253A      2.511957  
     254A      2.539174   255A      2.543443   256A      2.554023  
     257A      2.556368   258A      2.564341   259A      2.622845  
     260A      2.635428   261A      2.644279   262A      2.669613  
     263A      2.673259   264A      2.708100   265A      2.715985  
     266A      2.758607   267A      2.775712   268A      2.778808  
     269A      2.793672   270A      2.822942   271A      2.829915  
     272A      2.838892   273A      2.867975   274A      2.898950  
     275A      2.905455   276A      2.912144   277A      2.971803  
     278A      2.989144   279A      3.043565   280A      3.045210  
     281A      3.071479   282A      3.104891   283A      3.119215  
     284A      3.162455   285A      3.174102   286A      3.201822  
     287A      3.285139   288A      3.321997   289A      3.360753  
     290A      3.434381   291A      3.455955   292A      3.468381  
     293A      3.502596   294A      3.530700   295A      3.596091  
     296A      3.610987   297A      3.634430   298A      3.654304  
     299A      3.667810   300A      3.692610   301A      3.720354  
     302A      3.755617   303A      3.785742   304A      3.803933  
     305A      3.808537   306A      3.826561   307A      3.873436  
     308A      3.898519   309A      3.903095   310A      3.953364  
     311A      4.047746   312A      4.087244   313A      4.114852  
     314A      4.183281   315A      4.200886   316A      4.373383  
     317A      4.414820   318A      4.477378   319A      4.556150  
     320A      4.623662   321A      4.663165   322A      4.706424  
     323A      4.747074   324A      4.774603   325A      4.927825  
     326A      4.967361   327A      5.007519   328A      5.019470  
     329A      5.024495   330A      5.042553   331A      5.074838  
     332A      5.116652   333A      5.228458   334A      5.326695  
     335A      5.442433   336A      5.525576   337A      5.688645  
     338A      5.764502   339A      5.901187   340A      5.956746  
     341A      5.965859   342A      6.036711   343A      6.068409  
     344A      6.141421   345A      6.180775   346A      6.388441  
     347A      6.505375   348A      7.016669   349A      7.284113  
     350A     18.173310   351A     18.736054   352A     18.802779  
     353A     19.533370   354A     25.460285   355A     25.470633  
     356A     33.534166   357A     33.547629  

    Final Occupation by Irrep:
              A 
    DOCC [    16 ]

  @DF-RHF Final Energy:  -208.01055400654073

   => Energetics <=

    Nuclear Repulsion Energy =            121.9119247874392329
    One-Electron Energy =                -524.5426109118325257
    Two-Electron Energy =                 194.6201321178525347
    Total Energy =                       -208.0105540065407297

Computation Completed


Properties will be evaluated at   0.000000,   0.000000,   0.000000 [a0]

Properties computed using the SCF density matrix

  Nuclear Dipole Moment: [e a0]
     X:  -264.1448      Y:   -32.2387      Z:    -6.1545

  Electronic Dipole Moment: [e a0]
     X:   263.4448      Y:    30.6526      Z:     5.9065

  Dipole Moment: [e a0]
     X:    -0.7001      Y:    -1.5861      Z:    -0.2480     Total:     1.7514

  Dipole Moment: [D]
     X:    -1.7794      Y:    -4.0316      Z:    -0.6305     Total:     4.4517


*** tstop() called on node58.bme.utexas.edu at Thu Apr 23 17:27:33 2020
Module time:
	user time   =      51.55 seconds =       0.86 minutes
	system time =       1.69 seconds =       0.03 minutes
	total time  =          8 seconds =       0.13 minutes
Total time:
	user time   =     169.58 seconds =       2.83 minutes
	system time =       4.60 seconds =       0.08 minutes
	total time  =         25 seconds =       0.42 minutes

  //>>>>>>>>>>>>>>>>>>>>>>>>>>>>>>>>>>>//
  //            Monomer B HF           //
  //<<<<<<<<<<<<<<<<<<<<<<<<<<<<<<<<<<<//


*** tstart() called on node58.bme.utexas.edu
*** at Thu Apr 23 17:27:33 2020

   => Loading Basis Set <=

    Name: AUG-CC-PVDZ
    Role: ORBITAL
    Keyword: BASIS
    atoms 1, 6, 12, 14, 16, 20     entry C          line   182 file /home/liuchw/anaconda3/envs/psi4env/share/psi4/basis/aug-cc-pvdz.gbs 
    atoms 2, 13, 21                entry O          line   254 file /home/liuchw/anaconda3/envs/psi4env/share/psi4/basis/aug-cc-pvdz.gbs 
    atoms 3, 10, 18                entry N          line   218 file /home/liuchw/anaconda3/envs/psi4env/share/psi4/basis/aug-cc-pvdz.gbs 
    atoms 4-5, 7-9, 11, 15, 17, 19 entry H          line    40 file /home/liuchw/anaconda3/envs/psi4env/share/psi4/basis/aug-cc-pvdz.gbs 


         ---------------------------------------------------------
                                   SCF
               by Justin Turney, Rob Parrish, Andy Simmonett
                          and Daniel G. A. Smith
                              RHF Reference
                        8 Threads,  19073 MiB Core
         ---------------------------------------------------------

  ==> Geometry <==

    Molecular point group: c1
    Full point group: C1

    Geometry (in Angstrom), charge = 0, multiplicity = 1:

       Center              X                  Y                   Z               Mass       
    ------------   -----------------  -----------------  -----------------  -----------------
      Gh(C)          -4.247067775607    -0.442168406275    -0.087290838059    12.000000000000
      Gh(O)          -3.585617775607     0.588211593725     0.079949161941    15.994914619570
      Gh(N)          -3.684917775607    -1.649918406275    -0.259950838059    14.003074004430
      Gh(H)          -2.670487775607    -1.744368406275    -0.254000838059     1.007825032230
      Gh(H)          -4.258547775607    -2.460128406275    -0.392350838059     1.007825032230
      Gh(C)          -5.752587775607    -0.387048406275    -0.101560838059    12.000000000000
      Gh(H)          -6.092307775607    -0.007198406275     0.858829161941     1.007825032230
      Gh(H)          -6.216457775607    -1.350948406275    -0.291880838059     1.007825032230
      Gh(H)          -6.064327775607     0.321681593725    -0.864270838059     1.007825032230
         N            2.748762224393    -0.541168406275    -0.057000838059    14.003074004430
         H            3.238792224393    -1.417128406275    -0.174930838059     1.007825032230
         C            3.552382224393     0.601671593725     0.093489161941    12.000000000000
         O            4.767952224393     0.506051593725     0.078299161941    15.994914619570
         C            2.779792224393     1.816991593725     0.256629161941    12.000000000000
         H            3.301562224393     2.750181593725     0.379659161941     1.007825032230
         C            1.430632224393     1.755311593725     0.250949161941    12.000000000000
         H            0.810232224393     2.631671593725     0.368629161941     1.007825032230
         N            0.745552224393     0.583031593725     0.096389161941    14.003074004430
         H           -0.287237775607     0.573971593725     0.095549161941     1.007825032230
         C            1.376442224393    -0.621438406275    -0.065870838059    12.000000000000
         O            0.779252224393    -1.685348406275    -0.207680838059    15.994914619570

  Running in c1 symmetry.

  Rotational constants: A =      0.08752  B =      0.00850  C =      0.00776 [cm^-1]
  Rotational constants: A =   2623.85838  B =    254.75949  C =    232.55097 [MHz]
  Nuclear repulsion =  357.169983945287868

  Charge       = 0
  Multiplicity = 1
  Electrons    = 58
  Nalpha       = 29
  Nbeta        = 29

  ==> Algorithm <==

  SCF Algorithm Type is DF.
  DIIS enabled.
  MOM disabled.
  Fractional occupation disabled.
  Guess Type is SAD.
  Energy threshold   = 1.00e-08
  Density threshold  = 1.00e-08
  Integral threshold = 0.00e+00

  ==> Primary Basis <==

  Basis Set: AUG-CC-PVDZ
    Blend: AUG-CC-PVDZ
    Number of shells: 153
    Number of basis function: 357
    Number of Cartesian functions: 381
    Spherical Harmonics?: true
    Max angular momentum: 2

   => Loading Basis Set <=

    Name: (AUG-CC-PVDZ AUX)
    Role: JKFIT
    Keyword: DF_BASIS_SCF
    atoms 1, 6, 12, 14, 16, 20     entry C          line   154 file /home/liuchw/anaconda3/envs/psi4env/share/psi4/basis/aug-cc-pvdz-jkfit.gbs 
    atoms 2, 13, 21                entry O          line   270 file /home/liuchw/anaconda3/envs/psi4env/share/psi4/basis/aug-cc-pvdz-jkfit.gbs 
    atoms 3, 10, 18                entry N          line   212 file /home/liuchw/anaconda3/envs/psi4env/share/psi4/basis/aug-cc-pvdz-jkfit.gbs 
    atoms 4-5, 7-9, 11, 15, 17, 19 entry H          line    70 file /home/liuchw/anaconda3/envs/psi4env/share/psi4/basis/aug-cc-pvdz-jkfit.gbs 

  ==> Pre-Iterations <==

   -------------------------------------------------------
    Irrep   Nso     Nmo     Nalpha   Nbeta   Ndocc  Nsocc
   -------------------------------------------------------
     A        357     357       0       0       0       0
   -------------------------------------------------------
    Total     357     357      29      29      29       0
   -------------------------------------------------------

  ==> Integral Setup <==

  ==> DiskDFJK: Density-Fitted J/K Matrices <==

    J tasked:                  Yes
    K tasked:                  Yes
    wK tasked:                  No
    OpenMP threads:              8
    Integrals threads:           8
    Memory [MiB]:            14305
    Algorithm:                Core
    Integral Cache:           LOAD
    Schwarz Cutoff:          1E-12
    Fitting Condition:       1E-10

   => Auxiliary Basis Set <=

  Basis Set: (AUG-CC-PVDZ AUX)
    Blend: AUG-CC-PVDZ-JKFIT
    Number of shells: 444
    Number of basis function: 1320
    Number of Cartesian functions: 1527
    Spherical Harmonics?: true
    Max angular momentum: 3

  Minimum eigenvalue in the overlap matrix is 1.2875654092E-05.
  Using Symmetric Orthogonalization.

  SCF Guess: Superposition of Atomic Densities via on-the-fly atomic UHF.

  ==> Iterations <==

                           Total Energy        Delta E     RMS |[F,P]|

   @DF-RHF iter SAD:  -411.88954656339286   -4.11890e+02   0.00000e+00 
   @DF-RHF iter   1:  -412.28184651130772   -3.92300e-01   2.01657e-03 DIIS
   @DF-RHF iter   2:  -412.44496711470902   -1.63121e-01   1.31215e-03 DIIS
   @DF-RHF iter   3:  -412.52247203266433   -7.75049e-02   2.46139e-04 DIIS
   @DF-RHF iter   4:  -412.52675282383785   -4.28079e-03   9.70436e-05 DIIS
   @DF-RHF iter   5:  -412.52759406470113   -8.41241e-04   1.98676e-05 DIIS
   @DF-RHF iter   6:  -412.52769181426942   -9.77496e-05   1.00941e-05 DIIS
   @DF-RHF iter   7:  -412.52770909571063   -1.72814e-05   3.85125e-06 DIIS
   @DF-RHF iter   8:  -412.52771193191523   -2.83620e-06   1.32054e-06 DIIS
   @DF-RHF iter   9:  -412.52771213701971   -2.05104e-07   5.47768e-07 DIIS
   @DF-RHF iter  10:  -412.52771218972799   -5.27083e-08   1.78751e-07 DIIS
   @DF-RHF iter  11:  -412.52771219568041   -5.95242e-09   6.13985e-08 DIIS
   @DF-RHF iter  12:  -412.52771219617591   -4.95504e-10   1.79034e-08 DIIS
   @DF-RHF iter  13:  -412.52771219623253   -5.66160e-11   6.26615e-09 DIIS
  Energy and wave function converged.


  ==> Post-Iterations <==

    Orbital Energies [Eh]
    ---------------------

    Doubly Occupied:                                                      

       1A    -20.553768     2A    -20.553713     3A    -15.657857  
       4A    -15.634839     5A    -11.427393     6A    -11.390137  
       7A    -11.349718     8A    -11.264316     9A     -1.437171  
      10A     -1.402216    11A     -1.317878    12A     -1.249738  
      13A     -1.092991    14A     -0.940400    15A     -0.903837  
      16A     -0.808359    17A     -0.769788    18A     -0.716227  
      19A     -0.678916    20A     -0.670436    21A     -0.651277  
      22A     -0.616368    23A     -0.602960    24A     -0.571515  
      25A     -0.524044    26A     -0.481396    27A     -0.448518  
      28A     -0.434569    29A     -0.370018  

    Virtual:                                                              

      30A      0.012472    31A      0.027881    32A      0.043382  
      33A      0.045245    34A      0.049215    35A      0.053439  
      36A      0.060806    37A      0.068974    38A      0.071935  
      39A      0.081543    40A      0.081735    41A      0.092855  
      42A      0.103424    43A      0.108234    44A      0.111385  
      45A      0.116036    46A      0.116709    47A      0.119138  
      48A      0.131767    49A      0.134875    50A      0.142638  
      51A      0.144779    52A      0.146580    53A      0.151909  
      54A      0.153435    55A      0.160656    56A      0.164206  
      57A      0.169441    58A      0.170783    59A      0.175873  
      60A      0.180427    61A      0.182931    62A      0.190579  
      63A      0.203121    64A      0.210387    65A      0.211833  
      66A      0.221209    67A      0.230810    68A      0.237537  
      69A      0.239296    70A      0.244487    71A      0.252928  
      72A      0.257533    73A      0.259601    74A      0.265658  
      75A      0.281320    76A      0.289959    77A      0.298701  
      78A      0.305031    79A      0.314285    80A      0.318233  
      81A      0.327550    82A      0.329007    83A      0.334675  
      84A      0.340128    85A      0.342009    86A      0.347404  
      87A      0.351528    88A      0.361110    89A      0.363446  
      90A      0.370096    91A      0.376280    92A      0.384138  
      93A      0.390786    94A      0.391659    95A      0.402960  
      96A      0.405105    97A      0.416627    98A      0.418038  
      99A      0.423931   100A      0.435751   101A      0.443691  
     102A      0.448156   103A      0.453135   104A      0.454953  
     105A      0.465486   106A      0.472312   107A      0.474293  
     108A      0.486832   109A      0.490038   110A      0.493363  
     111A      0.504471   112A      0.506991   113A      0.513797  
     114A      0.515249   115A      0.526315   116A      0.533045  
     117A      0.538522   118A      0.551972   119A      0.555534  
     120A      0.558240   121A      0.573875   122A      0.581338  
     123A      0.583951   124A      0.591136   125A      0.594246  
     126A      0.614217   127A      0.627890   128A      0.633673  
     129A      0.636700   130A      0.646454   131A      0.650017  
     132A      0.655927   133A      0.666559   134A      0.669760  
     135A      0.671509   136A      0.683704   137A      0.685435  
     138A      0.696419   139A      0.704795   140A      0.717529  
     141A      0.718632   142A      0.720443   143A      0.726178  
     144A      0.741532   145A      0.755842   146A      0.773646  
     147A      0.779507   148A      0.783610   149A      0.791267  
     150A      0.801609   151A      0.806142   152A      0.810043  
     153A      0.813094   154A      0.819015   155A      0.824952  
     156A      0.836080   157A      0.840815   158A      0.853322  
     159A      0.854724   160A      0.858176   161A      0.860166  
     162A      0.870329   163A      0.878055   164A      0.887529  
     165A      0.913841   166A      0.915597   167A      0.937788  
     168A      0.939968   169A      0.945845   170A      0.949868  
     171A      0.967555   172A      0.975652   173A      0.978484  
     174A      0.995653   175A      1.000483   176A      1.018239  
     177A      1.018534   178A      1.025871   179A      1.051067  
     180A      1.056470   181A      1.057874   182A      1.073552  
     183A      1.092014   184A      1.102551   185A      1.103107  
     186A      1.120321   187A      1.127804   188A      1.135089  
     189A      1.152576   190A      1.160504   191A      1.170621  
     192A      1.180563   193A      1.209719   194A      1.214870  
     195A      1.215895   196A      1.227606   197A      1.234319  
     198A      1.249602   199A      1.276546   200A      1.285413  
     201A      1.292135   202A      1.298799   203A      1.348020  
     204A      1.351139   205A      1.351947   206A      1.354699  
     207A      1.371788   208A      1.397253   209A      1.403312  
     210A      1.443665   211A      1.455824   212A      1.466442  
     213A      1.491317   214A      1.507355   215A      1.525567  
     216A      1.533547   217A      1.536012   218A      1.540400  
     219A      1.542427   220A      1.564093   221A      1.579809  
     222A      1.600778   223A      1.639231   224A      1.643402  
     225A      1.656523   226A      1.674822   227A      1.685835  
     228A      1.709679   229A      1.735037   230A      1.753746  
     231A      1.806674   232A      1.816765   233A      1.825699  
     234A      1.858806   235A      1.878987   236A      1.886927  
     237A      1.904179   238A      1.930041   239A      1.933579  
     240A      1.969353   241A      1.979872   242A      1.994896  
     243A      1.998146   244A      2.003543   245A      2.011417  
     246A      2.048210   247A      2.063783   248A      2.101897  
     249A      2.102378   250A      2.156010   251A      2.198791  
     252A      2.217803   253A      2.225043   254A      2.236347  
     255A      2.238578   256A      2.245075   257A      2.258626  
     258A      2.275077   259A      2.316307   260A      2.318749  
     261A      2.329291   262A      2.331886   263A      2.339743  
     264A      2.351848   265A      2.355296   266A      2.366512  
     267A      2.373463   268A      2.383873   269A      2.418871  
     270A      2.427375   271A      2.442151   272A      2.458757  
     273A      2.480223   274A      2.489599   275A      2.497909  
     276A      2.519926   277A      2.531604   278A      2.560547  
     279A      2.577459   280A      2.585246   281A      2.632749  
     282A      2.656609   283A      2.721583   284A      2.722947  
     285A      2.753897   286A      2.777925   287A      2.778426  
     288A      2.781446   289A      2.781868   290A      2.810694  
     291A      2.824467   292A      2.849371   293A      2.857654  
     294A      2.866429   295A      2.881078   296A      2.911997  
     297A      2.978145   298A      3.001236   299A      3.019743  
     300A      3.039026   301A      3.103590   302A      3.118297  
     303A      3.147495   304A      3.182714   305A      3.212487  
     306A      3.243558   307A      3.277105   308A      3.285131  
     309A      3.324510   310A      3.358414   311A      3.370870  
     312A      3.391667   313A      3.469586   314A      3.492767  
     315A      3.517788   316A      3.552708   317A      3.589501  
     318A      3.640718   319A      3.663127   320A      3.670063  
     321A      3.730489   322A      3.759424   323A      3.762529  
     324A      3.763459   325A      3.802147   326A      3.819409  
     327A      3.820365   328A      3.839240   329A      3.853518  
     330A      4.029997   331A      4.048602   332A      4.067362  
     333A      4.081817   334A      4.161115   335A      4.320405  
     336A      4.416001   337A      4.522754   338A      4.572467  
     339A      4.608719   340A      4.777401   341A      4.956033  
     342A      4.995055   343A      5.047785   344A      5.115453  
     345A      5.124970   346A      5.172931   347A      5.196946  
     348A      5.845350   349A      5.979864   350A      5.981588  
     351A      6.153885   352A      6.365379   353A      6.950605  
     354A     18.355252   355A     18.997042   356A     25.481438  
     357A     33.517520  

    Final Occupation by Irrep:
              A 
    DOCC [    29 ]

  @DF-RHF Final Energy:  -412.52771219623253

   => Energetics <=

    Nuclear Repulsion Energy =            357.1699839452878678
    One-Electron Energy =               -1270.3546669304355419
    Two-Electron Energy =                 500.6569707889151459
    Total Energy =                       -412.5277121962325282

Computation Completed


Properties will be evaluated at   0.000000,   0.000000,   0.000000 [a0]

Properties computed using the SCF density matrix

  Nuclear Dipole Moment: [e a0]
     X:   247.0565      Y:    31.5822      Z:     5.8974

  Electronic Dipole Moment: [e a0]
     X:  -248.4675      Y:   -30.0885      Z:    -5.6958

  Dipole Moment: [e a0]
     X:    -1.4110      Y:     1.4938      Z:     0.2016     Total:     2.0646

  Dipole Moment: [D]
     X:    -3.5863      Y:     3.7967      Z:     0.5123     Total:     5.2478


*** tstop() called on node58.bme.utexas.edu at Thu Apr 23 17:27:42 2020
Module time:
	user time   =      62.28 seconds =       1.04 minutes
	system time =       1.90 seconds =       0.03 minutes
	total time  =          9 seconds =       0.15 minutes
Total time:
	user time   =     231.91 seconds =       3.87 minutes
	system time =       6.51 seconds =       0.11 minutes
	total time  =         34 seconds =       0.57 minutes
  Constructing Basis Sets for SAPT...

   => Loading Basis Set <=

    Name: (AUG-CC-PVDZ AUX)
    Role: RIFIT
    Keyword: DF_BASIS_SAPT
    atoms 1, 6, 12, 14, 16, 20     entry C          line   112 file /home/liuchw/anaconda3/envs/psi4env/share/psi4/basis/aug-cc-pvdz-ri.gbs 
    atoms 2, 13, 21                entry O          line   204 file /home/liuchw/anaconda3/envs/psi4env/share/psi4/basis/aug-cc-pvdz-ri.gbs 
    atoms 3, 10, 18                entry N          line   158 file /home/liuchw/anaconda3/envs/psi4env/share/psi4/basis/aug-cc-pvdz-ri.gbs 
    atoms 4-5, 7-9, 11, 15, 17, 19 entry H          line    30 file /home/liuchw/anaconda3/envs/psi4env/share/psi4/basis/aug-cc-pvdz-ri.gbs 


  //>>>>>>>>>>>>>>>>>>>>>>>>>>>>>>>>>>>//
  //               SAPT2+              //
  //<<<<<<<<<<<<<<<<<<<<<<<<<<<<<<<<<<<//


*** tstart() called on node58.bme.utexas.edu
*** at Thu Apr 23 17:27:42 2020

        SAPT2+  
    Ed Hohenstein
     6 June 2009

      Orbital Information
  --------------------------
    NSO        =       357
    NMO        =       357
    NRI        =      1071
    NOCC A     =        16
    NOCC B     =        29
    FOCC A     =         4
    FOCC B     =         8
    NVIR A     =       341
    NVIR B     =       328

    Estimated memory usage: 3343.3 MB

    Natural Orbital Cutoff:   1.000E-06
    Disp(T3) Truncation:            Yes
    CCD (vv|vv) Truncation:         Yes
    MBPT T2 Truncation:             Yes

    Monomer A: 224 virtual orbitals dropped
    Monomer B: 146 virtual orbitals dropped

    Elst10,r            =    -0.008358225970 [Eh]
    Exch10 (S^2)        =     0.000185335569 [Eh]
    Exch10              =     0.000185362483 [Eh]
    Ind20,r (A<-B)      =    -0.000343535980 [Eh]
    Ind20,r (B<-A)      =    -0.000254317951 [Eh]
    Ind20,r             =    -0.000597853931 [Eh]
    Exch-Ind20,r (A<-B) =     0.000029161103 [Eh]
    Exch-Ind20,r (B<-A) =     0.000010072429 [Eh]
    Exch-Ind20,r        =     0.000039233532 [Eh]
    Disp20              =    -0.000992665426 [Eh]
    Disp20 (NO)         =    -0.000954713264 [Eh]
    Exch-Disp20         =     0.000019935354 [Eh]
    Elst12,r            =     0.001375502876 [Eh]
    Exch11              =    -0.000006290542 [Eh]
    Exch12              =     0.000103469250 [Eh]
    Ind22               =    -0.000008765834 [Eh]
    Disp21              =     0.000105508231 [Eh]
    Disp22 (SDQ)        =    -0.000047710760 [Eh]

    (i =   1 of  21)          9 seconds
    (i =   2 of  21)         19 seconds
    (i =   3 of  21)         29 seconds
    (i =   4 of  21)         39 seconds
    (i =   5 of  21)         49 seconds
    (i =   6 of  21)         58 seconds
    (i =   7 of  21)         68 seconds
    (i =   8 of  21)         78 seconds
    (i =   9 of  21)         88 seconds
    (i =  10 of  21)         97 seconds
    (i =  11 of  21)        107 seconds
    (i =  12 of  21)        117 seconds
    (i =  13 of  21)        127 seconds
    (i =  14 of  21)        137 seconds
    (i =  15 of  21)        146 seconds
    (i =  16 of  21)        156 seconds
    (i =  17 of  21)        166 seconds
    (i =  18 of  21)        176 seconds
    (i =  19 of  21)        185 seconds
    (i =  20 of  21)        195 seconds
    (i =  21 of  21)        205 seconds

    Disp220 (T)         =    -0.000101123013 [Eh]

    (i =   1 of  12)         40 seconds
    (i =   2 of  12)         81 seconds
    (i =   3 of  12)        121 seconds
    (i =   4 of  12)        161 seconds
    (i =   5 of  12)        202 seconds
    (i =   6 of  12)        242 seconds
    (i =   7 of  12)        282 seconds
    (i =   8 of  12)        322 seconds
    (i =   9 of  12)        363 seconds
    (i =  10 of  12)        403 seconds
    (i =  11 of  12)        443 seconds
    (i =  12 of  12)        484 seconds

    Disp202 (T)         =    -0.000108550145 [Eh]

    Disp22 (T)          =    -0.000209673157 [Eh]

    Est. Disp220 (T)    =    -0.000105142897 [Eh]
    Est. Disp202 (T)    =    -0.000112865276 [Eh]

    Est. Disp22 (T)     =    -0.000218008173 [Eh]

    SAPT Results 
  --------------------------------------------------------------------------------------------------------
    Electrostatics                 -6.98272309 [mEh]      -4.38172489 [kcal/mol]     -18.33313696 [kJ/mol]
      Elst10,r                     -8.35822597 [mEh]      -5.24486598 [kcal/mol]     -21.94451926 [kJ/mol]
      Elst12,r                      1.37550288 [mEh]       0.86314109 [kcal/mol]       3.61138230 [kJ/mol]

    Exchange                        0.28254119 [mEh]       0.17729727 [kcal/mol]       0.74181179 [kJ/mol]
      Exch10                        0.18536248 [mEh]       0.11631671 [kcal/mol]       0.48666913 [kJ/mol]
      Exch10(S^2)                   0.18533557 [mEh]       0.11629983 [kcal/mol]       0.48659847 [kJ/mol]
      Exch11(S^2)                  -0.00629054 [mEh]      -0.00394737 [kcal/mol]      -0.01651582 [kJ/mol]
      Exch12(S^2)                   0.10346925 [mEh]       0.06492793 [kcal/mol]       0.27165848 [kJ/mol]

    Induction                      -0.62867212 [mEh]      -0.39449771 [kcal/mol]      -1.65057842 [kJ/mol]
      Ind20,r                      -0.59785393 [mEh]      -0.37515901 [kcal/mol]      -1.56966528 [kJ/mol]
      Ind22                        -0.00876583 [mEh]      -0.00550064 [kcal/mol]      -0.02301469 [kJ/mol]
      Exch-Ind20,r                  0.03923353 [mEh]       0.02461941 [kcal/mol]       0.10300762 [kJ/mol]
      Exch-Ind22                    0.00057525 [mEh]       0.00036097 [kcal/mol]       0.00151031 [kJ/mol]
      delta HF,r (2)               -0.06186113 [mEh]      -0.03881845 [kcal/mol]      -0.16241639 [kJ/mol]

    Dispersion                     -1.13294077 [mEh]      -0.71093107 [kcal/mol]      -2.97453559 [kJ/mol]
      Disp20                       -0.99266543 [mEh]      -0.62290696 [kcal/mol]      -2.60624272 [kJ/mol]
      Disp21                        0.10550823 [mEh]       0.06620741 [kcal/mol]       0.27701182 [kJ/mol]
      Disp22 (SDQ)                 -0.04771076 [mEh]      -0.02993895 [kcal/mol]      -0.12526458 [kJ/mol]
      Disp22 (T)                   -0.20967316 [mEh]      -0.13157189 [kcal/mol]      -0.55049680 [kJ/mol]
      Est. Disp22 (T)              -0.21800817 [mEh]      -0.13680219 [kcal/mol]      -0.57238038 [kJ/mol]
      Exch-Disp20                   0.01993535 [mEh]       0.01250962 [kcal/mol]       0.05234026 [kJ/mol]

  Total HF                         -8.79334502 [mEh]      -5.51790731 [kcal/mol]     -23.08692417 [kJ/mol]
  Total SAPT0                      -9.76607509 [mEh]      -6.12830464 [kcal/mol]     -25.64082663 [kJ/mol]
  Total SAPT2                      -8.30158409 [mEh]      -5.20932267 [kcal/mol]     -21.79580604 [kJ/mol]
  Total SAPT2+                     -8.46179480 [mEh]      -5.30985640 [kcal/mol]     -22.21643918 [kJ/mol]

  Special recipe for scaled SAPT0 (see Manual):
    Electrostatics sSAPT0          -8.35822597 [mEh]      -5.24486598 [kcal/mol]     -21.94451926 [kJ/mol]
    Exchange sSAPT0                 0.18536248 [mEh]       0.11631671 [kcal/mol]       0.48666913 [kJ/mol]
    Induction sSAPT0               -0.62046444 [mEh]      -0.38934731 [kcal/mol]      -1.62902916 [kJ/mol]
    Dispersion sSAPT0              -0.97272139 [mEh]      -0.61039189 [kcal/mol]      -2.55387965 [kJ/mol]
  Total sSAPT0                     -9.76604931 [mEh]      -6.12828847 [kcal/mol]     -25.64075894 [kJ/mol]
  --------------------------------------------------------------------------------------------------------

*** tstop() called on node58.bme.utexas.edu at Thu Apr 23 17:42:40 2020
Module time:
	user time   =    6805.67 seconds =     113.43 minutes
	system time =     152.80 seconds =       2.55 minutes
	total time  =        898 seconds =      14.97 minutes
Total time:
	user time   =    7038.80 seconds =     117.31 minutes
	system time =     159.41 seconds =       2.66 minutes
	total time  =        932 seconds =      15.53 minutes

    Psi4 stopped on: Thursday, 23 April 2020 05:42PM
    Psi4 wall time for execution: 0:15:31.75

*** Psi4 exiting successfully. Buy a developer a beer!
