    -----------------------------------------------------------------------
          PSI4: An Open-Source Ab Initio Electronic Structure Package
                              PSI 4.0.0-beta4 Driver

    J. M. Turney, A. C. Simmonett, R. M. Parrish, E. G. Hohenstein,
    F. A. Evangelista, J. T. Fermann, B. J. Mintz, L. A. Burns, J. J. Wilke,
    M. L. Abrams, N. J. Russ, M. L. Leininger, C. L. Janssen, E. T. Seidl,
    W. D. Allen, H. F. Schaefer, R. A. King, E. F. Valeev, C. D. Sherrill,
    and T. D. Crawford, WIREs Comput. Mol. Sci., (2011) (doi: 10.1002/wcms.93)

                         Additional Contributions by
    A. E. DePrince, M. Saitow, U. Bozkaya, A. Yu. Sokolov
    -----------------------------------------------------------------------

    Process ID:   1445
    PSI4DATADIR: /home/xzhu216/psi4/psi4-install/share/psi

    Using LocalCommunicator (Number of processes = 1)

    Memory level set to 256.000 MB

  ==> Input File <==

--------------------------------------------------------------------------
#psi4
#
memory 7 gb

molecule AcNH2_Uracil {
0 1
C   -1.232727003   1.211638964  -0.141624061
O   -0.571276673   2.242015733   0.025616787
N   -0.670580510   0.003888780  -0.314281473
H    0.343846945  -0.090560105  -0.308326667
H   -1.244213734  -0.806323699  -0.446682710
C   -2.738244955   1.266757664  -0.155886572
H   -3.077975339   1.646605106   0.804501592
H   -3.202115034   0.302865489  -0.346211116
H   -3.049987473   1.975490493  -0.918597367
--
0 1
N    4.374354762   1.120124632  -0.117286136
H    4.864384209   0.244167452  -0.235224605
C    5.177980774   2.262969571   0.033195560
O    6.393542801   2.167347247   0.018010784
C    4.405388599   3.478286054   0.196339498
H    4.927151589   4.411478917   0.319374621
C    3.056227887   3.416610525   0.190662741
H    2.435823836   4.292970911   0.308339638
N    2.371145780   2.244329017   0.036096975
H    1.338355302   2.235267953   0.035259657
C    3.002035745   1.039859519  -0.126163061
O    2.404847015  -0.024056442  -0.267970552
units angstrom
no_reorient  #important for SAPT in psi4, default
symmetry c1  #important for SAPT in psi4, default
}

set {
basis aug-cc-pVDZ
scf_type DF
freeze_core True
}
energy('sapt2+')
--------------------------------------------------------------------------

  Memory set to   7.000 GiB by Python script.

  //>>>>>>>>>>>>>>>>>>>>>>>>>>>>>>>>>>>//
  //              Dimer HF             //
  //<<<<<<<<<<<<<<<<<<<<<<<<<<<<<<<<<<<//


  No DF_BASIS_SCF auxiliary basis selected, defaulting to aug-cc-pvdz-jkfit


*** tstart() called on node108.bme.utexas.edu
*** at Fri Nov  8 12:22:11 2013


         ---------------------------------------------------------
                                   SCF
            by Justin Turney, Rob Parrish, and Andy Simmonett
                              RHF Reference
                        4 Threads,   7000 MiB Core
         ---------------------------------------------------------

  ==> Geometry <==

    Molecular point group: c1
    Full point group: C1

    Geometry (in Angstrom), charge = 0, multiplicity = 1:

       Center              X                  Y                   Z       
    ------------   -----------------  -----------------  -----------------
           C         -3.337600063290    -0.447072058085    -0.083391066119
           O         -2.676149733290     0.583304710915     0.083849781881
           N         -2.775453570290    -1.654822242085    -0.256048478119
           H         -1.761026115290    -1.749271127085    -0.250093672119
           H         -3.349086794290    -2.465034721085    -0.388449715119
           C         -4.843118015290    -0.391953358085    -0.097653577119
           H         -5.182848399290    -0.012105916085     0.862734586881
           H         -5.306988094290    -1.355845533085    -0.287978121119
           H         -5.154860533290     0.316779470915    -0.860364372119
           N          2.269481701710    -0.538586390085    -0.059053141119
           H          2.759511148710    -1.414543570085    -0.176991610119
           C          3.073107713710     0.604258548915     0.091428554881
           O          4.288669740710     0.508636224915     0.076243778881
           C          2.300515538710     1.819575031915     0.254572492881
           H          2.822278528710     2.752767894915     0.377607615881
           C          0.951354826710     1.757899502915     0.248895735881
           H          0.330950775710     2.634259888915     0.366572632881
           N          0.266272719710     0.585617994915     0.094329969881
           H         -0.766517758290     0.576556930915     0.093492651881
           C          0.897162684710    -0.618851503085    -0.067930066119
           O          0.299973954710    -1.682767464085    -0.209737557119

  Running in c1 symmetry.

  Nuclear repulsion =  674.867753151894931

  Charge       = 0
  Multiplicity = 1
  Electrons    = 90
  Nalpha       = 45
  Nbeta        = 45

  ==> Algorithm <==

  SCF Algorithm Type is DF.
  DIIS enabled.
  MOM disabled.
  Fractional occupation disabled.
  Guess Type is CORE.
  Energy threshold   = 1.00e-08
  Density threshold  = 1.00e-08
  Integral threshold = 0.00e+00

  ==> Primary Basis <==

  Basis Set: AUG-CC-PVDZ
    Number of shells: 153
    Number of basis function: 357
    Number of Cartesian functions: 381
    Spherical Harmonics?: true
    Max angular momentum: 2

  ==> Pre-Iterations <==

   -------------------------------------------------------
    Irrep   Nso     Nmo     Nalpha   Nbeta   Ndocc  Nsocc
   -------------------------------------------------------
     A        357     357       0       0       0       0
   -------------------------------------------------------
    Total     357     357      45      45      45       0
   -------------------------------------------------------

 OEINTS: Wrapper to libmints.
   by Justin Turney

   Calculation information:
      Number of atoms:                  21
      Number of AO shells:             153
      Number of SO shells:             153
      Number of primitives:            363
      Number of atomic orbitals:       381
      Number of basis functions:       357

      Number of irreps:                  1
      Number of functions per irrep: [ 357 ]

      Overlap, kinetic, potential, dipole, and quadrupole integrals
        stored in file 35.

  ==> Integral Setup <==

  ==> DFJK: Density-Fitted J/K Matrices <==

    J tasked:                  Yes
    K tasked:                  Yes
    wK tasked:                  No
    OpenMP threads:              4
    Integrals threads:           4
    Memory (MB):              5006
    Algorithm:                Core
    Integral Cache:           SAVE
    Schwarz Cutoff:          0E+00
    Fitting Condition:       1E-12

   => Auxiliary Basis Set <=

  Basis Set: aug-cc-pvdz-jkfit
    Number of shells: 444
    Number of basis function: 1320
    Number of Cartesian functions: 1527
    Spherical Harmonics?: true
    Max angular momentum: 3

  Minimum eigenvalue in the overlap matrix is 9.3233532846E-06.
  Using Symmetric Orthogonalization.
  SCF Guess: Core (One-Electron) Hamiltonian.

  Guess energy:  -498.78756717999499

  ==> Iterations <==

                        Total Energy        Delta E     RMS |[F,P]|

   @RHF iter   1:  -470.71848947631361   -4.70718e+02   3.00278e-02 
   @RHF iter   2:  -105.93649714869366    3.64782e+02   5.08181e-02 DIIS
   @RHF iter   3:  -383.50535257739716   -2.77569e+02   3.60955e-02 DIIS
   @RHF iter   4:  -446.24029886666790   -6.27349e+01   3.21921e-02 DIIS
   @RHF iter   5:  -534.34611582949060   -8.81058e+01   2.10784e-02 DIIS
   @RHF iter   6:  -467.71531627883292    6.66308e+01   3.09664e-02 DIIS
   @RHF iter   7:  -536.06143162384910   -6.83461e+01   2.39482e-02 DIIS
   @RHF iter   8:  -606.05470171162983   -6.99933e+01   1.07150e-02 DIIS
   @RHF iter   9:  -618.11960188556441   -1.20649e+01   3.61247e-03 DIIS
   @RHF iter  10:  -619.69873915386142   -1.57914e+00   3.84238e-03 DIIS
   @RHF iter  11:  -620.42871920612811   -7.29980e-01   1.35534e-03 DIIS
   @RHF iter  12:  -620.53188171434545   -1.03163e-01   6.20260e-04 DIIS
   @RHF iter  13:  -620.55871008542999   -2.68284e-02   2.25662e-04 DIIS
   @RHF iter  14:  -620.56247885685048   -3.76877e-03   9.97461e-05 DIIS
   @RHF iter  15:  -620.56337957650658   -9.00720e-04   4.89957e-05 DIIS
   @RHF iter  16:  -620.56362738928397   -2.47813e-04   1.48480e-05 DIIS
   @RHF iter  17:  -620.56365490173607   -2.75125e-05   4.45113e-06 DIIS
   @RHF iter  18:  -620.56365740839260   -2.50666e-06   1.60414e-06 DIIS
   @RHF iter  19:  -620.56365789111373   -4.82721e-07   5.61111e-07 DIIS
   @RHF iter  20:  -620.56365795189299   -6.07793e-08   1.81525e-07 DIIS
   @RHF iter  21:  -620.56365795845909   -6.56610e-09   8.96974e-08 DIIS
   @RHF iter  22:  -620.56365795961551   -1.15642e-09   2.48979e-08 DIIS
   @RHF iter  23:  -620.56365795974943   -1.33923e-10   1.02845e-08 DIIS
   @RHF iter  24:  -620.56365795976512   -1.56888e-11   3.80555e-09 DIIS

  ==> Post-Iterations <==

	Orbital Energies (a.u.)
	-----------------------

	Doubly Occupied:                                                      

	   1A    -20.553974     2A    -20.545065     3A    -20.543662  
	   4A    -15.630570     5A    -15.627958     6A    -15.601233  
	   7A    -11.421994     8A    -11.380262     9A    -11.379252  
	  10A    -11.333295    11A    -11.255468    12A    -11.249137  
	  13A     -1.433072    14A     -1.397331    15A     -1.394453  
	  16A     -1.305281    17A     -1.238930    18A     -1.229167  
	  19A     -1.078633    20A     -1.019899    21A     -0.925341  
	  22A     -0.893861    23A     -0.815487    24A     -0.794073  
	  25A     -0.757704    26A     -0.738476    27A     -0.707215  
	  28A     -0.686418    29A     -0.667732    30A     -0.660124  
	  31A     -0.645811    32A     -0.629240    33A     -0.605236  
	  34A     -0.598276    35A     -0.590737    36A     -0.573368  
	  37A     -0.562254    38A     -0.537390    39A     -0.512139  
	  40A     -0.482194    41A     -0.446255    42A     -0.439800  
	  43A     -0.431955    44A     -0.427396    45A     -0.355526  

	Virtual:                                                              

	  46A      0.026511    47A      0.036443    48A      0.043480  
	  49A      0.051875    50A      0.053292    51A      0.056500  
	  52A      0.067371    53A      0.073956    54A      0.081178  
	  55A      0.092358    56A      0.092533    57A      0.108146  
	  58A      0.118017    59A      0.124493    60A      0.125870  
	  61A      0.126745    62A      0.136081    63A      0.140602  
	  64A      0.149806    65A      0.151836    66A      0.152623  
	  67A      0.153440    68A      0.160751    69A      0.163528  
	  70A      0.167561    71A      0.172103    72A      0.172618  
	  73A      0.176468    74A      0.181444    75A      0.182305  
	  76A      0.189182    77A      0.193309    78A      0.212631  
	  79A      0.213294    80A      0.222447    81A      0.228224  
	  82A      0.237825    83A      0.239815    84A      0.259211  
	  85A      0.268244    86A      0.270685    87A      0.271789  
	  88A      0.276842    89A      0.285820    90A      0.291876  
	  91A      0.301469    92A      0.315224    93A      0.316960  
	  94A      0.321241    95A      0.330785    96A      0.333285  
	  97A      0.335411    98A      0.347120    99A      0.350695  
	 100A      0.355646   101A      0.360162   102A      0.363053  
	 103A      0.370515   104A      0.373308   105A      0.376969  
	 106A      0.390755   107A      0.392912   108A      0.394263  
	 109A      0.396277   110A      0.402680   111A      0.412239  
	 112A      0.413887   113A      0.419377   114A      0.423805  
	 115A      0.434116   116A      0.442722   117A      0.452942  
	 118A      0.453893   119A      0.458017   120A      0.461383  
	 121A      0.478821   122A      0.479637   123A      0.491896  
	 124A      0.499657   125A      0.502101   126A      0.502612  
	 127A      0.511382   128A      0.525498   129A      0.531361  
	 130A      0.535529   131A      0.546967   132A      0.553033  
	 133A      0.555348   134A      0.564516   135A      0.568261  
	 136A      0.570726   137A      0.588898   138A      0.592649  
	 139A      0.600978   140A      0.607618   141A      0.610969  
	 142A      0.621850   143A      0.632750   144A      0.639085  
	 145A      0.643301   146A      0.652690   147A      0.657412  
	 148A      0.669756   149A      0.670150   150A      0.676147  
	 151A      0.685550   152A      0.696600   153A      0.698740  
	 154A      0.706195   155A      0.716852   156A      0.731386  
	 157A      0.735008   158A      0.740000   159A      0.743862  
	 160A      0.752669   161A      0.754988   162A      0.766255  
	 163A      0.788318   164A      0.790689   165A      0.797219  
	 166A      0.802812   167A      0.812785   168A      0.819472  
	 169A      0.824147   170A      0.833227   171A      0.845291  
	 172A      0.850778   173A      0.856483   174A      0.863506  
	 175A      0.878923   176A      0.882109   177A      0.899388  
	 178A      0.905337   179A      0.910153   180A      0.919714  
	 181A      0.925480   182A      0.939675   183A      0.950405  
	 184A      0.958802   185A      0.968905   186A      0.973182  
	 187A      0.990020   188A      0.994015   189A      1.000856  
	 190A      1.004969   191A      1.025536   192A      1.037815  
	 193A      1.049904   194A      1.075649   195A      1.080990  
	 196A      1.082881   197A      1.093327   198A      1.104891  
	 199A      1.109299   200A      1.113004   201A      1.122364  
	 202A      1.135736   203A      1.149192   204A      1.155655  
	 205A      1.157179   206A      1.179372   207A      1.186671  
	 208A      1.191132   209A      1.219029   210A      1.244259  
	 211A      1.249394   212A      1.281631   213A      1.284095  
	 214A      1.292712   215A      1.310068   216A      1.317536  
	 217A      1.319353   218A      1.351117   219A      1.365074  
	 220A      1.368516   221A      1.393758   222A      1.410239  
	 223A      1.413786   224A      1.424679   225A      1.459446  
	 226A      1.483661   227A      1.511887   228A      1.514127  
	 229A      1.526320   230A      1.539631   231A      1.562615  
	 232A      1.566897   233A      1.584620   234A      1.586572  
	 235A      1.601961   236A      1.619470   237A      1.629685  
	 238A      1.648599   239A      1.663433   240A      1.672210  
	 241A      1.681375   242A      1.700534   243A      1.717944  
	 244A      1.722829   245A      1.735015   246A      1.766570  
	 247A      1.777595   248A      1.809205   249A      1.816438  
	 250A      1.824433   251A      1.848662   252A      1.850741  
	 253A      1.860718   254A      1.873945   255A      1.904489  
	 256A      1.909493   257A      1.919873   258A      1.924405  
	 259A      1.932734   260A      1.948267   261A      1.979835  
	 262A      1.994944   263A      2.005151   264A      2.011426  
	 265A      2.017689   266A      2.023959   267A      2.034753  
	 268A      2.056539   269A      2.086075   270A      2.099536  
	 271A      2.121475   272A      2.126971   273A      2.129982  
	 274A      2.141162   275A      2.161821   276A      2.184255  
	 277A      2.213553   278A      2.230293   279A      2.245309  
	 280A      2.266277   281A      2.276126   282A      2.281861  
	 283A      2.296158   284A      2.317490   285A      2.329057  
	 286A      2.340875   287A      2.354053   288A      2.363078  
	 289A      2.374332   290A      2.388992   291A      2.400562  
	 292A      2.429707   293A      2.461812   294A      2.475662  
	 295A      2.491691   296A      2.512251   297A      2.518072  
	 298A      2.534439   299A      2.568167   300A      2.568721  
	 301A      2.596410   302A      2.607674   303A      2.627954  
	 304A      2.651742   305A      2.668827   306A      2.695154  
	 307A      2.728104   308A      2.755225   309A      2.779237  
	 310A      2.789794   311A      2.804211   312A      2.812168  
	 313A      2.826996   314A      2.839986   315A      2.854986  
	 316A      2.866730   317A      2.871381   318A      2.901791  
	 319A      2.917274   320A      2.921610   321A      2.933378  
	 322A      2.967963   323A      2.989240   324A      3.037118  
	 325A      3.043894   326A      3.110027   327A      3.128445  
	 328A      3.150057   329A      3.212515   330A      3.239335  
	 331A      3.253083   332A      3.332112   333A      3.363706  
	 334A      3.432327   335A      3.463891   336A      3.513826  
	 337A      3.565390   338A      3.660103   339A      3.694226  
	 340A      3.711608   341A      3.766852   342A      3.773492  
	 343A      3.792915   344A      3.809465   345A      3.831470  
	 346A      3.839206   347A      3.844072   348A      3.846592  
	 349A      3.908033   350A      3.976250   351A      4.053759  
	 352A      4.067223   353A      4.149312   354A      4.171067  
	 355A      4.279639   356A      4.351866   357A      4.426880  

	Final Occupation by Irrep:
	          A 
	DOCC [    45 ]

  Energy converged.

  @RHF Final Energy:  -620.56365795976512

   => Energetics <=

    Nuclear Repulsion Energy =            674.8677531518949309
    One-Electron Energy =               -2186.6575325525227527
    Two-Electron Energy =                 891.2261214408608794
    DFT Exchange-Correlation Energy =       0.0000000000000000
    Empirical Dispersion Energy =           0.0000000000000000
    Total Energy =                       -620.5636579597669424



Properties will be evaluated at   0.000000,   0.000000,   0.000000 Bohr
  ==> Properties <==


Properties computed using the SCF density density matrix
  Nuclear Dipole Moment: (a.u.)
     X:   -14.6227      Y:    -0.6698      Z:    -0.2466

  Electronic Dipole Moment: (a.u.)
     X:    12.2149      Y:     0.5099      Z:     0.1901

  Dipole Moment: (a.u.)
     X:    -2.4078      Y:    -0.1599      Z:    -0.0565     Total:     2.4138

  Dipole Moment: (Debye)
     X:    -6.1200      Y:    -0.4064      Z:    -0.1436     Total:     6.1352


  Saving occupied orbitals to File 180.

  Saving SAPT 2-DIMER file.

*** tstop() called on node108.bme.utexas.edu at Fri Nov  8 12:24:11 2013
Module time:
	user time   =     452.29 seconds =       7.54 minutes
	system time =       3.36 seconds =       0.06 minutes
	total time  =        120 seconds =       2.00 minutes
Total time:
	user time   =     452.29 seconds =       7.54 minutes
	system time =       3.36 seconds =       0.06 minutes
	total time  =        120 seconds =       2.00 minutes

  //>>>>>>>>>>>>>>>>>>>>>>>>>>>>>>>>>>>//
  //            Monomer A HF           //
  //<<<<<<<<<<<<<<<<<<<<<<<<<<<<<<<<<<<//


  No DF_BASIS_SCF auxiliary basis selected, defaulting to aug-cc-pvdz-jkfit


*** tstart() called on node108.bme.utexas.edu
*** at Fri Nov  8 12:24:11 2013


         ---------------------------------------------------------
                                   SCF
            by Justin Turney, Rob Parrish, and Andy Simmonett
                              RHF Reference
                        4 Threads,   7000 MiB Core
         ---------------------------------------------------------

  ==> Geometry <==

    Molecular point group: c1
    Full point group: C1

    Geometry (in Angstrom), charge = 0, multiplicity = 1:

       Center              X                  Y                   Z       
    ------------   -----------------  -----------------  -----------------
           C         -3.337600063290    -0.447072058085    -0.083391066119
           O         -2.676149733290     0.583304710915     0.083849781881
           N         -2.775453570290    -1.654822242085    -0.256048478119
           H         -1.761026115290    -1.749271127085    -0.250093672119
           H         -3.349086794290    -2.465034721085    -0.388449715119
           C         -4.843118015290    -0.391953358085    -0.097653577119
           H         -5.182848399290    -0.012105916085     0.862734586881
           H         -5.306988094290    -1.355845533085    -0.287978121119
           H         -5.154860533290     0.316779470915    -0.860364372119
           N(Gh)      2.269481701710    -0.538586390085    -0.059053141119
           H(Gh)      2.759511148710    -1.414543570085    -0.176991610119
           C(Gh)      3.073107713710     0.604258548915     0.091428554881
           O(Gh)      4.288669740710     0.508636224915     0.076243778881
           C(Gh)      2.300515538710     1.819575031915     0.254572492881
           H(Gh)      2.822278528710     2.752767894915     0.377607615881
           C(Gh)      0.951354826710     1.757899502915     0.248895735881
           H(Gh)      0.330950775710     2.634259888915     0.366572632881
           N(Gh)      0.266272719710     0.585617994915     0.094329969881
           H(Gh)     -0.766517758290     0.576556930915     0.093492651881
           C(Gh)      0.897162684710    -0.618851503085    -0.067930066119
           O(Gh)      0.299973954710    -1.682767464085    -0.209737557119

  Running in c1 symmetry.

  Nuclear repulsion =  121.912064312954939

  Charge       = 0
  Multiplicity = 1
  Electrons    = 32
  Nalpha       = 16
  Nbeta        = 16

  ==> Algorithm <==

  SCF Algorithm Type is DF.
  DIIS enabled.
  MOM disabled.
  Fractional occupation disabled.
  Guess Type is CORE.
  Energy threshold   = 1.00e-08
  Density threshold  = 1.00e-08
  Integral threshold = 0.00e+00

  ==> Primary Basis <==

  Basis Set: AUG-CC-PVDZ
    Number of shells: 153
    Number of basis function: 357
    Number of Cartesian functions: 381
    Spherical Harmonics?: true
    Max angular momentum: 2

  ==> Pre-Iterations <==

   -------------------------------------------------------
    Irrep   Nso     Nmo     Nalpha   Nbeta   Ndocc  Nsocc
   -------------------------------------------------------
     A        357     357       0       0       0       0
   -------------------------------------------------------
    Total     357     357      16      16      16       0
   -------------------------------------------------------

 OEINTS: Wrapper to libmints.
   by Justin Turney

   Calculation information:
      Number of atoms:                  21
      Number of AO shells:             153
      Number of SO shells:             153
      Number of primitives:            363
      Number of atomic orbitals:       381
      Number of basis functions:       357

      Number of irreps:                  1
      Number of functions per irrep: [ 357 ]

      Overlap, kinetic, potential, dipole, and quadrupole integrals
        stored in file 35.

  ==> Integral Setup <==

  ==> DFJK: Density-Fitted J/K Matrices <==

    J tasked:                  Yes
    K tasked:                  Yes
    wK tasked:                  No
    OpenMP threads:              4
    Integrals threads:           4
    Memory (MB):              5006
    Algorithm:                Core
    Integral Cache:           LOAD
    Schwarz Cutoff:          0E+00
    Fitting Condition:       1E-12

   => Auxiliary Basis Set <=

  Basis Set: aug-cc-pvdz-jkfit
    Number of shells: 444
    Number of basis function: 1320
    Number of Cartesian functions: 1527
    Spherical Harmonics?: true
    Max angular momentum: 3

  Minimum eigenvalue in the overlap matrix is 9.3233532844E-06.
  Using Symmetric Orthogonalization.
  SCF Guess: Core (One-Electron) Hamiltonian.

  Guess energy:  -164.06814102243646

  ==> Iterations <==

                        Total Energy        Delta E     RMS |[F,P]|

   @RHF iter   1:  -168.49833515603962   -1.68498e+02   1.72519e-02 
   @RHF iter   2:  -133.96600340336460    3.45323e+01   1.72172e-02 DIIS
   @RHF iter   3:  -191.94543664962663   -5.79794e+01   9.56386e-03 DIIS
   @RHF iter   4:  -201.53990654674010   -9.59447e+00   9.39912e-03 DIIS
   @RHF iter   5:  -207.79705133574885   -6.25714e+00   1.71688e-03 DIIS
   @RHF iter   6:  -207.95631891956759   -1.59268e-01   9.07543e-04 DIIS
   @RHF iter   7:  -208.00215642704001   -4.58375e-02   3.23501e-04 DIIS
   @RHF iter   8:  -208.00849180142802   -6.33537e-03   1.62310e-04 DIIS
   @RHF iter   9:  -208.01061479313267   -2.12299e-03   5.91299e-05 DIIS
   @RHF iter  10:  -208.01092879877166   -3.14006e-04   1.28704e-05 DIIS
   @RHF iter  11:  -208.01094436119126   -1.55624e-05   2.32947e-06 DIIS
   @RHF iter  12:  -208.01094477888245   -4.17691e-07   5.53396e-07 DIIS
   @RHF iter  13:  -208.01094482329086   -4.44084e-08   2.09726e-07 DIIS
   @RHF iter  14:  -208.01094482997632   -6.68547e-09   4.95381e-08 DIIS
   @RHF iter  15:  -208.01094483051992   -5.43594e-10   1.66826e-08 DIIS
   @RHF iter  16:  -208.01094483057625   -5.63318e-11   5.60474e-09 DIIS

  ==> Post-Iterations <==

	Orbital Energies (a.u.)
	-----------------------

	Doubly Occupied:                                                      

	   1A    -20.521333     2A    -15.601241     3A    -11.360897  
	   4A    -11.244528     5A     -1.372252     6A     -1.222268  
	   7A     -1.008038     8A     -0.807370     9A     -0.732751  
	  10A     -0.664242    11A     -0.615511    12A     -0.579068  
	  13A     -0.564419    14A     -0.523494    15A     -0.420334  
	  16A     -0.412597  

	Virtual:                                                              

	  17A      0.022768    18A      0.031770    19A      0.040495  
	  20A      0.050498    21A      0.055013    22A      0.060041  
	  23A      0.069485    24A      0.075415    25A      0.075717  
	  26A      0.078568    27A      0.098022    28A      0.103894  
	  29A      0.115211    30A      0.116634    31A      0.121137  
	  32A      0.126412    33A      0.129709    34A      0.135190  
	  35A      0.144892    36A      0.150058    37A      0.151472  
	  38A      0.156558    39A      0.163403    40A      0.169449  
	  41A      0.170141    42A      0.178065    43A      0.178982  
	  44A      0.182589    45A      0.186208    46A      0.188184  
	  47A      0.200646    48A      0.210627    49A      0.217957  
	  50A      0.224111    51A      0.224758    52A      0.225695  
	  53A      0.230942    54A      0.235817    55A      0.245144  
	  56A      0.253307    57A      0.259519    58A      0.264545  
	  59A      0.278716    60A      0.279986    61A      0.283371  
	  62A      0.296277    63A      0.305731    64A      0.307403  
	  65A      0.309285    66A      0.322707    67A      0.335261  
	  68A      0.340355    69A      0.341204    70A      0.346103  
	  71A      0.351772    72A      0.371065    73A      0.378104  
	  74A      0.382237    75A      0.389113    76A      0.397805  
	  77A      0.405008    78A      0.411212    79A      0.418782  
	  80A      0.429283    81A      0.432407    82A      0.439459  
	  83A      0.447531    84A      0.449845    85A      0.455837  
	  86A      0.463137    87A      0.478055    88A      0.483440  
	  89A      0.485209    90A      0.486263    91A      0.493016  
	  92A      0.506422    93A      0.518330    94A      0.523901  
	  95A      0.526011    96A      0.528593    97A      0.537359  
	  98A      0.538971    99A      0.553019   100A      0.558418  
	 101A      0.561945   102A      0.568101   103A      0.569312  
	 104A      0.575040   105A      0.582066   106A      0.592406  
	 107A      0.598994   108A      0.599110   109A      0.617901  
	 110A      0.624121   111A      0.627191   112A      0.637844  
	 113A      0.640227   114A      0.643540   115A      0.651677  
	 116A      0.659476   117A      0.671970   118A      0.674895  
	 119A      0.685392   120A      0.695799   121A      0.697848  
	 122A      0.701345   123A      0.708853   124A      0.723094  
	 125A      0.731916   126A      0.738827   127A      0.745559  
	 128A      0.753098   129A      0.767982   130A      0.772880  
	 131A      0.785509   132A      0.789451   133A      0.801756  
	 134A      0.805448   135A      0.816164   136A      0.820777  
	 137A      0.827635   138A      0.851152   139A      0.869612  
	 140A      0.877560   141A      0.879352   142A      0.892952  
	 143A      0.912971   144A      0.916129   145A      0.921161  
	 146A      0.923001   147A      0.936821   148A      0.952285  
	 149A      0.956699   150A      0.959705   151A      0.980532  
	 152A      0.986885   153A      1.006260   154A      1.023725  
	 155A      1.028651   156A      1.038005   157A      1.057429  
	 158A      1.076635   159A      1.084442   160A      1.091620  
	 161A      1.103148   162A      1.109000   163A      1.113858  
	 164A      1.122771   165A      1.130080   166A      1.139909  
	 167A      1.146305   168A      1.158491   169A      1.165572  
	 170A      1.182190   171A      1.186768   172A      1.204551  
	 173A      1.209195   174A      1.219114   175A      1.226481  
	 176A      1.244620   177A      1.255141   178A      1.271409  
	 179A      1.282559   180A      1.301452   181A      1.315782  
	 182A      1.332483   183A      1.333374   184A      1.341439  
	 185A      1.355419   186A      1.360158   187A      1.373641  
	 188A      1.403348   189A      1.404817   190A      1.406990  
	 191A      1.423823   192A      1.444257   193A      1.447117  
	 194A      1.458372   195A      1.462462   196A      1.483308  
	 197A      1.488695   198A      1.503037   199A      1.514049  
	 200A      1.547860   201A      1.550083   202A      1.558190  
	 203A      1.559082   204A      1.575157   205A      1.581312  
	 206A      1.606713   207A      1.609293   208A      1.649915  
	 209A      1.674127   210A      1.692233   211A      1.724073  
	 212A      1.728961   213A      1.750753   214A      1.765819  
	 215A      1.817171   216A      1.838151   217A      1.840002  
	 218A      1.855005   219A      1.883905   220A      1.884511  
	 221A      1.920650   222A      1.932755   223A      1.935335  
	 224A      1.992629   225A      2.037164   226A      2.044307  
	 227A      2.077567   228A      2.110268   229A      2.127293  
	 230A      2.133132   231A      2.170108   232A      2.178689  
	 233A      2.219760   234A      2.220551   235A      2.252946  
	 236A      2.269012   237A      2.276884   238A      2.279731  
	 239A      2.284992   240A      2.313654   241A      2.346563  
	 242A      2.359113   243A      2.374644   244A      2.388295  
	 245A      2.407145   246A      2.431277   247A      2.449509  
	 248A      2.470669   249A      2.481656   250A      2.505366  
	 251A      2.533996   252A      2.536068   253A      2.545674  
	 254A      2.557038   255A      2.565620   256A      2.578714  
	 257A      2.593619   258A      2.635709   259A      2.636677  
	 260A      2.645481   261A      2.688230   262A      2.720065  
	 263A      2.724399   264A      2.733328   265A      2.740913  
	 266A      2.789022   267A      2.803829   268A      2.807082  
	 269A      2.839921   270A      2.843199   271A      2.860174  
	 272A      2.885173   273A      2.899709   274A      2.919461  
	 275A      2.928312   276A      2.962398   277A      2.995691  
	 278A      3.007092   279A      3.057277   280A      3.077782  
	 281A      3.117651   282A      3.138330   283A      3.168447  
	 284A      3.170396   285A      3.241120   286A      3.257372  
	 287A      3.326791   288A      3.350052   289A      3.381552  
	 290A      3.460088   291A      3.474205   292A      3.490061  
	 293A      3.520787   294A      3.562491   295A      3.666008  
	 296A      3.670990   297A      3.690972   298A      3.691895  
	 299A      3.717541   300A      3.748211   301A      3.773944  
	 302A      3.801922   303A      3.817086   304A      3.827240  
	 305A      3.846546   306A      3.884562   307A      3.896140  
	 308A      3.931760   309A      3.989026   310A      3.999061  
	 311A      4.106114   312A      4.139720   313A      4.171941  
	 314A      4.226061   315A      4.373974   316A      4.455545  
	 317A      4.493869   318A      4.543178   319A      4.612595  
	 320A      4.650928   321A      4.686015   322A      4.740073  
	 323A      4.781893   324A      4.849587   325A      4.949401  
	 326A      4.980549   327A      5.014552   328A      5.027671  
	 329A      5.050207   330A      5.057794   331A      5.084174  
	 332A      5.189107   333A      5.286655   334A      5.392734  
	 335A      5.485773   336A      5.569251   337A      5.737403  
	 338A      5.890655   339A      5.922885   340A      5.955002  
	 341A      6.038034   342A      6.041787   343A      6.081118  
	 344A      6.210869   345A      6.279448   346A      6.404519  
	 347A      6.543315   348A      7.023628   349A      7.294031  
	 350A     18.183112   351A     18.756433   352A     18.849241  
	 353A     19.563617   354A     25.469268   355A     25.499991  
	 356A     33.525585   357A     33.548188  

	Final Occupation by Irrep:
	          A 
	DOCC [    16 ]

  Energy converged.

  @RHF Final Energy:  -208.01094483057625

   => Energetics <=

    Nuclear Repulsion Energy =            121.9120643129549393
    One-Electron Energy =                -524.5453347536818001
    Two-Electron Energy =                 194.6223256101507388
    DFT Exchange-Correlation Energy =       0.0000000000000000
    Empirical Dispersion Energy =           0.0000000000000000
    Total Energy =                       -208.0109448305761077



Properties will be evaluated at   0.000000,   0.000000,   0.000000 Bohr
  ==> Properties <==


Properties computed using the SCF density density matrix
  Nuclear Dipole Moment: (a.u.)
     X:  -209.1483      Y:   -32.5353      Z:    -5.9185

  Electronic Dipole Moment: (a.u.)
     X:   208.4516      Y:    30.9508      Z:     5.6708

  Dipole Moment: (a.u.)
     X:    -0.6966      Y:    -1.5845      Z:    -0.2478     Total:     1.7485

  Dipole Moment: (Debye)
     X:    -1.7706      Y:    -4.0275      Z:    -0.6297     Total:     4.4444


  Saving occupied orbitals to File 180.

  Saving SAPT 2-MONOMER_A file.

*** tstop() called on node108.bme.utexas.edu at Fri Nov  8 12:25:12 2013
Module time:
	user time   =     230.38 seconds =       3.84 minutes
	system time =       1.68 seconds =       0.03 minutes
	total time  =         61 seconds =       1.02 minutes
Total time:
	user time   =     682.69 seconds =      11.38 minutes
	system time =       5.04 seconds =       0.08 minutes
	total time  =        181 seconds =       3.02 minutes

  //>>>>>>>>>>>>>>>>>>>>>>>>>>>>>>>>>>>//
  //            Monomer B HF           //
  //<<<<<<<<<<<<<<<<<<<<<<<<<<<<<<<<<<<//


  No DF_BASIS_SCF auxiliary basis selected, defaulting to aug-cc-pvdz-jkfit


*** tstart() called on node108.bme.utexas.edu
*** at Fri Nov  8 12:25:12 2013


         ---------------------------------------------------------
                                   SCF
            by Justin Turney, Rob Parrish, and Andy Simmonett
                              RHF Reference
                        4 Threads,   7000 MiB Core
         ---------------------------------------------------------

  ==> Geometry <==

    Molecular point group: c1
    Full point group: C1

    Geometry (in Angstrom), charge = 0, multiplicity = 1:

       Center              X                  Y                   Z       
    ------------   -----------------  -----------------  -----------------
           C(Gh)     -3.337600063290    -0.447072058085    -0.083391066119
           O(Gh)     -2.676149733290     0.583304710915     0.083849781881
           N(Gh)     -2.775453570290    -1.654822242085    -0.256048478119
           H(Gh)     -1.761026115290    -1.749271127085    -0.250093672119
           H(Gh)     -3.349086794290    -2.465034721085    -0.388449715119
           C(Gh)     -4.843118015290    -0.391953358085    -0.097653577119
           H(Gh)     -5.182848399290    -0.012105916085     0.862734586881
           H(Gh)     -5.306988094290    -1.355845533085    -0.287978121119
           H(Gh)     -5.154860533290     0.316779470915    -0.860364372119
           N          2.269481701710    -0.538586390085    -0.059053141119
           H          2.759511148710    -1.414543570085    -0.176991610119
           C          3.073107713710     0.604258548915     0.091428554881
           O          4.288669740710     0.508636224915     0.076243778881
           C          2.300515538710     1.819575031915     0.254572492881
           H          2.822278528710     2.752767894915     0.377607615881
           C          0.951354826710     1.757899502915     0.248895735881
           H          0.330950775710     2.634259888915     0.366572632881
           N          0.266272719710     0.585617994915     0.094329969881
           H         -0.766517758290     0.576556930915     0.093492651881
           C          0.897162684710    -0.618851503085    -0.067930066119
           O          0.299973954710    -1.682767464085    -0.209737557119

  Running in c1 symmetry.

  Nuclear repulsion =  357.169876464072786

  Charge       = 0
  Multiplicity = 1
  Electrons    = 58
  Nalpha       = 29
  Nbeta        = 29

  ==> Algorithm <==

  SCF Algorithm Type is DF.
  DIIS enabled.
  MOM disabled.
  Fractional occupation disabled.
  Guess Type is CORE.
  Energy threshold   = 1.00e-08
  Density threshold  = 1.00e-08
  Integral threshold = 0.00e+00

  ==> Primary Basis <==

  Basis Set: AUG-CC-PVDZ
    Number of shells: 153
    Number of basis function: 357
    Number of Cartesian functions: 381
    Spherical Harmonics?: true
    Max angular momentum: 2

  ==> Pre-Iterations <==

   -------------------------------------------------------
    Irrep   Nso     Nmo     Nalpha   Nbeta   Ndocc  Nsocc
   -------------------------------------------------------
     A        357     357       0       0       0       0
   -------------------------------------------------------
    Total     357     357      29      29      29       0
   -------------------------------------------------------

 OEINTS: Wrapper to libmints.
   by Justin Turney

   Calculation information:
      Number of atoms:                  21
      Number of AO shells:             153
      Number of SO shells:             153
      Number of primitives:            363
      Number of atomic orbitals:       381
      Number of basis functions:       357

      Number of irreps:                  1
      Number of functions per irrep: [ 357 ]

      Overlap, kinetic, potential, dipole, and quadrupole integrals
        stored in file 35.

  ==> Integral Setup <==

  ==> DFJK: Density-Fitted J/K Matrices <==

    J tasked:                  Yes
    K tasked:                  Yes
    wK tasked:                  No
    OpenMP threads:              4
    Integrals threads:           4
    Memory (MB):              5006
    Algorithm:                Core
    Integral Cache:           LOAD
    Schwarz Cutoff:          0E+00
    Fitting Condition:       1E-12

   => Auxiliary Basis Set <=

  Basis Set: aug-cc-pvdz-jkfit
    Number of shells: 444
    Number of basis function: 1320
    Number of Cartesian functions: 1527
    Spherical Harmonics?: true
    Max angular momentum: 3

  Minimum eigenvalue in the overlap matrix is 9.3233532844E-06.
  Using Symmetric Orthogonalization.
  SCF Guess: Core (One-Electron) Hamiltonian.

  Guess energy:  -318.15445240999770

  ==> Iterations <==

                        Total Energy        Delta E     RMS |[F,P]|

   @RHF iter   1:  -347.66227396924410   -3.47662e+02   2.22189e-02 
   @RHF iter   2:  -308.15791422674454    3.95044e+01   2.14220e-02 DIIS
   @RHF iter   3:  -356.33143703268570   -4.81735e+01   2.04744e-02 DIIS
   @RHF iter   4:  -397.59971086668202   -4.12683e+01   1.31442e-02 DIIS
   @RHF iter   5:  -408.98780746781631   -1.13881e+01   6.21522e-03 DIIS
   @RHF iter   6:  -412.12252507691517   -3.13472e+00   2.35574e-03 DIIS
   @RHF iter   7:  -412.47110509069330   -3.48580e-01   9.70453e-04 DIIS
   @RHF iter   8:  -412.52247116991703   -5.13661e-02   2.44378e-04 DIIS
   @RHF iter   9:  -412.52706498336840   -4.59381e-03   9.44022e-05 DIIS
   @RHF iter  10:  -412.52784053999926   -7.75557e-04   4.77382e-05 DIIS
   @RHF iter  11:  -412.52805618510070   -2.15645e-04   1.69326e-05 DIIS
   @RHF iter  12:  -412.52809112880152   -3.49437e-05   5.61132e-06 DIIS
   @RHF iter  13:  -412.52809576226036   -4.63346e-06   2.22131e-06 DIIS
   @RHF iter  14:  -412.52809680991516   -1.04765e-06   1.23186e-06 DIIS
   @RHF iter  15:  -412.52809707075369   -2.60839e-07   3.60480e-07 DIIS
   @RHF iter  16:  -412.52809709301687   -2.22632e-08   1.17058e-07 DIIS
   @RHF iter  17:  -412.52809709473775   -1.72088e-09   3.71675e-08 DIIS
   @RHF iter  18:  -412.52809709494090   -2.03158e-10   1.57314e-08 DIIS
   @RHF iter  19:  -412.52809709497251   -3.16049e-11   5.78299e-09 DIIS

  ==> Post-Iterations <==

	Orbital Energies (a.u.)
	-----------------------

	Doubly Occupied:                                                      

	   1A    -20.553846     2A    -20.553763     3A    -15.657638  
	   4A    -15.634836     5A    -11.427272     6A    -11.390090  
	   7A    -11.349585     8A    -11.264246     9A     -1.437105  
	  10A     -1.402178    11A     -1.317818    12A     -1.249704  
	  13A     -1.092960    14A     -0.940371    15A     -0.903803  
	  16A     -0.808348    17A     -0.769755    18A     -0.716204  
	  19A     -0.678890    20A     -0.670382    21A     -0.651237  
	  22A     -0.616343    23A     -0.602935    24A     -0.571472  
	  25A     -0.523985    26A     -0.481386    27A     -0.448497  
	  28A     -0.434515    29A     -0.369979  

	Virtual:                                                              

	  30A      0.012395    31A      0.030019    32A      0.043449  
	  33A      0.046638    34A      0.047474    35A      0.056536  
	  36A      0.062134    37A      0.071187    38A      0.075769  
	  39A      0.082160    40A      0.082674    41A      0.096233  
	  42A      0.107706    43A      0.112369    44A      0.114521  
	  45A      0.117642    46A      0.117922    47A      0.128626  
	  48A      0.135339    49A      0.137207    50A      0.146158  
	  51A      0.146808    52A      0.152088    53A      0.154405  
	  54A      0.157330    55A      0.164247    56A      0.170445  
	  57A      0.172630    58A      0.173760    59A      0.183690  
	  60A      0.189356    61A      0.196071    62A      0.202025  
	  63A      0.218581    64A      0.218891    65A      0.229293  
	  66A      0.234767    67A      0.235928    68A      0.239853  
	  69A      0.245699    70A      0.252537    71A      0.265384  
	  72A      0.267661    73A      0.277243    74A      0.279162  
	  75A      0.290927    76A      0.303390    77A      0.304063  
	  78A      0.314232    79A      0.323440    80A      0.329435  
	  81A      0.334980    82A      0.338958    83A      0.347412  
	  84A      0.349851    85A      0.358400    86A      0.363988  
	  87A      0.368836    88A      0.370371    89A      0.376272  
	  90A      0.382181    91A      0.387124    92A      0.391095  
	  93A      0.405180    94A      0.408492    95A      0.417570  
	  96A      0.426576    97A      0.428058    98A      0.434131  
	  99A      0.437067   100A      0.446001   101A      0.451282  
	 102A      0.458319   103A      0.462949   104A      0.467632  
	 105A      0.481962   106A      0.484138   107A      0.495449  
	 108A      0.502541   109A      0.505598   110A      0.514626  
	 111A      0.518565   112A      0.519641   113A      0.523357  
	 114A      0.533526   115A      0.545381   116A      0.553615  
	 117A      0.554752   118A      0.569269   119A      0.579363  
	 120A      0.585258   121A      0.587843   122A      0.598618  
	 123A      0.599278   124A      0.609160   125A      0.627508  
	 126A      0.630080   127A      0.643998   128A      0.645643  
	 129A      0.654326   130A      0.656245   131A      0.657494  
	 132A      0.676987   133A      0.680139   134A      0.691449  
	 135A      0.692886   136A      0.693911   137A      0.701503  
	 138A      0.724849   139A      0.727418   140A      0.735505  
	 141A      0.740369   142A      0.755244   143A      0.759349  
	 144A      0.783273   145A      0.785901   146A      0.789820  
	 147A      0.795761   148A      0.799799   149A      0.810203  
	 150A      0.813946   151A      0.824746   152A      0.829020  
	 153A      0.832404   154A      0.845637   155A      0.855688  
	 156A      0.862194   157A      0.867018   158A      0.871370  
	 159A      0.872689   160A      0.880492   161A      0.885800  
	 162A      0.907686   163A      0.923549   164A      0.925955  
	 165A      0.942217   166A      0.946329   167A      0.958199  
	 168A      0.962190   169A      0.967030   170A      0.982816  
	 171A      0.991229   172A      0.998112   173A      1.003576  
	 174A      1.016753   175A      1.033715   176A      1.037717  
	 177A      1.040333   178A      1.060505   179A      1.074289  
	 180A      1.090441   181A      1.094644   182A      1.100652  
	 183A      1.119558   184A      1.127908   185A      1.139142  
	 186A      1.149578   187A      1.151100   188A      1.172251  
	 189A      1.186115   190A      1.195220   191A      1.208684  
	 192A      1.219568   193A      1.249049   194A      1.253668  
	 195A      1.268744   196A      1.278329   197A      1.282351  
	 198A      1.291026   199A      1.294544   200A      1.308420  
	 201A      1.344406   202A      1.353422   203A      1.368643  
	 204A      1.391536   205A      1.400905   206A      1.404298  
	 207A      1.425898   208A      1.439983   209A      1.462693  
	 210A      1.468362   211A      1.492577   212A      1.511703  
	 213A      1.514833   214A      1.540428   215A      1.558626  
	 216A      1.562044   217A      1.567011   218A      1.594343  
	 219A      1.595204   220A      1.636850   221A      1.645731  
	 222A      1.659751   223A      1.662346   224A      1.665853  
	 225A      1.685380   226A      1.717182   227A      1.729904  
	 228A      1.756359   229A      1.793311   230A      1.799097  
	 231A      1.819425   232A      1.838453   233A      1.849438  
	 234A      1.883102   235A      1.905414   236A      1.909046  
	 237A      1.917346   238A      1.926125   239A      1.946098  
	 240A      1.983729   241A      1.999038   242A      2.010026  
	 243A      2.015752   244A      2.023094   245A      2.056183  
	 246A      2.085208   247A      2.103851   248A      2.121080  
	 249A      2.135033   250A      2.172859   251A      2.222069  
	 252A      2.235339   253A      2.244383   254A      2.246615  
	 255A      2.257446   256A      2.258547   257A      2.287521  
	 258A      2.295826   259A      2.321720   260A      2.328232  
	 261A      2.331354   262A      2.355510   263A      2.374238  
	 264A      2.376324   265A      2.387917   266A      2.394959  
	 267A      2.428199   268A      2.456059   269A      2.458998  
	 270A      2.463280   271A      2.470499   272A      2.491347  
	 273A      2.514333   274A      2.515104   275A      2.534589  
	 276A      2.541509   277A      2.566613   278A      2.577647  
	 279A      2.607582   280A      2.632215   281A      2.663188  
	 282A      2.706648   283A      2.743865   284A      2.758747  
	 285A      2.776951   286A      2.781872   287A      2.787240  
	 288A      2.795973   289A      2.812067   290A      2.840422  
	 291A      2.842123   292A      2.882162   293A      2.899185  
	 294A      2.911046   295A      2.925369   296A      2.965825  
	 297A      3.014961   298A      3.028702   299A      3.039113  
	 300A      3.098479   301A      3.116373   302A      3.120829  
	 303A      3.205783   304A      3.222486   305A      3.253843  
	 306A      3.292319   307A      3.305271   308A      3.342480  
	 309A      3.352082   310A      3.393892   311A      3.407929  
	 312A      3.422871   313A      3.492417   314A      3.528731  
	 315A      3.536447   316A      3.592592   317A      3.669108  
	 318A      3.686754   319A      3.703888   320A      3.749525  
	 321A      3.757576   322A      3.770389   323A      3.799185  
	 324A      3.805678   325A      3.825689   326A      3.841175  
	 327A      3.842614   328A      3.915594   329A      3.945839  
	 330A      4.045354   331A      4.060854   332A      4.144057  
	 333A      4.152441   334A      4.262171   335A      4.365376  
	 336A      4.474357   337A      4.610333   338A      4.646258  
	 339A      4.708891   340A      4.817310   341A      4.966344  
	 342A      5.008699   343A      5.099489   344A      5.119296  
	 345A      5.145563   346A      5.221282   347A      5.406445  
	 348A      5.970388   349A      6.002726   350A      6.041856  
	 351A      6.219225   352A      6.453439   353A      6.999044  
	 354A     18.368169   355A     19.053553   356A     25.497857  
	 357A     33.500313  

	Final Occupation by Irrep:
	          A 
	DOCC [    29 ]

  Energy converged.

  @RHF Final Energy:  -412.52809709497251

   => Energetics <=

    Nuclear Repulsion Energy =            357.1698764640727859
    One-Electron Energy =               -1270.3576532885451797
    Two-Electron Energy =                 500.6596797294991461
    DFT Exchange-Correlation Energy =       0.0000000000000000
    Empirical Dispersion Energy =           0.0000000000000000
    Total Energy =                       -412.5280970949732477



Properties will be evaluated at   0.000000,   0.000000,   0.000000 Bohr
  ==> Properties <==


Properties computed using the SCF density density matrix
  Nuclear Dipole Moment: (a.u.)
     X:   194.5256      Y:    31.8655      Z:     5.6720

  Electronic Dipole Moment: (a.u.)
     X:  -195.9391      Y:   -30.3725      Z:    -5.4705

  Dipole Moment: (a.u.)
     X:    -1.4136      Y:     1.4930      Z:     0.2014     Total:     2.0659

  Dipole Moment: (Debye)
     X:    -3.5929      Y:     3.7949      Z:     0.5120     Total:     5.2509


  Saving occupied orbitals to File 180.

  Saving SAPT 2-MONOMER_B file.

*** tstop() called on node108.bme.utexas.edu at Fri Nov  8 12:26:28 2013
Module time:
	user time   =     291.40 seconds =       4.86 minutes
	system time =       1.85 seconds =       0.03 minutes
	total time  =         76 seconds =       1.27 minutes
Total time:
	user time   =     974.11 seconds =      16.24 minutes
	system time =       6.89 seconds =       0.11 minutes
	total time  =        257 seconds =       4.28 minutes
  No DF_BASIS_SAPT auxiliary basis selected, defaulting to aug-cc-pvdz-ri

  //>>>>>>>>>>>>>>>>>>>>>>>>>>>>>>>>>>>//
  //               SAPT2+              //
  //<<<<<<<<<<<<<<<<<<<<<<<<<<<<<<<<<<<//


*** tstart() called on node108.bme.utexas.edu
*** at Fri Nov  8 12:26:28 2013

        SAPT2+  
    Ed Hohenstein
     6 June 2009

      Orbital Information
  --------------------------
    NSO        =       357
    NMO        =       357
    NRI        =      1071
    NOCC A     =        16
    NOCC B     =        29
    FOCC A     =         4
    FOCC B     =         8
    NVIR A     =       341
    NVIR B     =       328

    Estimated memory usage: 3343.3 MB

    Elst10,r            =    -0.036184239359 H
    Exch10 (S^2)        =     0.023209253837 H
    Exch10              =     0.023409259266 H
    Ind20,r (A<-B)      =    -0.007773818555 H
    Ind20,r (B<-A)      =    -0.005223457487 H
    Ind20,r             =    -0.012997276042 H
    Exch-Ind20,r (A<-B) =     0.003465689580 H
    Exch-Ind20,r (B<-A) =     0.002198035035 H
    Exch-Ind20,r        =     0.005663724615 H
    Disp20              =    -0.009973175257 H
    Exch-Disp20         =     0.001558189256 H
    Elst12,r            =     0.002397042828 H
    Exch11              =    -0.000203090723 H
    Exch12              =     0.005024400810 H
    Ind22               =    -0.001933071025 H
    Disp21              =     0.000829790642 H
    Disp22 (SDQ)        =    -0.000470208744 H

    (i =   1 of  21)        826 seconds
    (i =   2 of  21)       1651 seconds
    (i =   3 of  21)       2476 seconds
    (i =   4 of  21)       3302 seconds
    (i =   5 of  21)       4127 seconds
    (i =   6 of  21)       4953 seconds
    (i =   7 of  21)       5779 seconds
    (i =   8 of  21)       6604 seconds
    (i =   9 of  21)       7430 seconds
    (i =  10 of  21)       8255 seconds
    (i =  11 of  21)       9080 seconds
    (i =  12 of  21)       9906 seconds
    (i =  13 of  21)      10731 seconds
    (i =  14 of  21)      11557 seconds
    (i =  15 of  21)      12383 seconds
    (i =  16 of  21)      13208 seconds
    (i =  17 of  21)      14034 seconds
    (i =  18 of  21)      14859 seconds
    (i =  19 of  21)      15684 seconds
    (i =  20 of  21)      16509 seconds
    (i =  21 of  21)      17335 seconds

    Disp220 (T)         =    -0.000938850518 H

    (i =   1 of  12)       2122 seconds
    (i =   2 of  12)       4245 seconds
    (i =   3 of  12)       6359 seconds
    (i =   4 of  12)       8472 seconds
    (i =   5 of  12)      10587 seconds
    (i =   6 of  12)      12704 seconds
    (i =   7 of  12)      14820 seconds
    (i =   8 of  12)      16937 seconds
    (i =   9 of  12)      19056 seconds
    (i =  10 of  12)      21176 seconds
    (i =  11 of  12)      23296 seconds
    (i =  12 of  12)      25416 seconds

    Disp202 (T)         =    -0.000969364569 H

    Disp22 (T)          =    -0.001908215087 H

    SAPT Results  
  -----------------------------------------------------------------------
    Electrostatics         -33.78719653 mH     -21.20178680 kcal mol^-1
      Elst10,r             -36.18423936 mH     -22.70595395 kcal mol^-1
      Elst12,r               2.39704283 mH       1.50416715 kcal mol^-1

    Exchange                28.23056935 mH      17.71495046 kcal mol^-1
      Exch10                23.40925927 mH      14.68953258 kcal mol^-1
      Exch10(S^2)           23.20925384 mH      14.56402727 kcal mol^-1
      Exch11(S^2)           -0.20309072 mH      -0.12744136 kcal mol^-1
      Exch12(S^2)            5.02440081 mH       3.15285924 kcal mol^-1

    Induction              -12.93176542 mH      -8.11480565 kcal mol^-1
      Ind20,r              -12.99727604 mH      -8.15591419 kcal mol^-1
      Ind22                 -1.93307103 mH      -1.21302043 kcal mol^-1
      Exch-Ind20,r           5.66372461 mH       3.55404100 kcal mol^-1
      Exch-Ind22             0.84235973 mH       0.52858873 kcal mol^-1
      delta HF,r (2)        -4.50750270 mH      -2.82850076 kcal mol^-1

    Dispersion              -9.96361919 mH      -6.25226570 kcal mol^-1
      Disp20                -9.97317526 mH      -6.25826222 kcal mol^-1
      Disp21                 0.82979064 mH       0.52070151 kcal mol^-1
      Disp22 (SDQ)          -0.47020874 mH      -0.29506045 kcal mol^-1
      Disp22 (T)            -1.90821509 mH      -1.19742310 kcal mol^-1
      Exch-Disp20            1.55818926 mH       0.97777856 kcal mol^-1

    Total HF               -24.61603422 mH     -15.44679532 kcal mol^-1
    Total SAPT0            -33.03102022 mH     -20.72727898 kcal mol^-1
    Total SAPT2            -26.90337860 mH     -16.88212565 kcal mol^-1
    Total SAPT2+           -28.45201179 mH     -17.85390769 kcal mol^-1

*** tstop() called on node108.bme.utexas.edu at Sat Nov  9 01:10:18 2013
Module time:
	user time   =  159603.95 seconds =    2660.07 minutes
	system time =     270.42 seconds =       4.51 minutes
	total time  =      45830 seconds =     763.83 minutes
Total time:
	user time   =  160578.06 seconds =    2676.30 minutes
	system time =     277.31 seconds =       4.62 minutes
	total time  =      46087 seconds =     768.12 minutes

*** PSI4 exiting successfully. Buy a developer a beer!
