    -----------------------------------------------------------------------
          PSI4: An Open-Source Ab Initio Electronic Structure Package
                              PSI 4.0.0-beta4 Driver

    J. M. Turney, A. C. Simmonett, R. M. Parrish, E. G. Hohenstein,
    F. A. Evangelista, J. T. Fermann, B. J. Mintz, L. A. Burns, J. J. Wilke,
    M. L. Abrams, N. J. Russ, M. L. Leininger, C. L. Janssen, E. T. Seidl,
    W. D. Allen, H. F. Schaefer, R. A. King, E. F. Valeev, C. D. Sherrill,
    and T. D. Crawford, WIREs Comput. Mol. Sci., (2011) (doi: 10.1002/wcms.93)

                         Additional Contributions by
    A. E. DePrince, M. Saitow, U. Bozkaya, A. Yu. Sokolov
    -----------------------------------------------------------------------

    Process ID:  27194
    PSI4DATADIR: /home/xzhu216/psi4/psi4-install/share/psi

    Using LocalCommunicator (Number of processes = 1)

    Memory level set to 256.000 MB

  ==> Input File <==

--------------------------------------------------------------------------
#psi4
#
memory 3 gb

molecule Benzene_Pyridine {
0 1
C    0.818746988   0.864172340   0.188286116
H    1.466113611   1.716667667   0.344721407
C    1.368997119  -0.390523941  -0.066698182
H    2.443036367  -0.511861940  -0.110574439
C    0.534378602  -1.488493196  -0.271888037
H    0.960848252  -2.461564217  -0.475507491
C   -0.849115613  -1.330507345  -0.219896434
H   -1.497069424  -2.181860285  -0.379553211
C   -1.399485456  -0.076030202   0.040434165
H   -2.472686669   0.044907778   0.093382057
C   -0.565292303   1.021403360   0.242279208
H   -0.992556673   1.993661308   0.446258168
--
0 1
N   -2.324713460   0.126056713   3.252257014
C   -1.709827529   1.283724523   3.532321204
H   -2.357431586   2.136895976   3.694833297
C   -0.327612631   1.424572259   3.622492020
H    0.104236127   2.388222374   3.853708317
C    0.473338760   0.307592955   3.408278109
H    1.550907928   0.377977233   3.463112619
C   -0.147213143  -0.901062083   3.114618532
H    0.428561367  -1.796683966   2.930543595
C   -1.537727420  -0.939099966   3.049169114
H   -2.046580345  -1.867553344   2.820326440
units angstrom
no_reorient  #important for SAPT in psi4, default
symmetry c1  #important for SAPT in psi4, default
}

set {
basis aug-cc-pVDZ
scf_type DF
freeze_core True
}
energy('sapt2+')
--------------------------------------------------------------------------

  Memory set to   3.000 GiB by Python script.

  //>>>>>>>>>>>>>>>>>>>>>>>>>>>>>>>>>>>//
  //              Dimer HF             //
  //<<<<<<<<<<<<<<<<<<<<<<<<<<<<<<<<<<<//


  No DF_BASIS_SCF auxiliary basis selected, defaulting to aug-cc-pvdz-jkfit


*** tstart() called on node64.bme.utexas.edu
*** at Wed Sep 18 17:18:28 2013


         ---------------------------------------------------------
                                   SCF
            by Justin Turney, Rob Parrish, and Andy Simmonett
                              RHF Reference
                        4 Threads,   3000 MiB Core
         ---------------------------------------------------------

  ==> Geometry <==

    Molecular point group: c1
    Full point group: C1

    Geometry (in Angstrom), charge = 0, multiplicity = 1:

       Center              X                  Y                   Z       
    ------------   -----------------  -----------------  -----------------
           C          1.296656419182     0.871100169322    -1.479722964082
           H          1.944023042182     1.723595496322    -1.323287673082
           C          1.846906550182    -0.383596111678    -1.734707262082
           H          2.920945798182    -0.504934110678    -1.778583519082
           C          1.012288033182    -1.481565366678    -1.939897117082
           H          1.438757683182    -2.454636387678    -2.143516571082
           C         -0.371206181818    -1.323579515678    -1.887905514082
           H         -1.019159992818    -2.174932455678    -2.047562291082
           C         -0.921576024818    -0.069102372678    -1.627574915082
           H         -1.994777237818     0.051835607322    -1.574627023082
           C         -0.087382871818     1.028331189322    -1.425729872082
           H         -0.514647241818     2.000589137322    -1.221750912082
           N         -1.846804028818     0.132984542322     1.584247933918
           C         -1.231918097818     1.290652352322     1.864312123918
           H         -1.879522154818     2.143823805322     2.026824216918
           C          0.150296800182     1.431500088322     1.954482939918
           H          0.582145558182     2.395150203322     2.185699236918
           C          0.951248191182     0.314520784322     1.740269028918
           H          2.028817359182     0.384905062322     1.795103538918
           C          0.330696288182    -0.894134253678     1.446609451918
           H          0.906470798182    -1.789756136678     1.262534514918
           C         -1.059817988818    -0.932172136678     1.381160033918
           H         -1.568670913818    -1.860625514678     1.152317359918

  Running in c1 symmetry.

  Nuclear repulsion =  644.567658957168874

  Charge       = 0
  Multiplicity = 1
  Electrons    = 84
  Nalpha       = 42
  Nbeta        = 42

  ==> Algorithm <==

  SCF Algorithm Type is DF.
  DIIS enabled.
  MOM disabled.
  Fractional occupation disabled.
  Guess Type is CORE.
  Energy threshold   = 1.00e-08
  Density threshold  = 1.00e-08
  Integral threshold = 0.00e+00

  ==> Primary Basis <==

  Basis Set: AUG-CC-PVDZ
    Number of shells: 163
    Number of basis function: 375
    Number of Cartesian functions: 399
    Spherical Harmonics?: true
    Max angular momentum: 2

  ==> Pre-Iterations <==

   -------------------------------------------------------
    Irrep   Nso     Nmo     Nalpha   Nbeta   Ndocc  Nsocc
   -------------------------------------------------------
     A        375     375       0       0       0       0
   -------------------------------------------------------
    Total     375     375      42      42      42       0
   -------------------------------------------------------

 OEINTS: Wrapper to libmints.
   by Justin Turney

   Calculation information:
      Number of atoms:                  23
      Number of AO shells:             163
      Number of SO shells:             163
      Number of primitives:            377
      Number of atomic orbitals:       399
      Number of basis functions:       375

      Number of irreps:                  1
      Number of functions per irrep: [ 375 ]

      Overlap, kinetic, potential, dipole, and quadrupole integrals
        stored in file 35.

  ==> Integral Setup <==

  ==> DFJK: Density-Fitted J/K Matrices <==

    J tasked:                  Yes
    K tasked:                  Yes
    wK tasked:                  No
    OpenMP threads:              4
    Integrals threads:           4
    Memory (MB):              2145
    Algorithm:                Core
    Integral Cache:           SAVE
    Schwarz Cutoff:          0E+00
    Fitting Condition:       1E-12

   => Auxiliary Basis Set <=

  Basis Set: aug-cc-pvdz-jkfit
    Number of shells: 468
    Number of basis function: 1384
    Number of Cartesian functions: 1597
    Spherical Harmonics?: true
    Max angular momentum: 3

  Minimum eigenvalue in the overlap matrix is 2.1397275726E-06.
  Using Symmetric Orthogonalization.
  SCF Guess: Core (One-Electron) Hamiltonian.

  Guess energy:  -378.64973619776231

  ==> Iterations <==

                        Total Energy        Delta E     RMS |[F,P]|

   @RHF iter   1:  -388.47481017917937   -3.88475e+02   2.37139e-02 
   @RHF iter   2:  -272.61053310198770    1.15864e+02   2.74526e-02 DIIS
   @RHF iter   3:  -378.08658757529440   -1.05476e+02   2.47795e-02 DIIS
   @RHF iter   4:  -402.62271292210892   -2.45361e+01   2.00856e-02 DIIS
   @RHF iter   5:  -402.40733111620386    2.15382e-01   2.10652e-02 DIIS
   @RHF iter   6:  -469.13703371914505   -6.67297e+01   7.53250e-03 DIIS
   @RHF iter   7:  -477.00911190109184   -7.87208e+00   2.14684e-03 DIIS
   @RHF iter   8:  -477.34954272500579   -3.40431e-01   1.06228e-03 DIIS
   @RHF iter   9:  -477.43496911222303   -8.54264e-02   2.06042e-04 DIIS
   @RHF iter  10:  -477.43979489955007   -4.82579e-03   1.07354e-04 DIIS
   @RHF iter  11:  -477.44107783391780   -1.28293e-03   5.04250e-05 DIIS
   @RHF iter  12:  -477.44156739306629   -4.89559e-04   2.20192e-05 DIIS
   @RHF iter  13:  -477.44165562021897   -8.82272e-05   8.58953e-06 DIIS
   @RHF iter  14:  -477.44167947523999   -2.38550e-05   4.26646e-06 DIIS
   @RHF iter  15:  -477.44168465837686   -5.18314e-06   2.18714e-06 DIIS
   @RHF iter  16:  -477.44168592805215   -1.26968e-06   7.07231e-07 DIIS
   @RHF iter  17:  -477.44168606469464   -1.36642e-07   1.93872e-07 DIIS
   @RHF iter  18:  -477.44168607191943   -7.22480e-09   6.65640e-08 DIIS
   @RHF iter  19:  -477.44168607265385   -7.34417e-10   2.21957e-08 DIIS
   @RHF iter  20:  -477.44168607277322   -1.19371e-10   7.94784e-09 DIIS

  ==> Post-Iterations <==

	Orbital Energies (a.u.)
	-----------------------

	Doubly Occupied:                                                      

	   1A    -15.567653     2A    -11.274821     3A    -11.274624  
	   4A    -11.258665     5A    -11.240659     6A    -11.240177  
	   7A    -11.239538     8A    -11.239158     9A    -11.238704  
	  10A    -11.238135    11A    -11.237392    12A    -11.236396  
	  13A     -1.253103    14A     -1.151096    15A     -1.085131  
	  16A     -1.029322    17A     -1.015088    18A     -1.015046  
	  19A     -0.854110    20A     -0.850866    21A     -0.823869  
	  22A     -0.823605    23A     -0.716353    24A     -0.708079  
	  25A     -0.654041    26A     -0.648180    27A     -0.643005  
	  28A     -0.617301    29A     -0.592004    30A     -0.586739  
	  31A     -0.586371    32A     -0.570351    33A     -0.545235  
	  34A     -0.512920    35A     -0.492808    36A     -0.492384  
	  37A     -0.490756    38A     -0.413004    39A     -0.380744  
	  40A     -0.347526    41A     -0.332761    42A     -0.322347  

	Virtual:                                                              

	  43A      0.031389    44A      0.037350    45A      0.041440  
	  46A      0.048791    47A      0.052206    48A      0.054616  
	  49A      0.058462    50A      0.060900    51A      0.073109  
	  52A      0.076458    53A      0.076989    54A      0.098754  
	  55A      0.104047    56A      0.109127    57A      0.111673  
	  58A      0.120390    59A      0.126067    60A      0.130588  
	  61A      0.134832    62A      0.136645    63A      0.139535  
	  64A      0.144627    65A      0.146374    66A      0.148078  
	  67A      0.150613    68A      0.152774    69A      0.155931  
	  70A      0.161681    71A      0.165583    72A      0.172170  
	  73A      0.172464    74A      0.177485    75A      0.180300  
	  76A      0.184763    77A      0.185667    78A      0.186344  
	  79A      0.192820    80A      0.194804    81A      0.198094  
	  82A      0.201683    83A      0.208290    84A      0.209430  
	  85A      0.217687    86A      0.220451    87A      0.225467  
	  88A      0.232053    89A      0.236787    90A      0.261804  
	  91A      0.277241    92A      0.281075    93A      0.291892  
	  94A      0.299564    95A      0.305831    96A      0.309899  
	  97A      0.313477    98A      0.318015    99A      0.326746  
	 100A      0.332750   101A      0.335583   102A      0.336133  
	 103A      0.342294   104A      0.346043   105A      0.349152  
	 106A      0.359069   107A      0.364164   108A      0.367194  
	 109A      0.374671   110A      0.380085   111A      0.382367  
	 112A      0.388442   113A      0.393830   114A      0.397229  
	 115A      0.411655   116A      0.417294   117A      0.421328  
	 118A      0.424622   119A      0.427242   120A      0.430354  
	 121A      0.437788   122A      0.443335   123A      0.445076  
	 124A      0.447478   125A      0.448495   126A      0.461560  
	 127A      0.464283   128A      0.468566   129A      0.483459  
	 130A      0.488257   131A      0.499401   132A      0.508043  
	 133A      0.512377   134A      0.520477   135A      0.535187  
	 136A      0.543882   137A      0.545912   138A      0.552779  
	 139A      0.553184   140A      0.564227   141A      0.569946  
	 142A      0.588454   143A      0.591822   144A      0.596894  
	 145A      0.602043   146A      0.606930   147A      0.612023  
	 148A      0.617607   149A      0.621903   150A      0.623016  
	 151A      0.628645   152A      0.637511   153A      0.638639  
	 154A      0.641588   155A      0.644967   156A      0.662046  
	 157A      0.664723   158A      0.668110   159A      0.682625  
	 160A      0.685534   161A      0.692712   162A      0.697270  
	 163A      0.701190   164A      0.706767   165A      0.716537  
	 166A      0.721824   167A      0.730052   168A      0.731614  
	 169A      0.734084   170A      0.739538   171A      0.741450  
	 172A      0.753440   173A      0.759596   174A      0.765216  
	 175A      0.774113   176A      0.778232   177A      0.786989  
	 178A      0.787406   179A      0.802041   180A      0.807850  
	 181A      0.815905   182A      0.821243   183A      0.825739  
	 184A      0.833681   185A      0.843857   186A      0.851090  
	 187A      0.855623   188A      0.860439   189A      0.863638  
	 190A      0.866140   191A      0.873188   192A      0.883399  
	 193A      0.889305   194A      0.898389   195A      0.902877  
	 196A      0.911410   197A      0.923699   198A      0.935738  
	 199A      0.942952   200A      0.952441   201A      0.954283  
	 202A      0.974302   203A      0.975960   204A      0.985994  
	 205A      0.988567   206A      0.991572   207A      0.999782  
	 208A      1.008627   209A      1.015591   210A      1.022810  
	 211A      1.027684   212A      1.038447   213A      1.042337  
	 214A      1.048452   215A      1.058835   216A      1.071461  
	 217A      1.081032   218A      1.092088   219A      1.103244  
	 220A      1.113382   221A      1.132408   222A      1.135315  
	 223A      1.149695   224A      1.157614   225A      1.172982  
	 226A      1.182946   227A      1.202427   228A      1.217676  
	 229A      1.227794   230A      1.230902   231A      1.261017  
	 232A      1.286637   233A      1.294185   234A      1.344149  
	 235A      1.359800   236A      1.362161   237A      1.388594  
	 238A      1.403283   239A      1.408786   240A      1.437883  
	 241A      1.455636   242A      1.480412   243A      1.500699  
	 244A      1.522781   245A      1.531646   246A      1.544959  
	 247A      1.555156   248A      1.569991   249A      1.579002  
	 250A      1.595049   251A      1.601037   252A      1.609383  
	 253A      1.614593   254A      1.619569   255A      1.626064  
	 256A      1.639176   257A      1.654916   258A      1.665231  
	 259A      1.675846   260A      1.680368   261A      1.693830  
	 262A      1.704003   263A      1.710371   264A      1.724132  
	 265A      1.728642   266A      1.735810   267A      1.742903  
	 268A      1.748470   269A      1.757559   270A      1.770814  
	 271A      1.773666   272A      1.777213   273A      1.790541  
	 274A      1.802177   275A      1.814409   276A      1.824505  
	 277A      1.842034   278A      1.870764   279A      1.881715  
	 280A      1.890115   281A      1.902273   282A      1.922203  
	 283A      1.938743   284A      1.944117   285A      1.947371  
	 286A      1.959221   287A      1.970935   288A      1.978784  
	 289A      1.994821   290A      1.997332   291A      2.015939  
	 292A      2.023058   293A      2.029312   294A      2.038204  
	 295A      2.050246   296A      2.059256   297A      2.067398  
	 298A      2.074369   299A      2.108391   300A      2.116311  
	 301A      2.121768   302A      2.136487   303A      2.156270  
	 304A      2.157480   305A      2.177365   306A      2.184435  
	 307A      2.194738   308A      2.209042   309A      2.215782  
	 310A      2.223364   311A      2.228580   312A      2.241106  
	 313A      2.250216   314A      2.262574   315A      2.279706  
	 316A      2.287645   317A      2.300342   318A      2.308092  
	 319A      2.311685   320A      2.319767   321A      2.329965  
	 322A      2.349966   323A      2.352229   324A      2.359853  
	 325A      2.405969   326A      2.413504   327A      2.417783  
	 328A      2.429019   329A      2.436248   330A      2.442866  
	 331A      2.474707   332A      2.493703   333A      2.497594  
	 334A      2.520664   335A      2.579988   336A      2.600689  
	 337A      2.637057   338A      2.666733   339A      2.696502  
	 340A      2.732751   341A      2.768448   342A      2.801758  
	 343A      2.821417   344A      2.825078   345A      2.832439  
	 346A      2.858025   347A      2.874376   348A      2.899708  
	 349A      2.908394   350A      2.921603   351A      2.949457  
	 352A      2.989479   353A      3.002789   354A      3.010588  
	 355A      3.028330   356A      3.035022   357A      3.081155  
	 358A      3.149040   359A      3.157916   360A      3.177997  
	 361A      3.196961   362A      3.212609   363A      3.241496  
	 364A      3.256819   365A      3.307802   366A      3.392920  
	 367A      3.439668   368A      3.506307   369A      3.617877  
	 370A      3.649607   371A      3.718520   372A      3.739936  
	 373A      3.917783   374A      4.386778   375A      4.938123  

	Final Occupation by Irrep:
	          A 
	DOCC [    42 ]

  Energy converged.

  @RHF Final Energy:  -477.44168607277322

   => Energetics <=

    Nuclear Repulsion Energy =            644.5676589571688737
    One-Electron Energy =               -1924.3385696678258228
    Two-Electron Energy =                 802.3292246378832715
    DFT Exchange-Correlation Energy =       0.0000000000000000
    Empirical Dispersion Energy =           0.0000000000000000
    Total Energy =                       -477.4416860727737912



Properties will be evaluated at   0.000000,   0.000000,   0.000000 Bohr
  ==> Properties <==


Properties computed using the SCF density density matrix
  Nuclear Dipole Moment: (a.u.)
     X:     2.6719      Y:    -0.0801      Z:    -1.5672

  Electronic Dipole Moment: (a.u.)
     X:    -1.8011      Y:     0.1276      Z:     1.5576

  Dipole Moment: (a.u.)
     X:     0.8708      Y:     0.0475      Z:    -0.0097     Total:     0.8721

  Dipole Moment: (Debye)
     X:     2.2133      Y:     0.1208      Z:    -0.0245     Total:     2.2167


  Saving occupied orbitals to File 180.

  Saving SAPT 2-DIMER file.

*** tstop() called on node64.bme.utexas.edu at Wed Sep 18 17:20:21 2013
Module time:
	user time   =     416.07 seconds =       6.93 minutes
	system time =       3.65 seconds =       0.06 minutes
	total time  =        113 seconds =       1.88 minutes
Total time:
	user time   =     416.07 seconds =       6.93 minutes
	system time =       3.65 seconds =       0.06 minutes
	total time  =        113 seconds =       1.88 minutes

  //>>>>>>>>>>>>>>>>>>>>>>>>>>>>>>>>>>>//
  //            Monomer A HF           //
  //<<<<<<<<<<<<<<<<<<<<<<<<<<<<<<<<<<<//


  No DF_BASIS_SCF auxiliary basis selected, defaulting to aug-cc-pvdz-jkfit


*** tstart() called on node64.bme.utexas.edu
*** at Wed Sep 18 17:20:21 2013


         ---------------------------------------------------------
                                   SCF
            by Justin Turney, Rob Parrish, and Andy Simmonett
                              RHF Reference
                        4 Threads,   3000 MiB Core
         ---------------------------------------------------------

  ==> Geometry <==

    Molecular point group: c1
    Full point group: C1

    Geometry (in Angstrom), charge = 0, multiplicity = 1:

       Center              X                  Y                   Z       
    ------------   -----------------  -----------------  -----------------
           C          1.296656419182     0.871100169322    -1.479722964082
           H          1.944023042182     1.723595496322    -1.323287673082
           C          1.846906550182    -0.383596111678    -1.734707262082
           H          2.920945798182    -0.504934110678    -1.778583519082
           C          1.012288033182    -1.481565366678    -1.939897117082
           H          1.438757683182    -2.454636387678    -2.143516571082
           C         -0.371206181818    -1.323579515678    -1.887905514082
           H         -1.019159992818    -2.174932455678    -2.047562291082
           C         -0.921576024818    -0.069102372678    -1.627574915082
           H         -1.994777237818     0.051835607322    -1.574627023082
           C         -0.087382871818     1.028331189322    -1.425729872082
           H         -0.514647241818     2.000589137322    -1.221750912082
           N(Gh)     -1.846804028818     0.132984542322     1.584247933918
           C(Gh)     -1.231918097818     1.290652352322     1.864312123918
           H(Gh)     -1.879522154818     2.143823805322     2.026824216918
           C(Gh)      0.150296800182     1.431500088322     1.954482939918
           H(Gh)      0.582145558182     2.395150203322     2.185699236918
           C(Gh)      0.951248191182     0.314520784322     1.740269028918
           H(Gh)      2.028817359182     0.384905062322     1.795103538918
           C(Gh)      0.330696288182    -0.894134253678     1.446609451918
           H(Gh)      0.906470798182    -1.789756136678     1.262534514918
           C(Gh)     -1.059817988818    -0.932172136678     1.381160033918
           H(Gh)     -1.568670913818    -1.860625514678     1.152317359918

  Running in c1 symmetry.

  Nuclear repulsion =  203.684223815232997

  Charge       = 0
  Multiplicity = 1
  Electrons    = 42
  Nalpha       = 21
  Nbeta        = 21

  ==> Algorithm <==

  SCF Algorithm Type is DF.
  DIIS enabled.
  MOM disabled.
  Fractional occupation disabled.
  Guess Type is CORE.
  Energy threshold   = 1.00e-08
  Density threshold  = 1.00e-08
  Integral threshold = 0.00e+00

  ==> Primary Basis <==

  Basis Set: AUG-CC-PVDZ
    Number of shells: 163
    Number of basis function: 375
    Number of Cartesian functions: 399
    Spherical Harmonics?: true
    Max angular momentum: 2

  ==> Pre-Iterations <==

   -------------------------------------------------------
    Irrep   Nso     Nmo     Nalpha   Nbeta   Ndocc  Nsocc
   -------------------------------------------------------
     A        375     375       0       0       0       0
   -------------------------------------------------------
    Total     375     375      21      21      21       0
   -------------------------------------------------------

 OEINTS: Wrapper to libmints.
   by Justin Turney

   Calculation information:
      Number of atoms:                  23
      Number of AO shells:             163
      Number of SO shells:             163
      Number of primitives:            377
      Number of atomic orbitals:       399
      Number of basis functions:       375

      Number of irreps:                  1
      Number of functions per irrep: [ 375 ]

      Overlap, kinetic, potential, dipole, and quadrupole integrals
        stored in file 35.

  ==> Integral Setup <==

  ==> DFJK: Density-Fitted J/K Matrices <==

    J tasked:                  Yes
    K tasked:                  Yes
    wK tasked:                  No
    OpenMP threads:              4
    Integrals threads:           4
    Memory (MB):              2145
    Algorithm:                Core
    Integral Cache:           LOAD
    Schwarz Cutoff:          0E+00
    Fitting Condition:       1E-12

   => Auxiliary Basis Set <=

  Basis Set: aug-cc-pvdz-jkfit
    Number of shells: 468
    Number of basis function: 1384
    Number of Cartesian functions: 1597
    Spherical Harmonics?: true
    Max angular momentum: 3

  Minimum eigenvalue in the overlap matrix is 2.1397275728E-06.
  Using Symmetric Orthogonalization.
  SCF Guess: Core (One-Electron) Hamiltonian.

  Guess energy:  -178.78959090644395

  ==> Iterations <==

                        Total Energy        Delta E     RMS |[F,P]|

   @RHF iter   1:  -193.43055101341230   -1.93431e+02   1.49990e-02 
   @RHF iter   2:  -172.44156342589423    2.09890e+01   1.23062e-02 DIIS
   @RHF iter   3:  -228.37802075056453   -5.59365e+01   5.02130e-03 DIIS
   @RHF iter   4:  -230.18930270530632   -1.81128e+00   2.41358e-03 DIIS
   @RHF iter   5:  -230.69459461145232   -5.05292e-01   5.79298e-04 DIIS
   @RHF iter   6:  -230.72389801244390   -2.93034e-02   2.39302e-04 DIIS
   @RHF iter   7:  -230.72909844503783   -5.20043e-03   3.17891e-05 DIIS
   @RHF iter   8:  -230.72924151148811   -1.43066e-04   7.45151e-06 DIIS
   @RHF iter   9:  -230.72924695640421   -5.44492e-06   2.76714e-06 DIIS
   @RHF iter  10:  -230.72924768699124   -7.30587e-07   7.59570e-07 DIIS
   @RHF iter  11:  -230.72924777067294   -8.36817e-08   1.75488e-07 DIIS
   @RHF iter  12:  -230.72924777821015   -7.53721e-09   9.57833e-08 DIIS
   @RHF iter  13:  -230.72924778129931   -3.08916e-09   4.64884e-08 DIIS
   @RHF iter  14:  -230.72924778222267   -9.23364e-10   8.79804e-09 DIIS

  ==> Post-Iterations <==

	Orbital Energies (a.u.)
	-----------------------

	Doubly Occupied:                                                      

	   1A    -11.242293     2A    -11.241751     3A    -11.241715  
	   4A    -11.240535     5A    -11.240495     6A    -11.239920  
	   7A     -1.152896     8A     -1.017143     9A     -1.016944  
	  10A     -0.825609    11A     -0.825526    12A     -0.710211  
	  13A     -0.644634    14A     -0.619519    15A     -0.588477  
	  16A     -0.588200    17A     -0.501831    18A     -0.494687  
	  19A     -0.494287    20A     -0.336318    21A     -0.336220  

	Virtual:                                                              

	  22A      0.026795    23A      0.037357    24A      0.038041  
	  25A      0.045689    26A      0.051811    27A      0.053286  
	  28A      0.058084    29A      0.059365    30A      0.072551  
	  31A      0.076151    32A      0.078059    33A      0.092534  
	  34A      0.102231    35A      0.105949    36A      0.111983  
	  37A      0.116366    38A      0.120020    39A      0.122695  
	  40A      0.132111    41A      0.133052    42A      0.137113  
	  43A      0.140073    44A      0.145291    45A      0.148165  
	  46A      0.150101    47A      0.152658    48A      0.157118  
	  49A      0.167072    50A      0.168559    51A      0.173155  
	  52A      0.174976    53A      0.181221    54A      0.183710  
	  55A      0.185486    56A      0.188075    57A      0.188857  
	  58A      0.194449    59A      0.196728    60A      0.207778  
	  61A      0.210398    62A      0.214272    63A      0.218216  
	  64A      0.222210    65A      0.225793    66A      0.229698  
	  67A      0.235802    68A      0.239999    69A      0.247190  
	  70A      0.247854    71A      0.267129    72A      0.274880  
	  73A      0.282648    74A      0.293406    75A      0.296378  
	  76A      0.303631    77A      0.312009    78A      0.322622  
	  79A      0.328348    80A      0.331698    81A      0.336869  
	  82A      0.340295    83A      0.346814    84A      0.361217  
	  85A      0.366036    86A      0.371433    87A      0.374985  
	  88A      0.379407    89A      0.385833    90A      0.398361  
	  91A      0.401841    92A      0.413934    93A      0.421869  
	  94A      0.426886    95A      0.430086    96A      0.432064  
	  97A      0.438088    98A      0.439470    99A      0.446638  
	 100A      0.448588   101A      0.456115   102A      0.460088  
	 103A      0.468878   104A      0.474371   105A      0.484969  
	 106A      0.487449   107A      0.496161   108A      0.503901  
	 109A      0.507259   110A      0.519567   111A      0.523934  
	 112A      0.531242   113A      0.535565   114A      0.539652  
	 115A      0.551065   116A      0.557361   117A      0.565884  
	 118A      0.567477   119A      0.569912   120A      0.575909  
	 121A      0.584179   122A      0.591929   123A      0.596301  
	 124A      0.603250   125A      0.605708   126A      0.614053  
	 127A      0.618434   128A      0.625350   129A      0.633818  
	 130A      0.639631   131A      0.643744   132A      0.653283  
	 133A      0.654301   134A      0.662026   135A      0.666275  
	 136A      0.677188   137A      0.684340   138A      0.696543  
	 139A      0.702050   140A      0.707106   141A      0.709693  
	 142A      0.714823   143A      0.716903   144A      0.726847  
	 145A      0.738707   146A      0.744431   147A      0.753680  
	 148A      0.763166   149A      0.765279   150A      0.779548  
	 151A      0.788058   152A      0.793374   153A      0.796848  
	 154A      0.807307   155A      0.813583   156A      0.817980  
	 157A      0.833237   158A      0.837441   159A      0.839321  
	 160A      0.846538   161A      0.856680   162A      0.859979  
	 163A      0.864721   164A      0.868662   165A      0.872900  
	 166A      0.885657   167A      0.890464   168A      0.896369  
	 169A      0.897016   170A      0.908097   171A      0.912096  
	 172A      0.918618   173A      0.921825   174A      0.927919  
	 175A      0.937061   176A      0.940604   177A      0.958508  
	 178A      0.971333   179A      0.973506   180A      0.985064  
	 181A      0.987582   182A      0.999533   183A      1.006793  
	 184A      1.012334   185A      1.021430   186A      1.030836  
	 187A      1.034757   188A      1.046121   189A      1.052641  
	 190A      1.064507   191A      1.079990   192A      1.092951  
	 193A      1.098492   194A      1.105783   195A      1.110508  
	 196A      1.120302   197A      1.128020   198A      1.139897  
	 199A      1.143882   200A      1.150260   201A      1.165867  
	 202A      1.184909   203A      1.187766   204A      1.189072  
	 205A      1.202608   206A      1.211557   207A      1.225672  
	 208A      1.235941   209A      1.244361   210A      1.303548  
	 211A      1.328551   212A      1.336296   213A      1.359660  
	 214A      1.361591   215A      1.377792   216A      1.394380  
	 217A      1.402205   218A      1.421795   219A      1.432763  
	 220A      1.458249   221A      1.480291   222A      1.509420  
	 223A      1.524436   224A      1.530812   225A      1.556816  
	 226A      1.575338   227A      1.577404   228A      1.586306  
	 229A      1.596665   230A      1.603168   231A      1.606883  
	 232A      1.617486   233A      1.650445   234A      1.664196  
	 235A      1.669471   236A      1.684329   237A      1.687798  
	 238A      1.703231   239A      1.706604   240A      1.732148  
	 241A      1.759449   242A      1.772275   243A      1.784067  
	 244A      1.803985   245A      1.826565   246A      1.850126  
	 247A      1.866315   248A      1.918475   249A      1.937168  
	 250A      1.944911   251A      1.949624   252A      1.972319  
	 253A      1.984311   254A      1.989682   255A      1.999102  
	 256A      2.009804   257A      2.024965   258A      2.063724  
	 259A      2.112633   260A      2.128211   261A      2.143163  
	 262A      2.159003   263A      2.175895   264A      2.179041  
	 265A      2.191060   266A      2.195261   267A      2.205219  
	 268A      2.222575   269A      2.227714   270A      2.240060  
	 271A      2.250560   272A      2.260163   273A      2.270236  
	 274A      2.279452   275A      2.286433   276A      2.296188  
	 277A      2.313947   278A      2.332847   279A      2.336166  
	 280A      2.354759   281A      2.364088   282A      2.379882  
	 283A      2.401826   284A      2.409701   285A      2.413158  
	 286A      2.423460   287A      2.427356   288A      2.438471  
	 289A      2.447405   290A      2.465419   291A      2.475613  
	 292A      2.500554   293A      2.520070   294A      2.527029  
	 295A      2.554274   296A      2.581973   297A      2.588576  
	 298A      2.611106   299A      2.625305   300A      2.635196  
	 301A      2.638459   302A      2.647545   303A      2.679789  
	 304A      2.692471   305A      2.712791   306A      2.728681  
	 307A      2.756913   308A      2.761717   309A      2.769553  
	 310A      2.787650   311A      2.821003   312A      2.829817  
	 313A      2.854684   314A      2.873989   315A      2.898228  
	 316A      2.907213   317A      2.926822   318A      2.946511  
	 319A      2.952316   320A      2.994794   321A      3.003290  
	 322A      3.017839   323A      3.024842   324A      3.050793  
	 325A      3.091048   326A      3.111555   327A      3.175218  
	 328A      3.185821   329A      3.194849   330A      3.213237  
	 331A      3.229157   332A      3.273729   333A      3.300428  
	 334A      3.317273   335A      3.390550   336A      3.413510  
	 337A      3.453565   338A      3.493416   339A      3.518491  
	 340A      3.547677   341A      3.580692   342A      3.613872  
	 343A      3.633034   344A      3.646916   345A      3.673241  
	 346A      3.696219   347A      3.714990   348A      3.910344  
	 349A      3.938594   350A      3.969202   351A      4.005310  
	 352A      4.073143   353A      4.144900   354A      4.226567  
	 355A      4.492797   356A      4.560355   357A      4.677381  
	 358A      4.704027   359A      4.902562   360A      4.990229  
	 361A      5.039348   362A      5.253611   363A      5.435757  
	 364A      5.508617   365A      5.579202   366A      5.624165  
	 367A      5.673872   368A      5.846059   369A      6.180285  
	 370A     18.088318   371A     18.396483   372A     18.767446  
	 373A     19.108103   374A     19.995354   375A     25.343560  

	Final Occupation by Irrep:
	          A 
	DOCC [    21 ]

  Energy converged.

  @RHF Final Energy:  -230.72924778222267

   => Energetics <=

    Nuclear Repulsion Energy =            203.6842238152329969
    One-Electron Energy =                -713.6285219918275970
    Two-Electron Energy =                 279.2150503943739750
    DFT Exchange-Correlation Energy =       0.0000000000000000
    Empirical Dispersion Energy =           0.0000000000000000
    Total Energy =                       -230.7292477822206251



Properties will be evaluated at   0.000000,   0.000000,   0.000000 Bohr
  ==> Properties <==


Properties computed using the SCF density density matrix
  Nuclear Dipole Moment: (a.u.)
     X:    36.7160      Y:   -17.9693      Z:  -133.5329

  Electronic Dipole Moment: (a.u.)
     X:   -36.7164      Y:    17.9695      Z:   133.5347

  Dipole Moment: (a.u.)
     X:    -0.0004      Y:     0.0002      Z:     0.0018     Total:     0.0019

  Dipole Moment: (Debye)
     X:    -0.0011      Y:     0.0005      Z:     0.0046     Total:     0.0048


  Saving occupied orbitals to File 180.

  Saving SAPT 2-MONOMER_A file.

*** tstop() called on node64.bme.utexas.edu at Wed Sep 18 17:21:18 2013
Module time:
	user time   =     215.81 seconds =       3.60 minutes
	system time =       1.81 seconds =       0.03 minutes
	total time  =         57 seconds =       0.95 minutes
Total time:
	user time   =     631.90 seconds =      10.53 minutes
	system time =       5.46 seconds =       0.09 minutes
	total time  =        170 seconds =       2.83 minutes

  //>>>>>>>>>>>>>>>>>>>>>>>>>>>>>>>>>>>//
  //            Monomer B HF           //
  //<<<<<<<<<<<<<<<<<<<<<<<<<<<<<<<<<<<//


  No DF_BASIS_SCF auxiliary basis selected, defaulting to aug-cc-pvdz-jkfit


*** tstart() called on node64.bme.utexas.edu
*** at Wed Sep 18 17:21:18 2013


         ---------------------------------------------------------
                                   SCF
            by Justin Turney, Rob Parrish, and Andy Simmonett
                              RHF Reference
                        4 Threads,   3000 MiB Core
         ---------------------------------------------------------

  ==> Geometry <==

    Molecular point group: c1
    Full point group: C1

    Geometry (in Angstrom), charge = 0, multiplicity = 1:

       Center              X                  Y                   Z       
    ------------   -----------------  -----------------  -----------------
           C(Gh)      1.296656419182     0.871100169322    -1.479722964082
           H(Gh)      1.944023042182     1.723595496322    -1.323287673082
           C(Gh)      1.846906550182    -0.383596111678    -1.734707262082
           H(Gh)      2.920945798182    -0.504934110678    -1.778583519082
           C(Gh)      1.012288033182    -1.481565366678    -1.939897117082
           H(Gh)      1.438757683182    -2.454636387678    -2.143516571082
           C(Gh)     -0.371206181818    -1.323579515678    -1.887905514082
           H(Gh)     -1.019159992818    -2.174932455678    -2.047562291082
           C(Gh)     -0.921576024818    -0.069102372678    -1.627574915082
           H(Gh)     -1.994777237818     0.051835607322    -1.574627023082
           C(Gh)     -0.087382871818     1.028331189322    -1.425729872082
           H(Gh)     -0.514647241818     2.000589137322    -1.221750912082
           N         -1.846804028818     0.132984542322     1.584247933918
           C         -1.231918097818     1.290652352322     1.864312123918
           H         -1.879522154818     2.143823805322     2.026824216918
           C          0.150296800182     1.431500088322     1.954482939918
           H          0.582145558182     2.395150203322     2.185699236918
           C          0.951248191182     0.314520784322     1.740269028918
           H          2.028817359182     0.384905062322     1.795103538918
           C          0.330696288182    -0.894134253678     1.446609451918
           H          0.906470798182    -1.789756136678     1.262534514918
           C         -1.059817988818    -0.932172136678     1.381160033918
           H         -1.568670913818    -1.860625514678     1.152317359918

  Running in c1 symmetry.

  Nuclear repulsion =  206.259557450795484

  Charge       = 0
  Multiplicity = 1
  Electrons    = 42
  Nalpha       = 21
  Nbeta        = 21

  ==> Algorithm <==

  SCF Algorithm Type is DF.
  DIIS enabled.
  MOM disabled.
  Fractional occupation disabled.
  Guess Type is CORE.
  Energy threshold   = 1.00e-08
  Density threshold  = 1.00e-08
  Integral threshold = 0.00e+00

  ==> Primary Basis <==

  Basis Set: AUG-CC-PVDZ
    Number of shells: 163
    Number of basis function: 375
    Number of Cartesian functions: 399
    Spherical Harmonics?: true
    Max angular momentum: 2

  ==> Pre-Iterations <==

   -------------------------------------------------------
    Irrep   Nso     Nmo     Nalpha   Nbeta   Ndocc  Nsocc
   -------------------------------------------------------
     A        375     375       0       0       0       0
   -------------------------------------------------------
    Total     375     375      21      21      21       0
   -------------------------------------------------------

 OEINTS: Wrapper to libmints.
   by Justin Turney

   Calculation information:
      Number of atoms:                  23
      Number of AO shells:             163
      Number of SO shells:             163
      Number of primitives:            377
      Number of atomic orbitals:       399
      Number of basis functions:       375

      Number of irreps:                  1
      Number of functions per irrep: [ 375 ]

      Overlap, kinetic, potential, dipole, and quadrupole integrals
        stored in file 35.

  ==> Integral Setup <==

  ==> DFJK: Density-Fitted J/K Matrices <==

    J tasked:                  Yes
    K tasked:                  Yes
    wK tasked:                  No
    OpenMP threads:              4
    Integrals threads:           4
    Memory (MB):              2145
    Algorithm:                Core
    Integral Cache:           LOAD
    Schwarz Cutoff:          0E+00
    Fitting Condition:       1E-12

   => Auxiliary Basis Set <=

  Basis Set: aug-cc-pvdz-jkfit
    Number of shells: 468
    Number of basis function: 1384
    Number of Cartesian functions: 1597
    Spherical Harmonics?: true
    Max angular momentum: 3

  Minimum eigenvalue in the overlap matrix is 2.1397275728E-06.
  Using Symmetric Orthogonalization.
  SCF Guess: Core (One-Electron) Hamiltonian.

  Guess energy:  -190.91023302905759

  ==> Iterations <==

                        Total Energy        Delta E     RMS |[F,P]|

   @RHF iter   1:  -206.18151215763007   -2.06182e+02   1.61587e-02 
   @RHF iter   2:  -179.57350867578472    2.66080e+01   1.50437e-02 DIIS
   @RHF iter   3:  -236.66235448060237   -5.70888e+01   8.73633e-03 DIIS
   @RHF iter   4:  -244.51713560443508   -7.85478e+00   5.47513e-03 DIIS
   @RHF iter   5:  -246.28897475257705   -1.77184e+00   2.22869e-03 DIIS
   @RHF iter   6:  -246.65974299415299   -3.70768e-01   7.61477e-04 DIIS
   @RHF iter   7:  -246.71262887987436   -5.28859e-02   3.39158e-04 DIIS
   @RHF iter   8:  -246.72449880730218   -1.18699e-02   4.50713e-05 DIIS
   @RHF iter   9:  -246.72486404170920   -3.65234e-04   1.68215e-05 DIIS
   @RHF iter  10:  -246.72490668408867   -4.26424e-05   7.42443e-06 DIIS
   @RHF iter  11:  -246.72491249118636   -5.80710e-06   3.14309e-06 DIIS
   @RHF iter  12:  -246.72491427160693   -1.78042e-06   9.16770e-07 DIIS
   @RHF iter  13:  -246.72491444847478   -1.76868e-07   5.47853e-07 DIIS
   @RHF iter  14:  -246.72491451787411   -6.93993e-08   2.25348e-07 DIIS
   @RHF iter  15:  -246.72491453785253   -1.99784e-08   4.67334e-08 DIIS
   @RHF iter  16:  -246.72491453856875   -7.16227e-10   1.18643e-08 DIIS
   @RHF iter  17:  -246.72491453859217   -2.34195e-11   2.70962e-09 DIIS

  ==> Post-Iterations <==

	Orbital Energies (a.u.)
	-----------------------

	Doubly Occupied:                                                      

	   1A    -15.575808     2A    -11.281900     3A    -11.281879  
	   4A    -11.266771     5A    -11.248788     6A    -11.248699  
	   7A     -1.260214     8A     -1.092986     9A     -1.036327  
	  10A     -0.861354    11A     -0.857942    12A     -0.722838  
	  13A     -0.661604    14A     -0.655041    15A     -0.598752  
	  16A     -0.577692    17A     -0.541152    18A     -0.519909  
	  19A     -0.419627    20A     -0.383894    21A     -0.347722  

	Virtual:                                                              

	  22A      0.023566    23A      0.034648    24A      0.038791  
	  25A      0.043395    26A      0.051950    27A      0.053933  
	  28A      0.056859    29A      0.059174    30A      0.073425  
	  31A      0.076931    32A      0.078065    33A      0.090037  
	  34A      0.092543    35A      0.102392    36A      0.108216  
	  37A      0.114450    38A      0.116431    39A      0.119262  
	  40A      0.125315    41A      0.131217    42A      0.134064  
	  43A      0.139939    44A      0.143980    45A      0.146062  
	  46A      0.147171    47A      0.152970    48A      0.157890  
	  49A      0.162799    50A      0.169356    51A      0.171470  
	  52A      0.174644    53A      0.179222    54A      0.181363  
	  55A      0.181932    56A      0.186324    57A      0.188755  
	  58A      0.191639    59A      0.194188    60A      0.205679  
	  61A      0.208208    62A      0.212381    63A      0.216591  
	  64A      0.223274    65A      0.224675    66A      0.226693  
	  67A      0.236288    68A      0.240121    69A      0.243247  
	  70A      0.246755    71A      0.269892    72A      0.287259  
	  73A      0.288856    74A      0.293695    75A      0.302442  
	  76A      0.309166    77A      0.311367    78A      0.317189  
	  79A      0.323106    80A      0.330836    81A      0.333881  
	  82A      0.341222    83A      0.345924    84A      0.352897  
	  85A      0.354133    86A      0.359863    87A      0.374635  
	  88A      0.382775    89A      0.385652    90A      0.396213  
	  91A      0.411593    92A      0.412910    93A      0.414280  
	  94A      0.421212    95A      0.423451    96A      0.430439  
	  97A      0.434905    98A      0.442187    99A      0.445262  
	 100A      0.454176   101A      0.455285   102A      0.460146  
	 103A      0.466576   104A      0.474031   105A      0.484097  
	 106A      0.488266   107A      0.491767   108A      0.498655  
	 109A      0.510105   110A      0.519946   111A      0.522764  
	 112A      0.525626   113A      0.535328   114A      0.538230  
	 115A      0.541203   116A      0.546285   117A      0.548966  
	 118A      0.552886   119A      0.557653   120A      0.567051  
	 121A      0.572459   122A      0.582109   123A      0.590711  
	 124A      0.598305   125A      0.605334   126A      0.615899  
	 127A      0.621831   128A      0.626333   129A      0.632208  
	 130A      0.635653   131A      0.638667   132A      0.641271  
	 133A      0.646975   134A      0.663918   135A      0.671401  
	 136A      0.681198   137A      0.691852   138A      0.700134  
	 139A      0.705106   140A      0.707573   141A      0.713916  
	 142A      0.715304   143A      0.727151   144A      0.732556  
	 145A      0.738264   146A      0.745477   147A      0.746140  
	 148A      0.758357   149A      0.763776   150A      0.772540  
	 151A      0.778258   152A      0.790424   153A      0.794537  
	 154A      0.802494   155A      0.812968   156A      0.816079  
	 157A      0.818082   158A      0.833703   159A      0.842080  
	 160A      0.848468   161A      0.851496   162A      0.859540  
	 163A      0.869133   164A      0.874895   165A      0.882552  
	 166A      0.883505   167A      0.891316   168A      0.892865  
	 169A      0.899498   170A      0.902997   171A      0.910135  
	 172A      0.916505   173A      0.919990   174A      0.922630  
	 175A      0.928337   176A      0.938007   177A      0.950988  
	 178A      0.957922   179A      0.978189   180A      0.981000  
	 181A      0.987078   182A      0.997511   183A      1.001482  
	 184A      1.013840   185A      1.024490   186A      1.030866  
	 187A      1.035661   188A      1.043091   189A      1.045339  
	 190A      1.056901   191A      1.060561   192A      1.066701  
	 193A      1.072178   194A      1.081454   195A      1.092393  
	 196A      1.102936   197A      1.120638   198A      1.124619  
	 199A      1.134907   200A      1.146601   201A      1.150555  
	 202A      1.164104   203A      1.174307   204A      1.187066  
	 205A      1.207875   206A      1.223880   207A      1.237757  
	 208A      1.250451   209A      1.256432   210A      1.271782  
	 211A      1.285019   212A      1.287713   213A      1.338715  
	 214A      1.353289   215A      1.372741   216A      1.399672  
	 217A      1.409184   218A      1.415500   219A      1.426073  
	 220A      1.434363   221A      1.459268   222A      1.494223  
	 223A      1.510648   224A      1.512887   225A      1.522316  
	 226A      1.525074   227A      1.588667   228A      1.597383  
	 229A      1.605209   230A      1.632348   231A      1.646982  
	 232A      1.656256   233A      1.670360   234A      1.678541  
	 235A      1.682029   236A      1.714245   237A      1.739131  
	 238A      1.747744   239A      1.769132   240A      1.783508  
	 241A      1.796317   242A      1.812955   243A      1.824445  
	 244A      1.854590   245A      1.863255   246A      1.883929  
	 247A      1.905057   248A      1.939195   249A      1.968046  
	 250A      1.970851   251A      1.980731   252A      1.986801  
	 253A      2.063115   254A      2.065387   255A      2.083845  
	 256A      2.109537   257A      2.123844   258A      2.140855  
	 259A      2.146802   260A      2.164754   261A      2.171623  
	 262A      2.177681   263A      2.187806   264A      2.203877  
	 265A      2.211277   266A      2.223950   267A      2.246220  
	 268A      2.249606   269A      2.261672   270A      2.271229  
	 271A      2.283535   272A      2.292455   273A      2.296351  
	 274A      2.305351   275A      2.315352   276A      2.322120  
	 277A      2.331642   278A      2.344573   279A      2.361989  
	 280A      2.378296   281A      2.397050   282A      2.411022  
	 283A      2.419797   284A      2.444761   285A      2.448864  
	 286A      2.455494   287A      2.475134   288A      2.491927  
	 289A      2.502901   290A      2.527435   291A      2.540277  
	 292A      2.544172   293A      2.552274   294A      2.568041  
	 295A      2.578383   296A      2.612509   297A      2.626459  
	 298A      2.630952   299A      2.647499   300A      2.663386  
	 301A      2.668841   302A      2.685207   303A      2.692286  
	 304A      2.698730   305A      2.704426   306A      2.723203  
	 307A      2.737578   308A      2.747180   309A      2.757827  
	 310A      2.770623   311A      2.788755   312A      2.811009  
	 313A      2.835635   314A      2.853420   315A      2.884616  
	 316A      2.893209   317A      2.902839   318A      2.904929  
	 319A      2.921075   320A      2.928197   321A      2.965236  
	 322A      2.975592   323A      2.979985   324A      3.005930  
	 325A      3.012814   326A      3.024820   327A      3.049929  
	 328A      3.094344   329A      3.147738   330A      3.176396  
	 331A      3.219893   332A      3.227843   333A      3.275323  
	 334A      3.278219   335A      3.304303   336A      3.344011  
	 337A      3.395854   338A      3.425557   339A      3.468116  
	 340A      3.476603   341A      3.502967   342A      3.512196  
	 343A      3.528197   344A      3.557067   345A      3.561030  
	 346A      3.572803   347A      3.636044   348A      3.689451  
	 349A      3.726257   350A      3.759810   351A      3.831557  
	 352A      4.019084   353A      4.021521   354A      4.098040  
	 355A      4.100732   356A      4.129535   357A      4.381905  
	 358A      4.413674   359A      4.429719   360A      4.692760  
	 361A      4.916585   362A      4.925850   363A      5.375239  
	 364A      5.465994   365A      5.467919   366A      5.486151  
	 367A      5.487094   368A      5.656942   369A      6.161972  
	 370A     18.009697   371A     18.429688   372A     18.431811  
	 373A     19.062089   374A     19.076838   375A     20.780627  

	Final Occupation by Irrep:
	          A 
	DOCC [    21 ]

  Energy converged.

  @RHF Final Energy:  -246.72491453859217

   => Energetics <=

    Nuclear Repulsion Energy =            206.2595574507954836
    One-Electron Energy =                -741.0871481998831314
    Two-Electron Energy =                 288.1026762104934278
    DFT Exchange-Correlation Energy =       0.0000000000000000
    Empirical Dispersion Energy =           0.0000000000000000
    Total Energy =                       -246.7249145385942484



Properties will be evaluated at   0.000000,   0.000000,   0.000000 Bohr
  ==> Properties <==


Properties computed using the SCF density density matrix
  Nuclear Dipole Moment: (a.u.)
     X:   -34.0441      Y:    17.8893      Z:   131.9657

  Electronic Dipole Moment: (a.u.)
     X:    34.9632      Y:   -17.8289      Z:  -131.9188

  Dipole Moment: (a.u.)
     X:     0.9191      Y:     0.0603      Z:     0.0469     Total:     0.9222

  Dipole Moment: (Debye)
     X:     2.3360      Y:     0.1534      Z:     0.1191     Total:     2.3441


  Saving occupied orbitals to File 180.

  Saving SAPT 2-MONOMER_B file.

*** tstop() called on node64.bme.utexas.edu at Wed Sep 18 17:22:27 2013
Module time:
	user time   =     262.12 seconds =       4.37 minutes
	system time =       1.92 seconds =       0.03 minutes
	total time  =         69 seconds =       1.15 minutes
Total time:
	user time   =     894.04 seconds =      14.90 minutes
	system time =       7.38 seconds =       0.12 minutes
	total time  =        239 seconds =       3.98 minutes
  No DF_BASIS_SAPT auxiliary basis selected, defaulting to aug-cc-pvdz-ri

  //>>>>>>>>>>>>>>>>>>>>>>>>>>>>>>>>>>>//
  //               SAPT2+              //
  //<<<<<<<<<<<<<<<<<<<<<<<<<<<<<<<<<<<//


*** tstart() called on node64.bme.utexas.edu
*** at Wed Sep 18 17:22:27 2013

        SAPT2+  
    Ed Hohenstein
     6 June 2009

      Orbital Information
  --------------------------
    NSO        =       375
    NMO        =       375
    NRI        =      1117
    NOCC A     =        21
    NOCC B     =        21
    FOCC A     =         6
    FOCC B     =         6
    NVIR A     =       354
    NVIR B     =       354

    Estimated memory usage: 2446.2 MB

    Elst10,r            =    -0.009853621913 H
    Exch10 (S^2)        =     0.024734334877 H
    Exch10              =     0.024868179372 H
    Ind20,r (A<-B)      =    -0.006656048685 H
    Ind20,r (B<-A)      =    -0.005037090867 H
    Ind20,r             =    -0.011693139552 H
    Exch-Ind20,r (A<-B) =     0.006363104833 H
    Exch-Ind20,r (B<-A) =     0.004738357582 H
    Exch-Ind20,r        =     0.011101462415 H
    Disp20              =    -0.024327363053 H
    Exch-Disp20         =     0.003959227238 H
    Elst12,r            =    -0.000168776721 H
    Exch11              =     0.001067095866 H
    Exch12              =    -0.000496616474 H
    Ind22               =     0.000072121599 H
    Disp21              =     0.007922181166 H
    Disp22 (SDQ)        =     0.000322943636 H

    (i =   1 of  15)       1405 seconds
    (i =   2 of  15)       2810 seconds
    (i =   3 of  15)       4215 seconds
    (i =   4 of  15)       5620 seconds
    (i =   5 of  15)       7025 seconds
    (i =   6 of  15)       8431 seconds
    (i =   7 of  15)       9836 seconds
    (i =   8 of  15)      11241 seconds
    (i =   9 of  15)      12646 seconds
    (i =  10 of  15)      14052 seconds
    (i =  11 of  15)      15456 seconds
    (i =  12 of  15)      16860 seconds
    (i =  13 of  15)      18262 seconds
    (i =  14 of  15)      19663 seconds
    (i =  15 of  15)      21064 seconds

    Disp220 (T)         =    -0.002493624818 H

    (i =   1 of  15)       1400 seconds
    (i =   2 of  15)       2800 seconds
    (i =   3 of  15)       4204 seconds
    (i =   4 of  15)       5607 seconds
    (i =   5 of  15)       7009 seconds
    (i =   6 of  15)       8413 seconds
    (i =   7 of  15)       9814 seconds
    (i =   8 of  15)      11215 seconds
    (i =   9 of  15)      12616 seconds
    (i =  10 of  15)      14019 seconds
    (i =  11 of  15)      15423 seconds
    (i =  12 of  15)      16828 seconds
    (i =  13 of  15)      18232 seconds
    (i =  14 of  15)      19636 seconds
    (i =  15 of  15)      21040 seconds

    Disp202 (T)         =    -0.002570454769 H

    Disp22 (T)          =    -0.005064079587 H

    SAPT Results  
  -----------------------------------------------------------------------
    Electrostatics         -10.02239863 mH      -6.28915036 kcal mol^-1
      Elst10,r              -9.85362191 mH      -6.18324136 kcal mol^-1
      Elst12,r              -0.16877672 mH      -0.10590900 kcal mol^-1

    Exchange                25.43865876 mH      15.96300004 kcal mol^-1
      Exch10                24.86817937 mH      15.60501880 kcal mol^-1
      Exch10(S^2)           24.73433488 mH      15.52103011 kcal mol^-1
      Exch11(S^2)            1.06709587 mH       0.66961279 kcal mol^-1
      Exch12(S^2)           -0.49661647 mH      -0.31163156 kcal mol^-1

    Induction               -2.53466004 mH      -1.59052325 kcal mol^-1
      Ind20,r              -11.69313955 mH      -7.33755615 kcal mol^-1
      Ind22                  0.07212160 mH       0.04525699 kcal mol^-1
      Exch-Ind20,r          11.10146241 mH       6.96627313 kcal mol^-1
      Exch-Ind22            -0.06847222 mH      -0.04296697 kcal mol^-1
      delta HF,r (2)        -1.94663228 mH      -1.22153025 kcal mol^-1

    Dispersion             -17.18709060 mH     -10.78506263 kcal mol^-1
      Disp20               -24.32736305 mH     -15.26565143 kcal mol^-1
      Disp21                 7.92218117 mH       4.97124394 kcal mol^-1
      Disp22 (SDQ)           0.32294364 mH       0.20265020 kcal mol^-1
      Disp22 (T)            -5.06407959 mH      -3.17775805 kcal mol^-1
      Exch-Disp20            3.95922724 mH       2.48445270 kcal mol^-1

    Total HF                12.47624804 mH       7.82896417 kcal mol^-1
    Total SAPT0             -7.89188777 mH      -4.95223455 kcal mol^-1
    Total SAPT2             -7.48653572 mH      -4.69787229 kcal mol^-1
    Total SAPT2+            -4.30549051 mH      -2.70173620 kcal mol^-1

*** tstop() called on node64.bme.utexas.edu at Thu Sep 19 06:02:11 2013
Module time:
	user time   =  160297.06 seconds =    2671.62 minutes
	system time =     268.40 seconds =       4.47 minutes
	total time  =      45584 seconds =     759.73 minutes
Total time:
	user time   =  161191.10 seconds =    2686.52 minutes
	system time =     275.78 seconds =       4.60 minutes
	total time  =      45823 seconds =     763.72 minutes

*** PSI4 exiting successfully. Buy a developer a beer!
