    -----------------------------------------------------------------------
          PSI4: An Open-Source Ab Initio Electronic Structure Package
                              PSI 4.0.0-beta4 Driver

    J. M. Turney, A. C. Simmonett, R. M. Parrish, E. G. Hohenstein,
    F. A. Evangelista, J. T. Fermann, B. J. Mintz, L. A. Burns, J. J. Wilke,
    M. L. Abrams, N. J. Russ, M. L. Leininger, C. L. Janssen, E. T. Seidl,
    W. D. Allen, H. F. Schaefer, R. A. King, E. F. Valeev, C. D. Sherrill,
    and T. D. Crawford, WIREs Comput. Mol. Sci., (2011) (doi: 10.1002/wcms.93)

                         Additional Contributions by
    A. E. DePrince, M. Saitow, U. Bozkaya, A. Yu. Sokolov
    -----------------------------------------------------------------------

    Process ID:  38379
    PSI4DATADIR: /home/xzhu216/psi4/psi4-install/share/psi

    Using LocalCommunicator (Number of processes = 1)

    Memory level set to 256.000 MB

  ==> Input File <==

--------------------------------------------------------------------------
#psi4
#
memory 10 gb

molecule Benzene_Uracil {
0 1
C    0.825769105   1.236524837  -0.040250437
H    1.521013168   2.063125196  -0.082471448
C    1.300159924  -0.062940879   0.127256013
H    2.363657528  -0.242261131   0.207674197
C    0.403523117  -1.128552182   0.198244857
H    0.773753376  -2.137426768   0.324121091
C   -0.967809494  -0.895190489   0.103139941
H   -1.665209000  -1.719983422   0.160427446
C   -1.443508379   0.404483279  -0.062441302
H   -2.507511245   0.585501124  -0.124150163
C   -0.545755493   1.468768748  -0.136247408
H   -0.914221904   2.477422201  -0.267855164
--
0 1
N   -0.269951039   0.657731056   3.348785671
H   -0.643258432   1.559492486   3.085892700
C    1.122195643   0.584744150   3.480799010
O    1.813105962   1.579167842   3.335964945
C    1.601095757  -0.749333559   3.798909212
H    2.658147851  -0.901549498   3.933030348
C    0.721386530  -1.763714735   3.925125737
H    1.027314051  -2.772135344   4.161650098
N   -0.623859357  -1.578682815   3.755033594
H   -1.272607188  -2.341241758   3.853902765
C   -1.198307666  -0.353881787   3.455618978
O   -2.396096078  -0.203058512   3.313506786
units angstrom
no_reorient  #important for SAPT in psi4, default
symmetry c1  #important for SAPT in psi4, default
}

set {
basis aug-cc-pVDZ
scf_type DF
freeze_core True
}
energy('sapt2+')
--------------------------------------------------------------------------

  Memory set to  10.000 GiB by Python script.

  //>>>>>>>>>>>>>>>>>>>>>>>>>>>>>>>>>>>//
  //              Dimer HF             //
  //<<<<<<<<<<<<<<<<<<<<<<<<<<<<<<<<<<<//


  No DF_BASIS_SCF auxiliary basis selected, defaulting to aug-cc-pvdz-jkfit


*** tstart() called on genome.bme.utexas.edu
*** at Mon Sep 30 11:34:23 2013


         ---------------------------------------------------------
                                   SCF
            by Justin Turney, Rob Parrish, and Andy Simmonett
                              RHF Reference
                        4 Threads,  10000 MiB Core
         ---------------------------------------------------------

  ==> Geometry <==

    Molecular point group: c1
    Full point group: C1

    Geometry (in Angstrom), charge = 0, multiplicity = 1:

       Center              X                  Y                   Z       
    ------------   -----------------  -----------------  -----------------
           C          0.818742426638     1.286244387697    -2.141568805101
           H          1.513986489638     2.112844746697    -2.183789816101
           C          1.293133245638    -0.013221328303    -1.974062355101
           H          2.356630849638    -0.192541580303    -1.893644171101
           C          0.396496438638    -1.078832631303    -1.903073511101
           H          0.766726697638    -2.087707217303    -1.777197277101
           C         -0.974836172362    -0.845470938303    -1.998178427101
           H         -1.672235678362    -1.670263871303    -1.940890922101
           C         -1.450535057362     0.454202829697    -2.163759670101
           H         -2.514537923362     0.635220674697    -2.225468531101
           C         -0.552782171362     1.518488298697    -2.237565776101
           H         -0.921248582362     2.527141751697    -2.369173532101
           N         -0.276977717362     0.707450606697     1.247467302899
           H         -0.650285110362     1.609212036697     0.984574331899
           C          1.115168964638     0.634463700697     1.379480641899
           O          1.806079283638     1.628887392697     1.234646576899
           C          1.594069078638    -0.699614008303     1.697590843899
           H          2.651121172638    -0.851829947303     1.831711979899
           C          0.714359851638    -1.713995184303     1.823807368899
           H          1.020287372638    -2.722415793303     2.060331729899
           N         -0.630886035362    -1.528963264303     1.653715225899
           H         -1.279633866362    -2.291522207303     1.752584396899
           C         -1.205334344362    -0.304162236303     1.354300609899
           O         -2.403122756362    -0.153338961303     1.212188417899

  Running in c1 symmetry.

  Nuclear repulsion =  869.615981550597326

  Charge       = 0
  Multiplicity = 1
  Electrons    = 100
  Nalpha       = 50
  Nbeta        = 50

  ==> Algorithm <==

  SCF Algorithm Type is DF.
  DIIS enabled.
  MOM disabled.
  Fractional occupation disabled.
  Guess Type is CORE.
  Energy threshold   = 1.00e-08
  Density threshold  = 1.00e-08
  Integral threshold = 0.00e+00

  ==> Primary Basis <==

  Basis Set: AUG-CC-PVDZ
    Number of shells: 176
    Number of basis function: 412
    Number of Cartesian functions: 440
    Spherical Harmonics?: true
    Max angular momentum: 2

  ==> Pre-Iterations <==

   -------------------------------------------------------
    Irrep   Nso     Nmo     Nalpha   Nbeta   Ndocc  Nsocc
   -------------------------------------------------------
     A        412     412       0       0       0       0
   -------------------------------------------------------
    Total     412     412      50      50      50       0
   -------------------------------------------------------

 OEINTS: Wrapper to libmints.
   by Justin Turney

   Calculation information:
      Number of atoms:                  24
      Number of AO shells:             176
      Number of SO shells:             176
      Number of primitives:            420
      Number of atomic orbitals:       440
      Number of basis functions:       412

      Number of irreps:                  1
      Number of functions per irrep: [ 412 ]

      Overlap, kinetic, potential, dipole, and quadrupole integrals
        stored in file 35.

  ==> Integral Setup <==

  ==> DFJK: Density-Fitted J/K Matrices <==

    J tasked:                  Yes
    K tasked:                  Yes
    wK tasked:                  No
    OpenMP threads:              4
    Integrals threads:           4
    Memory (MB):              7152
    Algorithm:                Core
    Integral Cache:           SAVE
    Schwarz Cutoff:          0E+00
    Fitting Condition:       1E-12

   => Auxiliary Basis Set <=

  Basis Set: aug-cc-pvdz-jkfit
    Number of shells: 512
    Number of basis function: 1524
    Number of Cartesian functions: 1764
    Spherical Harmonics?: true
    Max angular momentum: 3

  Minimum eigenvalue in the overlap matrix is 2.0641336488E-06.
  Using Symmetric Orthogonalization.
  SCF Guess: Core (One-Electron) Hamiltonian.

  Guess energy:  -515.49265743488468

  ==> Iterations <==

                        Total Energy        Delta E     RMS |[F,P]|

   @RHF iter   1:  -483.50857462331464   -4.83509e+02   2.82882e-02 
   @RHF iter   2:  -320.04910483620574    1.63459e+02   3.14820e-02 DIIS
   @RHF iter   3:  -394.38785503751319   -7.43388e+01   3.19477e-02 DIIS
   @RHF iter   4:  -571.81520082049269   -1.77427e+02   1.78851e-02 DIIS
   @RHF iter   5:  -474.80881504134027    9.70064e+01   2.69285e-02 DIIS
   @RHF iter   6:  -629.26308105940029   -1.54454e+02   8.34852e-03 DIIS
   @RHF iter   7:  -638.26897627344829   -9.00590e+00   6.28907e-03 DIIS
   @RHF iter   8:  -642.89012238581608   -4.62115e+00   1.83189e-03 DIIS
   @RHF iter   9:  -643.18004771257870   -2.89925e-01   8.26643e-04 DIIS
   @RHF iter  10:  -643.23865804583488   -5.86103e-02   3.42666e-04 DIIS
   @RHF iter  11:  -643.25288669396377   -1.42286e-02   1.47151e-04 DIIS
   @RHF iter  12:  -643.25631920780984   -3.43251e-03   3.35856e-05 DIIS
   @RHF iter  13:  -643.25658910032053   -2.69893e-04   1.14815e-05 DIIS
   @RHF iter  14:  -643.25662634788637   -3.72476e-05   7.37072e-06 DIIS
   @RHF iter  15:  -643.25663724190667   -1.08940e-05   3.51856e-06 DIIS
   @RHF iter  16:  -643.25664082735216   -3.58545e-06   1.00566e-06 DIIS
   @RHF iter  17:  -643.25664116054895   -3.33197e-07   3.19625e-07 DIIS
   @RHF iter  18:  -643.25664118902478   -2.84758e-08   1.43469e-07 DIIS
   @RHF iter  19:  -643.25664119651697   -7.49219e-09   6.90384e-08 DIIS
   @RHF iter  20:  -643.25664119849648   -1.97952e-09   2.99192e-08 DIIS
   @RHF iter  21:  -643.25664119882435   -3.27873e-10   1.32861e-08 DIIS
   @RHF iter  22:  -643.25664119888711   -6.27551e-11   5.34822e-09 DIIS

  ==> Post-Iterations <==

	Orbital Energies (a.u.)
	-----------------------

	Doubly Occupied:                                                      

	   1A    -20.550870     2A    -20.545423     3A    -15.644792  
	   4A    -15.625389     5A    -11.420978     6A    -11.382274  
	   7A    -11.340920     8A    -11.255600     9A    -11.243667  
	  10A    -11.241343    11A    -11.240753    12A    -11.240190  
	  13A    -11.239635    14A    -11.238872    15A     -1.433878  
	  16A     -1.396273    17A     -1.310298    18A     -1.241605  
	  19A     -1.153138    20A     -1.084396    21A     -1.017431  
	  22A     -1.016775    23A     -0.928829    24A     -0.897346  
	  25A     -0.825677    26A     -0.825049    27A     -0.802133  
	  28A     -0.759964    29A     -0.710046    30A     -0.708660  
	  31A     -0.673057    32A     -0.662264    33A     -0.648088  
	  34A     -0.644250    35A     -0.619120    36A     -0.609726  
	  37A     -0.595831    38A     -0.588444    39A     -0.587620  
	  40A     -0.564603    41A     -0.519678    42A     -0.500924  
	  43A     -0.494114    44A     -0.493868    45A     -0.476413  
	  46A     -0.442186    47A     -0.428363    48A     -0.362219  
	  49A     -0.337615    50A     -0.335143  

	Virtual:                                                              

	  51A      0.019650    52A      0.039141    53A      0.042023  
	  54A      0.044778    55A      0.053877    56A      0.054671  
	  57A      0.062685    58A      0.063479    59A      0.071387  
	  60A      0.078692    61A      0.083881    62A      0.093928  
	  63A      0.099049    64A      0.108921    65A      0.112642  
	  66A      0.115316    67A      0.121174    68A      0.126770  
	  69A      0.128963    70A      0.130565    71A      0.140924  
	  72A      0.146504    73A      0.147730    74A      0.152430  
	  75A      0.154655    76A      0.156364    77A      0.158330  
	  78A      0.159955    79A      0.164269    80A      0.169515  
	  81A      0.171639    82A      0.175161    83A      0.179801  
	  84A      0.181893    85A      0.184396    86A      0.188160  
	  87A      0.189863    88A      0.194654    89A      0.198517  
	  90A      0.203274    91A      0.208910    92A      0.213651  
	  93A      0.224784    94A      0.233030    95A      0.234722  
	  96A      0.240324    97A      0.247687    98A      0.260398  
	  99A      0.267960   100A      0.270333   101A      0.275179  
	 102A      0.282697   103A      0.287628   104A      0.300465  
	 105A      0.308189   106A      0.315857   107A      0.323670  
	 108A      0.324729   109A      0.330325   110A      0.332932  
	 111A      0.335569   112A      0.340682   113A      0.342136  
	 114A      0.346139   115A      0.351043   116A      0.356706  
	 117A      0.364975   118A      0.367509   119A      0.371534  
	 120A      0.372520   121A      0.380534   122A      0.381582  
	 123A      0.388640   124A      0.392713   125A      0.398625  
	 126A      0.405151   127A      0.406238   128A      0.409929  
	 129A      0.421552   130A      0.426686   131A      0.430673  
	 132A      0.438710   133A      0.443041   134A      0.445612  
	 135A      0.447836   136A      0.451111   137A      0.454917  
	 138A      0.456700   139A      0.463397   140A      0.464782  
	 141A      0.479411   142A      0.483691   143A      0.496459  
	 144A      0.503811   145A      0.509225   146A      0.515220  
	 147A      0.528278   148A      0.533512   149A      0.541697  
	 150A      0.544469   151A      0.560399   152A      0.565018  
	 153A      0.571321   154A      0.576541   155A      0.580460  
	 156A      0.591340   157A      0.595063   158A      0.596991  
	 159A      0.601953   160A      0.607231   161A      0.613296  
	 162A      0.620234   163A      0.623114   164A      0.630193  
	 165A      0.635226   166A      0.640790   167A      0.644716  
	 168A      0.648230   169A      0.649280   170A      0.657469  
	 171A      0.660251   172A      0.673015   173A      0.680032  
	 174A      0.684904   175A      0.693114   176A      0.697236  
	 177A      0.700519   178A      0.709406   179A      0.711625  
	 180A      0.721258   181A      0.730833   182A      0.737986  
	 183A      0.746826   184A      0.750511   185A      0.751193  
	 186A      0.758510   187A      0.768093   188A      0.775076  
	 189A      0.786971   190A      0.790971   191A      0.798070  
	 192A      0.799368   193A      0.806348   194A      0.811485  
	 195A      0.824228   196A      0.831323   197A      0.839779  
	 198A      0.844392   199A      0.855143   200A      0.855771  
	 201A      0.859865   202A      0.863799   203A      0.864881  
	 204A      0.873583   205A      0.879506   206A      0.886753  
	 207A      0.892610   208A      0.898148   209A      0.916172  
	 210A      0.928943   211A      0.935513   212A      0.944848  
	 213A      0.952192   214A      0.958119   215A      0.961210  
	 216A      0.969985   217A      0.980351   218A      0.985233  
	 219A      0.992529   220A      0.993101   221A      0.998815  
	 222A      1.007523   223A      1.014209   224A      1.021001  
	 225A      1.029776   226A      1.046847   227A      1.052632  
	 228A      1.053736   229A      1.056585   230A      1.075384  
	 231A      1.096330   232A      1.104910   233A      1.113973  
	 234A      1.124164   235A      1.127037   236A      1.134977  
	 237A      1.146804   238A      1.154163   239A      1.157850  
	 240A      1.173920   241A      1.183587   242A      1.192519  
	 243A      1.201850   244A      1.209664   245A      1.227949  
	 246A      1.263933   247A      1.277042   248A      1.288255  
	 249A      1.302904   250A      1.316657   251A      1.337492  
	 252A      1.348604   253A      1.368695   254A      1.373694  
	 255A      1.379287   256A      1.392520   257A      1.399871  
	 258A      1.405896   259A      1.427350   260A      1.459989  
	 261A      1.478973   262A      1.490416   263A      1.507577  
	 264A      1.517999   265A      1.523749   266A      1.535733  
	 267A      1.539866   268A      1.550233   269A      1.557125  
	 270A      1.567250   271A      1.583192   272A      1.593047  
	 273A      1.596935   274A      1.610306   275A      1.621136  
	 276A      1.624272   277A      1.637528   278A      1.662792  
	 279A      1.666254   280A      1.674189   281A      1.683415  
	 282A      1.692101   283A      1.698996   284A      1.715492  
	 285A      1.719876   286A      1.726493   287A      1.732563  
	 288A      1.743994   289A      1.755477   290A      1.763583  
	 291A      1.772469   292A      1.786438   293A      1.801847  
	 294A      1.814150   295A      1.836790   296A      1.843267  
	 297A      1.855236   298A      1.867455   299A      1.883024  
	 300A      1.890625   301A      1.892371   302A      1.904943  
	 303A      1.935113   304A      1.942094   305A      1.954091  
	 306A      1.963393   307A      1.973537   308A      1.981723  
	 309A      1.983599   310A      1.990910   311A      2.012592  
	 312A      2.016502   313A      2.024549   314A      2.031035  
	 315A      2.046800   316A      2.060024   317A      2.069684  
	 318A      2.079848   319A      2.085573   320A      2.104405  
	 321A      2.111575   322A      2.125905   323A      2.127639  
	 324A      2.139795   325A      2.162259   326A      2.184819  
	 327A      2.194888   328A      2.214742   329A      2.223635  
	 330A      2.232939   331A      2.236044   332A      2.246186  
	 333A      2.250603   334A      2.259691   335A      2.271424  
	 336A      2.277514   337A      2.300544   338A      2.308025  
	 339A      2.317494   340A      2.323367   341A      2.330799  
	 342A      2.357535   343A      2.386073   344A      2.387467  
	 345A      2.391329   346A      2.398065   347A      2.418122  
	 348A      2.422920   349A      2.428724   350A      2.445505  
	 351A      2.487816   352A      2.503909   353A      2.518791  
	 354A      2.531641   355A      2.541580   356A      2.555393  
	 357A      2.596597   358A      2.613018   359A      2.631008  
	 360A      2.633269   361A      2.660769   362A      2.699200  
	 363A      2.731360   364A      2.783547   365A      2.805207  
	 366A      2.821406   367A      2.829678   368A      2.842949  
	 369A      2.848049   370A      2.852685   371A      2.871453  
	 372A      2.874628   373A      2.904212   374A      2.912125  
	 375A      2.915539   376A      2.936301   377A      2.966239  
	 378A      2.999777   379A      3.004887   380A      3.013579  
	 381A      3.048079   382A      3.084927   383A      3.158198  
	 384A      3.166759   385A      3.182127   386A      3.199900  
	 387A      3.207462   388A      3.226823   389A      3.250907  
	 390A      3.264790   391A      3.360194   392A      3.390002  
	 393A      3.401436   394A      3.541017   395A      3.580970  
	 396A      3.612784   397A      3.621707   398A      3.665058  
	 399A      3.788152   400A      3.814708   401A      3.828481  
	 402A      3.843273   403A      3.867147   404A      3.871830  
	 405A      3.889849   406A      3.919721   407A      4.048463  
	 408A      4.076148   409A      4.097421   410A      4.209560  
	 411A      4.369718   412A      4.913394  

	Final Occupation by Irrep:
	          A 
	DOCC [    50 ]

  Energy converged.

  @RHF Final Energy:  -643.25664119888711

   => Energetics <=

    Nuclear Repulsion Energy =            869.6159815505973256
    One-Electron Energy =               -2601.9337871690927386
    Two-Electron Energy =                1089.0611644196101224
    DFT Exchange-Correlation Energy =       0.0000000000000000
    Empirical Dispersion Energy =           0.0000000000000000
    Total Energy =                       -643.2566411988852906



Properties will be evaluated at   0.000000,   0.000000,   0.000000 Bohr
  ==> Properties <==


Properties computed using the SCF density density matrix
  Nuclear Dipole Moment: (a.u.)
     X:     1.1911      Y:    -2.7391      Z:    -5.3974

  Electronic Dipole Moment: (a.u.)
     X:    -0.9723      Y:     0.9544      Z:     5.6960

  Dipole Moment: (a.u.)
     X:     0.2188      Y:    -1.7846      Z:     0.2986     Total:     1.8226

  Dipole Moment: (Debye)
     X:     0.5562      Y:    -4.5361      Z:     0.7589     Total:     4.6326


  Saving occupied orbitals to File 180.

  Saving SAPT 2-DIMER file.

*** tstop() called on genome.bme.utexas.edu at Mon Sep 30 11:36:15 2013
Module time:
	user time   =     402.56 seconds =       6.71 minutes
	system time =       6.47 seconds =       0.11 minutes
	total time  =        112 seconds =       1.87 minutes
Total time:
	user time   =     402.56 seconds =       6.71 minutes
	system time =       6.47 seconds =       0.11 minutes
	total time  =        112 seconds =       1.87 minutes

  //>>>>>>>>>>>>>>>>>>>>>>>>>>>>>>>>>>>//
  //            Monomer A HF           //
  //<<<<<<<<<<<<<<<<<<<<<<<<<<<<<<<<<<<//


  No DF_BASIS_SCF auxiliary basis selected, defaulting to aug-cc-pvdz-jkfit


*** tstart() called on genome.bme.utexas.edu
*** at Mon Sep 30 11:36:15 2013


         ---------------------------------------------------------
                                   SCF
            by Justin Turney, Rob Parrish, and Andy Simmonett
                              RHF Reference
                        4 Threads,  10000 MiB Core
         ---------------------------------------------------------

  ==> Geometry <==

    Molecular point group: c1
    Full point group: C1

    Geometry (in Angstrom), charge = 0, multiplicity = 1:

       Center              X                  Y                   Z       
    ------------   -----------------  -----------------  -----------------
           C          0.818742426638     1.286244387697    -2.141568805101
           H          1.513986489638     2.112844746697    -2.183789816101
           C          1.293133245638    -0.013221328303    -1.974062355101
           H          2.356630849638    -0.192541580303    -1.893644171101
           C          0.396496438638    -1.078832631303    -1.903073511101
           H          0.766726697638    -2.087707217303    -1.777197277101
           C         -0.974836172362    -0.845470938303    -1.998178427101
           H         -1.672235678362    -1.670263871303    -1.940890922101
           C         -1.450535057362     0.454202829697    -2.163759670101
           H         -2.514537923362     0.635220674697    -2.225468531101
           C         -0.552782171362     1.518488298697    -2.237565776101
           H         -0.921248582362     2.527141751697    -2.369173532101
           N(Gh)     -0.276977717362     0.707450606697     1.247467302899
           H(Gh)     -0.650285110362     1.609212036697     0.984574331899
           C(Gh)      1.115168964638     0.634463700697     1.379480641899
           O(Gh)      1.806079283638     1.628887392697     1.234646576899
           C(Gh)      1.594069078638    -0.699614008303     1.697590843899
           H(Gh)      2.651121172638    -0.851829947303     1.831711979899
           C(Gh)      0.714359851638    -1.713995184303     1.823807368899
           H(Gh)      1.020287372638    -2.722415793303     2.060331729899
           N(Gh)     -0.630886035362    -1.528963264303     1.653715225899
           H(Gh)     -1.279633866362    -2.291522207303     1.752584396899
           C(Gh)     -1.205334344362    -0.304162236303     1.354300609899
           O(Gh)     -2.403122756362    -0.153338961303     1.212188417899

  Running in c1 symmetry.

  Nuclear repulsion =  203.651345032034641

  Charge       = 0
  Multiplicity = 1
  Electrons    = 42
  Nalpha       = 21
  Nbeta        = 21

  ==> Algorithm <==

  SCF Algorithm Type is DF.
  DIIS enabled.
  MOM disabled.
  Fractional occupation disabled.
  Guess Type is CORE.
  Energy threshold   = 1.00e-08
  Density threshold  = 1.00e-08
  Integral threshold = 0.00e+00

  ==> Primary Basis <==

  Basis Set: AUG-CC-PVDZ
    Number of shells: 176
    Number of basis function: 412
    Number of Cartesian functions: 440
    Spherical Harmonics?: true
    Max angular momentum: 2

  ==> Pre-Iterations <==

   -------------------------------------------------------
    Irrep   Nso     Nmo     Nalpha   Nbeta   Ndocc  Nsocc
   -------------------------------------------------------
     A        412     412       0       0       0       0
   -------------------------------------------------------
    Total     412     412      21      21      21       0
   -------------------------------------------------------

 OEINTS: Wrapper to libmints.
   by Justin Turney

   Calculation information:
      Number of atoms:                  24
      Number of AO shells:             176
      Number of SO shells:             176
      Number of primitives:            420
      Number of atomic orbitals:       440
      Number of basis functions:       412

      Number of irreps:                  1
      Number of functions per irrep: [ 412 ]

      Overlap, kinetic, potential, dipole, and quadrupole integrals
        stored in file 35.

  ==> Integral Setup <==

  ==> DFJK: Density-Fitted J/K Matrices <==

    J tasked:                  Yes
    K tasked:                  Yes
    wK tasked:                  No
    OpenMP threads:              4
    Integrals threads:           4
    Memory (MB):              7152
    Algorithm:                Core
    Integral Cache:           LOAD
    Schwarz Cutoff:          0E+00
    Fitting Condition:       1E-12

   => Auxiliary Basis Set <=

  Basis Set: aug-cc-pvdz-jkfit
    Number of shells: 512
    Number of basis function: 1524
    Number of Cartesian functions: 1764
    Spherical Harmonics?: true
    Max angular momentum: 3

  Minimum eigenvalue in the overlap matrix is 2.0641336484E-06.
  Using Symmetric Orthogonalization.
  SCF Guess: Core (One-Electron) Hamiltonian.

  Guess energy:  -178.80422009395917

  ==> Iterations <==

                        Total Energy        Delta E     RMS |[F,P]|

   @RHF iter   1:  -193.38234354036567   -1.93382e+02   1.36633e-02 
   @RHF iter   2:  -172.32807603120060    2.10543e+01   1.11988e-02 DIIS
   @RHF iter   3:  -228.37600150804812   -5.60479e+01   4.57373e-03 DIIS
   @RHF iter   4:  -230.18716197890981   -1.81116e+00   2.20036e-03 DIIS
   @RHF iter   5:  -230.69782994484760   -5.10668e-01   4.95570e-04 DIIS
   @RHF iter   6:  -230.72529097902876   -2.74610e-02   1.90980e-04 DIIS
   @RHF iter   7:  -230.72924871478992   -3.95774e-03   2.88624e-05 DIIS
   @RHF iter   8:  -230.72938729105917   -1.38576e-04   6.62357e-06 DIIS
   @RHF iter   9:  -230.72939268493909   -5.39388e-06   2.30041e-06 DIIS
   @RHF iter  10:  -230.72939328242464   -5.97486e-07   5.83564e-07 DIIS
   @RHF iter  11:  -230.72939333824118   -5.58165e-08   7.78411e-08 DIIS
   @RHF iter  12:  -230.72939334014856   -1.90738e-09   4.33912e-08 DIIS
   @RHF iter  13:  -230.72939334059484   -4.46278e-10   2.20024e-08 DIIS
   @RHF iter  14:  -230.72939334088053   -2.85695e-10   6.21432e-09 DIIS

  ==> Post-Iterations <==

	Orbital Energies (a.u.)
	-----------------------

	Doubly Occupied:                                                      

	   1A    -11.242384     2A    -11.241828     3A    -11.241781  
	   4A    -11.240636     5A    -11.240552     6A    -11.239984  
	   7A     -1.152626     8A     -1.017222     9A     -1.016512  
	  10A     -0.825635    11A     -0.825282    12A     -0.710041  
	  13A     -0.644696    14A     -0.619295    15A     -0.588633  
	  16A     -0.587820    17A     -0.501790    18A     -0.494884  
	  19A     -0.493908    20A     -0.336372    21A     -0.335949  

	Virtual:                                                              

	  22A      0.025695    23A      0.037485    24A      0.038172  
	  25A      0.045852    26A      0.052097    27A      0.053954  
	  28A      0.059456    29A      0.061063    30A      0.071804  
	  31A      0.081408    32A      0.086286    33A      0.087577  
	  34A      0.096653    35A      0.105496    36A      0.108496  
	  37A      0.115042    38A      0.119466    39A      0.123998  
	  40A      0.128460    41A      0.128885    42A      0.132422  
	  43A      0.138213    44A      0.144637    45A      0.151110  
	  46A      0.151824    47A      0.154251    48A      0.156655  
	  49A      0.163815    50A      0.168890    51A      0.169744  
	  52A      0.171326    53A      0.176126    54A      0.183133  
	  55A      0.184988    56A      0.187270    57A      0.192263  
	  58A      0.194825    59A      0.197926    60A      0.204281  
	  61A      0.208894    62A      0.214710    63A      0.216693  
	  64A      0.223281    65A      0.230316    66A      0.232154  
	  67A      0.238513    68A      0.240801    69A      0.253823  
	  70A      0.264887    71A      0.268242    72A      0.278273  
	  73A      0.281426    74A      0.294981    75A      0.298550  
	  76A      0.301343    77A      0.308709    78A      0.311549  
	  79A      0.316121    80A      0.325845    81A      0.326673  
	  82A      0.332146    83A      0.334094    84A      0.339204  
	  85A      0.343442    86A      0.348476    87A      0.356054  
	  88A      0.360682    89A      0.366287    90A      0.370373  
	  91A      0.372171    92A      0.378643    93A      0.386243  
	  94A      0.393788    95A      0.406484    96A      0.410169  
	  97A      0.413258    98A      0.421576    99A      0.427923  
	 100A      0.436861   101A      0.443927   102A      0.447468  
	 103A      0.450106   104A      0.452472   105A      0.455149  
	 106A      0.462815   107A      0.471845   108A      0.485575  
	 109A      0.496564   110A      0.498018   111A      0.505373  
	 112A      0.514371   113A      0.515519   114A      0.522620  
	 115A      0.534783   116A      0.539013   117A      0.542792  
	 118A      0.545337   119A      0.555967   120A      0.561594  
	 121A      0.576782   122A      0.585437   123A      0.590401  
	 124A      0.594673   125A      0.597559   126A      0.602748  
	 127A      0.609446   128A      0.612419   129A      0.617674  
	 130A      0.625167   131A      0.627835   132A      0.632964  
	 133A      0.633925   134A      0.638690   135A      0.641798  
	 136A      0.645142   137A      0.656882   138A      0.664201  
	 139A      0.669775   140A      0.673855   141A      0.680240  
	 142A      0.684028   143A      0.691544   144A      0.699700  
	 145A      0.713544   146A      0.714115   147A      0.722412  
	 148A      0.723097   149A      0.733047   150A      0.741185  
	 151A      0.749792   152A      0.759928   153A      0.763863  
	 154A      0.771472   155A      0.778287   156A      0.785721  
	 157A      0.792503   158A      0.799113   159A      0.803873  
	 160A      0.810967   161A      0.814643   162A      0.820118  
	 163A      0.826363   164A      0.831942   165A      0.847496  
	 166A      0.855613   167A      0.857098   168A      0.859644  
	 169A      0.865076   170A      0.867461   171A      0.869925  
	 172A      0.886910   173A      0.895458   174A      0.902956  
	 175A      0.904351   176A      0.914964   177A      0.922940  
	 178A      0.934262   179A      0.947706   180A      0.953605  
	 181A      0.963601   182A      0.964479   183A      0.977804  
	 184A      0.986708   185A      0.992989   186A      0.998227  
	 187A      1.007284   188A      1.009754   189A      1.023828  
	 190A      1.027407   191A      1.048317   192A      1.055501  
	 193A      1.059370   194A      1.070192   195A      1.074947  
	 196A      1.094919   197A      1.103194   198A      1.115512  
	 199A      1.122369   200A      1.127729   201A      1.133087  
	 202A      1.141112   203A      1.156346   204A      1.159588  
	 205A      1.177999   206A      1.186677   207A      1.199476  
	 208A      1.201003   209A      1.214404   210A      1.225727  
	 211A      1.243319   212A      1.253989   213A      1.257739  
	 214A      1.270063   215A      1.295665   216A      1.307818  
	 217A      1.333816   218A      1.346849   219A      1.353616  
	 220A      1.360143   221A      1.365429   222A      1.390208  
	 223A      1.396628   224A      1.409374   225A      1.417299  
	 226A      1.423771   227A      1.440245   228A      1.448063  
	 229A      1.469231   230A      1.475368   231A      1.483766  
	 232A      1.494971   233A      1.496412   234A      1.519006  
	 235A      1.536260   236A      1.542877   237A      1.557622  
	 238A      1.561374   239A      1.570202   240A      1.582285  
	 241A      1.590572   242A      1.606151   243A      1.619675  
	 244A      1.631002   245A      1.643055   246A      1.643517  
	 247A      1.656189   248A      1.670805   249A      1.675760  
	 250A      1.684357   251A      1.689822   252A      1.703994  
	 253A      1.709401   254A      1.730440   255A      1.739503  
	 256A      1.747172   257A      1.750767   258A      1.774760  
	 259A      1.782153   260A      1.798463   261A      1.807746  
	 262A      1.809890   263A      1.848013   264A      1.856987  
	 265A      1.888561   266A      1.905626   267A      1.926540  
	 268A      1.940131   269A      1.941230   270A      1.960045  
	 271A      1.973807   272A      1.983688   273A      2.001639  
	 274A      2.005863   275A      2.015671   276A      2.031143  
	 277A      2.039586   278A      2.061453   279A      2.078822  
	 280A      2.132417   281A      2.141374   282A      2.168157  
	 283A      2.184254   284A      2.197042   285A      2.203691  
	 286A      2.219627   287A      2.233602   288A      2.239903  
	 289A      2.244804   290A      2.254120   291A      2.266430  
	 292A      2.281583   293A      2.293621   294A      2.300638  
	 295A      2.307005   296A      2.309345   297A      2.335847  
	 298A      2.365887   299A      2.375642   300A      2.400339  
	 301A      2.403371   302A      2.411222   303A      2.426849  
	 304A      2.456115   305A      2.485910   306A      2.491889  
	 307A      2.510788   308A      2.526141   309A      2.560384  
	 310A      2.570789   311A      2.573503   312A      2.595891  
	 313A      2.618768   314A      2.631612   315A      2.640166  
	 316A      2.661365   317A      2.689401   318A      2.696761  
	 319A      2.715803   320A      2.773264   321A      2.787043  
	 322A      2.802274   323A      2.817071   324A      2.830852  
	 325A      2.840246   326A      2.848005   327A      2.859137  
	 328A      2.874715   329A      2.903411   330A      2.928030  
	 331A      2.960777   332A      2.988598   333A      2.995069  
	 334A      3.004379   335A      3.006495   336A      3.068554  
	 337A      3.098430   338A      3.142024   339A      3.171004  
	 340A      3.176292   341A      3.186868   342A      3.201414  
	 343A      3.240962   344A      3.298480   345A      3.332531  
	 346A      3.378322   347A      3.389461   348A      3.421550  
	 349A      3.512451   350A      3.519666   351A      3.551539  
	 352A      3.567148   353A      3.596685   354A      3.617112  
	 355A      3.669108   356A      3.715633   357A      3.731034  
	 358A      3.775856   359A      3.793251   360A      3.813591  
	 361A      3.863052   362A      3.889889   363A      3.918117  
	 364A      3.926978   365A      3.960604   366A      3.994594  
	 367A      4.136457   368A      4.212206   369A      4.241106  
	 370A      4.390207   371A      4.477621   372A      4.519821  
	 373A      4.577977   374A      4.665281   375A      4.719057  
	 376A      4.738948   377A      4.802122   378A      4.897807  
	 379A      4.912156   380A      4.969229   381A      5.026258  
	 382A      5.058926   383A      5.070031   384A      5.079331  
	 385A      5.102303   386A      5.125710   387A      5.149844  
	 388A      5.224123   389A      5.385914   390A      5.454828  
	 391A      5.553394   392A      5.710425   393A      5.819341  
	 394A      5.968385   395A      6.033911   396A      6.111725  
	 397A      6.160706   398A      6.181047   399A      6.225207  
	 400A      6.248369   401A      6.450463   402A      6.544291  
	 403A      7.050950   404A      7.342283   405A     18.182721  
	 406A     18.784106   407A     18.892375   408A     19.579402  
	 409A     25.468077   410A     25.497636   411A     33.547692  
	 412A     33.557695  

	Final Occupation by Irrep:
	          A 
	DOCC [    21 ]

  Energy converged.

  @RHF Final Energy:  -230.72939334088053

   => Energetics <=

    Nuclear Repulsion Energy =            203.6513450320346408
    One-Electron Energy =                -713.5658204025435225
    Two-Electron Energy =                 279.1850820296278357
    DFT Exchange-Correlation Energy =       0.0000000000000000
    Empirical Dispersion Energy =           0.0000000000000000
    Total Energy =                       -230.7293933408810176



Properties will be evaluated at   0.000000,   0.000000,   0.000000 Bohr
  ==> Properties <==


Properties computed using the SCF density density matrix
  Nuclear Dipole Moment: (a.u.)
     X:    -6.2160      Y:    17.4859      Z:  -164.2161

  Electronic Dipole Moment: (a.u.)
     X:     6.2155      Y:   -17.4847      Z:   164.2248

  Dipole Moment: (a.u.)
     X:    -0.0005      Y:     0.0012      Z:     0.0087     Total:     0.0088

  Dipole Moment: (Debye)
     X:    -0.0012      Y:     0.0031      Z:     0.0222     Total:     0.0224


  Saving occupied orbitals to File 180.

  Saving SAPT 2-MONOMER_A file.

*** tstop() called on genome.bme.utexas.edu at Mon Sep 30 11:36:59 2013
Module time:
	user time   =     161.75 seconds =       2.70 minutes
	system time =       2.50 seconds =       0.04 minutes
	total time  =         44 seconds =       0.73 minutes
Total time:
	user time   =     564.32 seconds =       9.41 minutes
	system time =       8.97 seconds =       0.15 minutes
	total time  =        156 seconds =       2.60 minutes

  //>>>>>>>>>>>>>>>>>>>>>>>>>>>>>>>>>>>//
  //            Monomer B HF           //
  //<<<<<<<<<<<<<<<<<<<<<<<<<<<<<<<<<<<//


  No DF_BASIS_SCF auxiliary basis selected, defaulting to aug-cc-pvdz-jkfit


*** tstart() called on genome.bme.utexas.edu
*** at Mon Sep 30 11:36:59 2013


         ---------------------------------------------------------
                                   SCF
            by Justin Turney, Rob Parrish, and Andy Simmonett
                              RHF Reference
                        4 Threads,  10000 MiB Core
         ---------------------------------------------------------

  ==> Geometry <==

    Molecular point group: c1
    Full point group: C1

    Geometry (in Angstrom), charge = 0, multiplicity = 1:

       Center              X                  Y                   Z       
    ------------   -----------------  -----------------  -----------------
           C(Gh)      0.818742426638     1.286244387697    -2.141568805101
           H(Gh)      1.513986489638     2.112844746697    -2.183789816101
           C(Gh)      1.293133245638    -0.013221328303    -1.974062355101
           H(Gh)      2.356630849638    -0.192541580303    -1.893644171101
           C(Gh)      0.396496438638    -1.078832631303    -1.903073511101
           H(Gh)      0.766726697638    -2.087707217303    -1.777197277101
           C(Gh)     -0.974836172362    -0.845470938303    -1.998178427101
           H(Gh)     -1.672235678362    -1.670263871303    -1.940890922101
           C(Gh)     -1.450535057362     0.454202829697    -2.163759670101
           H(Gh)     -2.514537923362     0.635220674697    -2.225468531101
           C(Gh)     -0.552782171362     1.518488298697    -2.237565776101
           H(Gh)     -0.921248582362     2.527141751697    -2.369173532101
           N         -0.276977717362     0.707450606697     1.247467302899
           H         -0.650285110362     1.609212036697     0.984574331899
           C          1.115168964638     0.634463700697     1.379480641899
           O          1.806079283638     1.628887392697     1.234646576899
           C          1.594069078638    -0.699614008303     1.697590843899
           H          2.651121172638    -0.851829947303     1.831711979899
           C          0.714359851638    -1.713995184303     1.823807368899
           H          1.020287372638    -2.722415793303     2.060331729899
           N         -0.630886035362    -1.528963264303     1.653715225899
           H         -1.279633866362    -2.291522207303     1.752584396899
           C         -1.205334344362    -0.304162236303     1.354300609899
           O         -2.403122756362    -0.153338961303     1.212188417899

  Running in c1 symmetry.

  Nuclear repulsion =  357.169481317076190

  Charge       = 0
  Multiplicity = 1
  Electrons    = 58
  Nalpha       = 29
  Nbeta        = 29

  ==> Algorithm <==

  SCF Algorithm Type is DF.
  DIIS enabled.
  MOM disabled.
  Fractional occupation disabled.
  Guess Type is CORE.
  Energy threshold   = 1.00e-08
  Density threshold  = 1.00e-08
  Integral threshold = 0.00e+00

  ==> Primary Basis <==

  Basis Set: AUG-CC-PVDZ
    Number of shells: 176
    Number of basis function: 412
    Number of Cartesian functions: 440
    Spherical Harmonics?: true
    Max angular momentum: 2

  ==> Pre-Iterations <==

   -------------------------------------------------------
    Irrep   Nso     Nmo     Nalpha   Nbeta   Ndocc  Nsocc
   -------------------------------------------------------
     A        412     412       0       0       0       0
   -------------------------------------------------------
    Total     412     412      29      29      29       0
   -------------------------------------------------------

 OEINTS: Wrapper to libmints.
   by Justin Turney

   Calculation information:
      Number of atoms:                  24
      Number of AO shells:             176
      Number of SO shells:             176
      Number of primitives:            420
      Number of atomic orbitals:       440
      Number of basis functions:       412

      Number of irreps:                  1
      Number of functions per irrep: [ 412 ]

      Overlap, kinetic, potential, dipole, and quadrupole integrals
        stored in file 35.

  ==> Integral Setup <==

  ==> DFJK: Density-Fitted J/K Matrices <==

    J tasked:                  Yes
    K tasked:                  Yes
    wK tasked:                  No
    OpenMP threads:              4
    Integrals threads:           4
    Memory (MB):              7152
    Algorithm:                Core
    Integral Cache:           LOAD
    Schwarz Cutoff:          0E+00
    Fitting Condition:       1E-12

   => Auxiliary Basis Set <=

  Basis Set: aug-cc-pvdz-jkfit
    Number of shells: 512
    Number of basis function: 1524
    Number of Cartesian functions: 1764
    Spherical Harmonics?: true
    Max angular momentum: 3

  Minimum eigenvalue in the overlap matrix is 2.0641336484E-06.
  Using Symmetric Orthogonalization.
  SCF Guess: Core (One-Electron) Hamiltonian.

  Guess energy:  -318.05880100877010

  ==> Iterations <==

                        Total Energy        Delta E     RMS |[F,P]|

   @RHF iter   1:  -347.49901903050016   -3.47499e+02   1.93357e-02 
   @RHF iter   2:  -307.87759215496425    3.96214e+01   1.85204e-02 DIIS
   @RHF iter   3:  -354.05171777181926   -4.61741e+01   1.84605e-02 DIIS
   @RHF iter   4:  -399.33687667238650   -4.52852e+01   1.02565e-02 DIIS
   @RHF iter   5:  -403.19686350650710   -3.85999e+00   8.23483e-03 DIIS
   @RHF iter   6:  -411.64753395718316   -8.45067e+00   3.08767e-03 DIIS
   @RHF iter   7:  -412.39995154556487   -7.52418e-01   1.30079e-03 DIIS
   @RHF iter   8:  -412.52199139782368   -1.22040e-01   2.39663e-04 DIIS
   @RHF iter   9:  -412.52933700926525   -7.34561e-03   8.34723e-05 DIIS
   @RHF iter  10:  -412.53014293018458   -8.05921e-04   4.64298e-05 DIIS
   @RHF iter  11:  -412.53038576224839   -2.42832e-04   1.98729e-05 DIIS
   @RHF iter  12:  -412.53043563252226   -4.98703e-05   7.54340e-06 DIIS
   @RHF iter  13:  -412.53044281339299   -7.18087e-06   1.78676e-06 DIIS
   @RHF iter  14:  -412.53044347854114   -6.65148e-07   9.32371e-07 DIIS
   @RHF iter  15:  -412.53044365896102   -1.80420e-07   5.53348e-07 DIIS
   @RHF iter  16:  -412.53044372074345   -6.17824e-08   1.75801e-07 DIIS
   @RHF iter  17:  -412.53044373086067   -1.01172e-08   4.22084e-08 DIIS
   @RHF iter  18:  -412.53044373119093   -3.30260e-10   1.60507e-08 DIIS
   @RHF iter  19:  -412.53044373123220   -4.12683e-11   5.60079e-09 DIIS

  ==> Post-Iterations <==

	Orbital Energies (a.u.)
	-----------------------

	Doubly Occupied:                                                      

	   1A    -20.559249     2A    -20.553306     3A    -15.652093  
	   4A    -15.635750     5A    -11.429279     6A    -11.390039  
	   7A    -11.348016     8A    -11.262294     9A     -1.442197  
	  10A     -1.403903    11A     -1.318098    12A     -1.250774  
	  13A     -1.091541    14A     -0.936433    15A     -0.905904  
	  16A     -0.809655    17A     -0.767615    18A     -0.716511  
	  19A     -0.680290    20A     -0.669759    21A     -0.655088  
	  22A     -0.616545    23A     -0.602660    24A     -0.571517  
	  25A     -0.526270    26A     -0.484297    27A     -0.449601  
	  28A     -0.437040    29A     -0.368367  

	Virtual:                                                              

	  30A      0.016669    31A      0.030700    32A      0.037633  
	  33A      0.040855    34A      0.051680    35A      0.053341  
	  36A      0.059910    37A      0.063781    38A      0.069885  
	  39A      0.076898    40A      0.082585    41A      0.086613  
	  42A      0.092347    43A      0.098306    44A      0.104788  
	  45A      0.112052    46A      0.116872    47A      0.120260  
	  48A      0.122910    49A      0.126419    50A      0.129715  
	  51A      0.139040    52A      0.147792    53A      0.148742  
	  54A      0.151750    55A      0.154105    56A      0.157492  
	  57A      0.160731    58A      0.164289    59A      0.168434  
	  60A      0.171978    61A      0.176383    62A      0.177176  
	  63A      0.180332    64A      0.182805    65A      0.189279  
	  66A      0.191848    67A      0.201116    68A      0.202085  
	  69A      0.206331    70A      0.212888    71A      0.222238  
	  72A      0.226406    73A      0.228254    74A      0.237846  
	  75A      0.238922    76A      0.243753    77A      0.248713  
	  78A      0.251343    79A      0.257156    80A      0.271489  
	  81A      0.275121    82A      0.281384    83A      0.290362  
	  84A      0.293139    85A      0.295949    86A      0.303572  
	  87A      0.316143    88A      0.324247    89A      0.327825  
	  90A      0.333093    91A      0.335130    92A      0.341326  
	  93A      0.346383    94A      0.350759    95A      0.358401  
	  96A      0.360724    97A      0.364629    98A      0.380658  
	  99A      0.387006   100A      0.390860   101A      0.398523  
	 102A      0.400463   103A      0.404216   104A      0.410203  
	 105A      0.416291   106A      0.419559   107A      0.424479  
	 108A      0.427430   109A      0.434769   110A      0.442023  
	 111A      0.446831   112A      0.450666   113A      0.454417  
	 114A      0.457773   115A      0.465286   116A      0.475442  
	 117A      0.480585   118A      0.487559   119A      0.493041  
	 120A      0.500216   121A      0.508305   122A      0.512640  
	 123A      0.515643   124A      0.524584   125A      0.530705  
	 126A      0.537345   127A      0.540350   128A      0.544317  
	 129A      0.551411   130A      0.553761   131A      0.559208  
	 132A      0.566719   133A      0.571219   134A      0.575051  
	 135A      0.576492   136A      0.582193   137A      0.590886  
	 138A      0.600648   139A      0.601059   140A      0.619486  
	 141A      0.624874   142A      0.635060   143A      0.636239  
	 144A      0.640789   145A      0.642910   146A      0.653140  
	 147A      0.658182   148A      0.660528   149A      0.667628  
	 150A      0.674970   151A      0.686117   152A      0.698137  
	 153A      0.705368   154A      0.712871   155A      0.717616  
	 156A      0.721181   157A      0.732741   158A      0.733243  
	 159A      0.739083   160A      0.745067   161A      0.751983  
	 162A      0.766059   163A      0.770509   164A      0.773451  
	 165A      0.789090   166A      0.802230   167A      0.804735  
	 168A      0.812910   169A      0.814311   170A      0.831758  
	 171A      0.834066   172A      0.835924   173A      0.846565  
	 174A      0.848819   175A      0.856259   176A      0.863524  
	 177A      0.870313   178A      0.874138   179A      0.877839  
	 180A      0.890900   181A      0.897617   182A      0.898818  
	 183A      0.904797   184A      0.908241   185A      0.917019  
	 186A      0.922181   187A      0.926447   188A      0.931787  
	 189A      0.938183   190A      0.945280   191A      0.954926  
	 192A      0.963881   193A      0.967782   194A      0.992009  
	 195A      0.997449   196A      1.004549   197A      1.010505  
	 198A      1.012726   199A      1.018350   200A      1.027193  
	 201A      1.031438   202A      1.043970   203A      1.049016  
	 204A      1.058105   205A      1.065242   206A      1.079672  
	 207A      1.081479   208A      1.084939   209A      1.098163  
	 210A      1.104975   211A      1.114448   212A      1.122990  
	 213A      1.131733   214A      1.133694   215A      1.148009  
	 216A      1.153905   217A      1.154526   218A      1.170719  
	 219A      1.190972   220A      1.202120   221A      1.214197  
	 222A      1.226196   223A      1.242176   224A      1.244328  
	 225A      1.257255   226A      1.268023   227A      1.276729  
	 228A      1.278864   229A      1.296122   230A      1.312586  
	 231A      1.329861   232A      1.347933   233A      1.360735  
	 234A      1.373654   235A      1.386257   236A      1.409772  
	 237A      1.412818   238A      1.414161   239A      1.433036  
	 240A      1.462696   241A      1.472051   242A      1.500993  
	 243A      1.501283   244A      1.504370   245A      1.518321  
	 246A      1.520031   247A      1.530668   248A      1.547467  
	 249A      1.565964   250A      1.576733   251A      1.619589  
	 252A      1.622688   253A      1.635610   254A      1.674619  
	 255A      1.682826   256A      1.696668   257A      1.713906  
	 258A      1.729190   259A      1.754733   260A      1.788779  
	 261A      1.817786   262A      1.824222   263A      1.853917  
	 264A      1.868289   265A      1.874762   266A      1.900912  
	 267A      1.947105   268A      1.955068   269A      1.978540  
	 270A      1.991630   271A      2.003667   272A      2.017972  
	 273A      2.032323   274A      2.045593   275A      2.059775  
	 276A      2.101149   277A      2.117754   278A      2.128617  
	 279A      2.151468   280A      2.156163   281A      2.165507  
	 282A      2.173163   283A      2.201869   284A      2.208082  
	 285A      2.223902   286A      2.229329   287A      2.237307  
	 288A      2.249808   289A      2.259312   290A      2.264475  
	 291A      2.279931   292A      2.289710   293A      2.298932  
	 294A      2.314206   295A      2.320513   296A      2.327280  
	 297A      2.349511   298A      2.354005   299A      2.368736  
	 300A      2.375684   301A      2.389285   302A      2.402540  
	 303A      2.411915   304A      2.423113   305A      2.432944  
	 306A      2.457394   307A      2.463274   308A      2.478339  
	 309A      2.494719   310A      2.512389   311A      2.520280  
	 312A      2.536838   313A      2.541626   314A      2.552747  
	 315A      2.566120   316A      2.574373   317A      2.591388  
	 318A      2.621286   319A      2.624265   320A      2.630550  
	 321A      2.642119   322A      2.655138   323A      2.656730  
	 324A      2.660434   325A      2.671974   326A      2.682096  
	 327A      2.686116   328A      2.696876   329A      2.706772  
	 330A      2.741703   331A      2.748399   332A      2.756146  
	 333A      2.791600   334A      2.804944   335A      2.819694  
	 336A      2.837318   337A      2.847028   338A      2.865795  
	 339A      2.877061   340A      2.892920   341A      2.896483  
	 342A      2.902383   343A      2.911227   344A      2.918564  
	 345A      2.932093   346A      2.941428   347A      2.947797  
	 348A      2.959598   349A      2.982996   350A      2.996471  
	 351A      3.017667   352A      3.037631   353A      3.074241  
	 354A      3.153062   355A      3.199343   356A      3.199919  
	 357A      3.224877   358A      3.249059   359A      3.267729  
	 360A      3.337618   361A      3.350768   362A      3.373893  
	 363A      3.437089   364A      3.447218   365A      3.465150  
	 366A      3.487617   367A      3.493329   368A      3.499729  
	 369A      3.546165   370A      3.551265   371A      3.556454  
	 372A      3.571469   373A      3.605941   374A      3.622905  
	 375A      3.639940   376A      3.700019   377A      3.751152  
	 378A      3.795908   379A      3.821848   380A      3.833011  
	 381A      3.864578   382A      3.876251   383A      3.888655  
	 384A      3.917584   385A      4.005776   386A      4.013111  
	 387A      4.031852   388A      4.044634   389A      4.073218  
	 390A      4.088428   391A      4.101819   392A      4.122559  
	 393A      4.204377   394A      4.364811   395A      4.399490  
	 396A      4.414999   397A      4.683466   398A      4.894818  
	 399A      4.916172   400A      5.354210   401A      5.460923  
	 402A      5.464371   403A      5.478425   404A      5.479608  
	 405A      5.649736   406A      6.145890   407A     18.003053  
	 408A     18.416358   409A     18.424024   410A     19.038119  
	 411A     19.051512   412A     20.750044  

	Final Occupation by Irrep:
	          A 
	DOCC [    29 ]

  Energy converged.

  @RHF Final Energy:  -412.53044373123220

   => Energetics <=

    Nuclear Repulsion Energy =            357.1694813170761904
    One-Electron Energy =               -1270.3316657097407187
    Two-Electron Energy =                 500.6317406614325591
    DFT Exchange-Correlation Energy =       0.0000000000000000
    Empirical Dispersion Energy =           0.0000000000000000
    Total Energy =                       -412.5304437312320260



Properties will be evaluated at   0.000000,   0.000000,   0.000000 Bohr
  ==> Properties <==


Properties computed using the SCF density density matrix
  Nuclear Dipole Moment: (a.u.)
     X:     7.4071      Y:   -20.2250      Z:   158.8187

  Electronic Dipole Moment: (a.u.)
     X:    -7.1735      Y:    18.3037      Z:  -158.4194

  Dipole Moment: (a.u.)
     X:     0.2336      Y:    -1.9213      Z:     0.3993     Total:     1.9762

  Dipole Moment: (Debye)
     X:     0.5937      Y:    -4.8834      Z:     1.0149     Total:     5.0229


  Saving occupied orbitals to File 180.

  Saving SAPT 2-MONOMER_B file.

*** tstop() called on genome.bme.utexas.edu at Mon Sep 30 11:38:10 2013
Module time:
	user time   =     265.16 seconds =       4.42 minutes
	system time =       3.52 seconds =       0.06 minutes
	total time  =         71 seconds =       1.18 minutes
Total time:
	user time   =     829.50 seconds =      13.82 minutes
	system time =      12.49 seconds =       0.21 minutes
	total time  =        227 seconds =       3.78 minutes
  No DF_BASIS_SAPT auxiliary basis selected, defaulting to aug-cc-pvdz-ri

  //>>>>>>>>>>>>>>>>>>>>>>>>>>>>>>>>>>>//
  //               SAPT2+              //
  //<<<<<<<<<<<<<<<<<<<<<<<<<<<<<<<<<<<//


*** tstart() called on genome.bme.utexas.edu
*** at Mon Sep 30 11:38:10 2013

        SAPT2+  
    Ed Hohenstein
     6 June 2009

      Orbital Information
  --------------------------
    NSO        =       412
    NMO        =       412
    NRI        =      1238
    NOCC A     =        21
    NOCC B     =        29
    FOCC A     =         6
    FOCC B     =         8
    NVIR A     =       391
    NVIR B     =       383

    Estimated memory usage: 4599.9 MB

    Elst10,r            =    -0.006197843724 H
    Exch10 (S^2)        =     0.010780521389 H
    Exch10              =     0.010801851365 H
    Ind20,r (A<-B)      =    -0.005103154221 H
    Ind20,r (B<-A)      =    -0.000800562797 H
    Ind20,r             =    -0.005903717018 H
    Exch-Ind20,r (A<-B) =     0.004548226304 H
    Exch-Ind20,r (B<-A) =     0.000590331671 H
    Exch-Ind20,r        =     0.005138557975 H
    Disp20              =    -0.016061940162 H
    Exch-Disp20         =     0.001714984425 H
    Elst12,r            =     0.000279670033 H
    Exch11              =     0.000215905553 H
    Exch12              =     0.000414359085 H
    Ind22               =     0.000092341031 H
    Disp21              =     0.004856579206 H
    Disp22 (SDQ)        =    -0.000411395273 H

    (i =   1 of  21)       1354 seconds
    (i =   2 of  21)       2869 seconds
    (i =   3 of  21)       4433 seconds
    (i =   4 of  21)       5919 seconds
    (i =   5 of  21)       7407 seconds
    (i =   6 of  21)       8802 seconds
    (i =   7 of  21)      10238 seconds
    (i =   8 of  21)      11840 seconds
    (i =   9 of  21)      13399 seconds
    (i =  10 of  21)      14997 seconds
    (i =  11 of  21)      16578 seconds
    (i =  12 of  21)      18224 seconds
    (i =  13 of  21)      19795 seconds
    (i =  14 of  21)      21337 seconds
    (i =  15 of  21)      22762 seconds
    (i =  16 of  21)      24267 seconds
    (i =  17 of  21)      25687 seconds
    (i =  18 of  21)      27050 seconds
    (i =  19 of  21)      28435 seconds
    (i =  20 of  21)      29978 seconds
    (i =  21 of  21)      31564 seconds

    Disp220 (T)         =    -0.001602669168 H

    (i =   1 of  15)       2630 seconds
    (i =   2 of  15)       5217 seconds
    (i =   3 of  15)       7833 seconds
    (i =   4 of  15)      10743 seconds
    (i =   5 of  15)      13466 seconds
    (i =   6 of  15)      16416 seconds
    (i =   7 of  15)      19099 seconds
    (i =   8 of  15)      21734 seconds
    (i =   9 of  15)      24214 seconds
    (i =  10 of  15)      26738 seconds
    (i =  11 of  15)      29329 seconds
    (i =  12 of  15)      31881 seconds
    (i =  13 of  15)      34374 seconds
    (i =  14 of  15)      36958 seconds
    (i =  15 of  15)      39331 seconds

    Disp202 (T)         =    -0.001857430445 H

    Disp22 (T)          =    -0.003460099613 H

    SAPT Results  
  -----------------------------------------------------------------------
    Electrostatics          -5.91817369 mH      -3.71371021 kcal mol^-1
      Elst10,r              -6.19784372 mH      -3.88920582 kcal mol^-1
      Elst12,r               0.27967003 mH       0.17549560 kcal mol^-1

    Exchange                11.43211600 mH       7.17376140 kcal mol^-1
      Exch10                10.80185137 mH       6.77826435 kcal mol^-1
      Exch10(S^2)           10.78052139 mH       6.76487959 kcal mol^-1
      Exch11(S^2)            0.21590555 mH       0.13548279 kcal mol^-1
      Exch12(S^2)            0.41435909 mH       0.26001426 kcal mol^-1

    Induction               -1.39616643 mH      -0.87610770 kcal mol^-1
      Ind20,r               -5.90371702 mH      -3.70463851 kcal mol^-1
      Ind22                  0.09234103 mH       0.05794487 kcal mol^-1
      Exch-Ind20,r           5.13855797 mH       3.22449395 kcal mol^-1
      Exch-Ind22            -0.08037305 mH      -0.05043485 kcal mol^-1
      delta HF,r (2)        -0.64297537 mH      -0.40347315 kcal mol^-1

    Dispersion             -13.36187142 mH      -8.38470125 kcal mol^-1
      Disp20               -16.06194016 mH     -10.07902004 kcal mol^-1
      Disp21                 4.85657921 mH       3.04754959 kcal mol^-1
      Disp22 (SDQ)          -0.41139527 mH      -0.25815444 kcal mol^-1
      Disp22 (T)            -3.46009961 mH      -2.17124538 kcal mol^-1
      Exch-Disp20            1.71498443 mH       1.07616902 kcal mol^-1

    Total HF                 3.19587323 mH       2.00544081 kcal mol^-1
    Total SAPT0            -11.15108251 mH      -6.99741021 kcal mol^-1
    Total SAPT2            -10.22917986 mH      -6.41890754 kcal mol^-1
    Total SAPT2+            -9.24409554 mH      -5.80075777 kcal mol^-1

*** tstop() called on genome.bme.utexas.edu at Tue Oct  1 08:28:15 2013
Module time:
	user time   =  231470.65 seconds =    3857.84 minutes
	system time =     655.30 seconds =      10.92 minutes
	total time  =      75005 seconds =    1250.08 minutes
Total time:
	user time   =  232300.15 seconds =    3871.67 minutes
	system time =     667.79 seconds =      11.13 minutes
	total time  =      75232 seconds =    1253.87 minutes

*** PSI4 exiting successfully. Buy a developer a beer!
