    -----------------------------------------------------------------------
          PSI4: An Open-Source Ab Initio Electronic Structure Package
                              PSI 4.0.0-beta4 Driver

    J. M. Turney, A. C. Simmonett, R. M. Parrish, E. G. Hohenstein,
    F. A. Evangelista, J. T. Fermann, B. J. Mintz, L. A. Burns, J. J. Wilke,
    M. L. Abrams, N. J. Russ, M. L. Leininger, C. L. Janssen, E. T. Seidl,
    W. D. Allen, H. F. Schaefer, R. A. King, E. F. Valeev, C. D. Sherrill,
    and T. D. Crawford, WIREs Comput. Mol. Sci., (2011) (doi: 10.1002/wcms.93)

                         Additional Contributions by
    A. E. DePrince, M. Saitow, U. Bozkaya, A. Yu. Sokolov
    -----------------------------------------------------------------------

    Process ID:  19705
    PSI4DATADIR: /home/xzhu216/psi4/psi4-install/share/psi

    Using LocalCommunicator (Number of processes = 1)

    Memory level set to 256.000 MB

  ==> Input File <==

--------------------------------------------------------------------------
#psi4
#
memory 7 gb

molecule Pyridine_Uracil {
0 1
    N     1.210755335     0.028675778     0.329711113
    C     0.611934970    -1.158449011     0.153451764
    H     1.251477905    -2.029523404     0.219292947
    C    -0.751313990    -1.308649559    -0.088834071
    H    -1.170415774    -2.296869318    -0.213383204
    C    -1.547867670    -0.169940268    -0.156466912
    H    -2.611012747    -0.245954694    -0.338755744
    C    -0.943622374     1.070636117     0.019823098
    H    -1.518814305     1.984500285    -0.011644028
    C     0.427718570     1.116108629     0.257348792
    H     0.924694513     2.068051734     0.397547985
--
0 1
    N    -0.803793994    -0.335850821     2.281639813
    H    -1.698683013    -0.767714312     2.097036325
    C    -0.803539108     1.061958971     2.374650814
    O    -1.843422185     1.690158774     2.259800684
    C     0.515955645     1.621040316     2.602213881
    H     0.617272011     2.688262486     2.698082062
    C     1.585829236     0.802348014     2.673733934
    H     2.589708276     1.171012712     2.822160467
    N     1.467768095    -0.554945250     2.561179270
    H     2.281204089    -1.147132600     2.553011631
    C     0.267321158    -1.202177678     2.334797573
    O     0.175183911    -2.407595754     2.201218294
units angstrom
no_reorient  #important for SAPT in psi4, default
symmetry c1  #important for SAPT in psi4, default
}

set {
basis aug-cc-pVDZ
scf_type DF
freeze_core True
}
energy('sapt2+')
--------------------------------------------------------------------------

  Memory set to   7.000 GiB by Python script.

  //>>>>>>>>>>>>>>>>>>>>>>>>>>>>>>>>>>>//
  //              Dimer HF             //
  //<<<<<<<<<<<<<<<<<<<<<<<<<<<<<<<<<<<//


  No DF_BASIS_SCF auxiliary basis selected, defaulting to aug-cc-pvdz-jkfit


*** tstart() called on node114.bme.utexas.edu
*** at Sun Feb 16 13:47:27 2014


         ---------------------------------------------------------
                                   SCF
            by Justin Turney, Rob Parrish, and Andy Simmonett
                              RHF Reference
                        4 Threads,   7000 MiB Core
         ---------------------------------------------------------

  ==> Geometry <==

    Molecular point group: c1
    Full point group: C1

    Geometry (in Angstrom), charge = 0, multiplicity = 1:

       Center              X                  Y                   Z       
    ------------   -----------------  -----------------  -----------------
           N          1.249546033771     0.029290164175    -1.115506190882
           C          0.650725668771    -1.157834624825    -1.291765539882
           H          1.290268603771    -2.028909017825    -1.225924356882
           C         -0.712523291229    -1.308035172825    -1.534051374882
           H         -1.131625075229    -2.296254931825    -1.658600507882
           C         -1.509076971229    -0.169325881825    -1.601684215882
           H         -2.572222048229    -0.245340307825    -1.783973047882
           C         -0.904831675229     1.071250503175    -1.425394205882
           H         -1.480023606229     1.985114671175    -1.456861331882
           C          0.466509268771     1.116723015175    -1.187868511882
           H          0.963485211771     2.068666120175    -1.047669318882
           N         -0.765003295229    -0.335236434825     0.836422509118
           H         -1.659892314229    -0.767099925825     0.651819021118
           C         -0.764748409229     1.062573357175     0.929433510118
           O         -1.804631486229     1.690773160175     0.814583380118
           C          0.554746343771     1.621654702175     1.156996577118
           H          0.656062709771     2.688876872175     1.252864758118
           C          1.624619934771     0.802962400175     1.228516630118
           H          2.628498974771     1.171627098175     1.376943163118
           N          1.506558793771    -0.554330863825     1.115961966118
           H          2.319994787771    -1.146518213825     1.107794327118
           C          0.306111856771    -1.201563291825     0.889580269118
           O          0.213974609771    -2.406981367825     0.756000990118

  Running in c1 symmetry.

  Nuclear repulsion =  973.936118176783566

  Charge       = 0
  Multiplicity = 1
  Electrons    = 100
  Nalpha       = 50
  Nbeta        = 50

  ==> Algorithm <==

  SCF Algorithm Type is DF.
  DIIS enabled.
  MOM disabled.
  Fractional occupation disabled.
  Guess Type is CORE.
  Energy threshold   = 1.00e-08
  Density threshold  = 1.00e-08
  Integral threshold = 0.00e+00

  ==> Primary Basis <==

  Basis Set: AUG-CC-PVDZ
    Number of shells: 171
    Number of basis function: 403
    Number of Cartesian functions: 431
    Spherical Harmonics?: true
    Max angular momentum: 2

  ==> Pre-Iterations <==

   -------------------------------------------------------
    Irrep   Nso     Nmo     Nalpha   Nbeta   Ndocc  Nsocc
   -------------------------------------------------------
     A        403     403       0       0       0       0
   -------------------------------------------------------
    Total     403     403      50      50      50       0
   -------------------------------------------------------

 OEINTS: Wrapper to libmints.
   by Justin Turney

   Calculation information:
      Number of atoms:                  23
      Number of AO shells:             171
      Number of SO shells:             171
      Number of primitives:            413
      Number of atomic orbitals:       431
      Number of basis functions:       403

      Number of irreps:                  1
      Number of functions per irrep: [ 403 ]

      Overlap, kinetic, potential, dipole, and quadrupole integrals
        stored in file 35.

  ==> Integral Setup <==

  ==> DFJK: Density-Fitted J/K Matrices <==

    J tasked:                  Yes
    K tasked:                  Yes
    wK tasked:                  No
    OpenMP threads:              4
    Integrals threads:           4
    Memory (MB):              5006
    Algorithm:                Core
    Integral Cache:           SAVE
    Schwarz Cutoff:          0E+00
    Fitting Condition:       1E-12

   => Auxiliary Basis Set <=

  Basis Set: aug-cc-pvdz-jkfit
    Number of shells: 500
    Number of basis function: 1492
    Number of Cartesian functions: 1729
    Spherical Harmonics?: true
    Max angular momentum: 3

  Minimum eigenvalue in the overlap matrix is 3.9396471239E-06.
  Using Symmetric Orthogonalization.
  SCF Guess: Core (One-Electron) Hamiltonian.

  Guess energy:  -537.31768631666182

  ==> Iterations <==

                        Total Energy        Delta E     RMS |[F,P]|

   @RHF iter   1:  -504.08942302331275   -5.04089e+02   3.10488e-02 
   @RHF iter   2:  -427.70728106487036    7.63821e+01   2.89410e-02 DIIS
   @RHF iter   3:  -525.42921989701313   -9.77219e+01   3.26039e-02 DIIS
   @RHF iter   4:  -626.52404393998313   -1.01095e+02   1.62294e-02 DIIS
   @RHF iter   5:  -586.55696863732010    3.99671e+01   2.47457e-02 DIIS
   @RHF iter   6:  -648.21025144670193   -6.16533e+01   1.00487e-02 DIIS
   @RHF iter   7:  -656.55868697706683   -8.34844e+00   4.33723e-03 DIIS
   @RHF iter   8:  -655.06425344774425    1.49443e+00   5.67663e-03 DIIS
   @RHF iter   9:  -658.96148556204048   -3.89723e+00   1.11483e-03 DIIS
   @RHF iter  10:  -659.05317929789089   -9.16937e-02   5.82012e-04 DIIS
   @RHF iter  11:  -659.07965246110030   -2.64732e-02   2.99797e-04 DIIS
   @RHF iter  12:  -659.08997328043552   -1.03208e-02   7.33141e-05 DIIS
   @RHF iter  13:  -659.09067817436357   -7.04894e-04   3.70679e-05 DIIS
   @RHF iter  14:  -659.09092993095305   -2.51757e-04   1.66422e-05 DIIS
   @RHF iter  15:  -659.09100469310260   -7.47621e-05   8.32842e-06 DIIS
   @RHF iter  16:  -659.09102476506246   -2.00720e-05   3.46771e-06 DIIS
   @RHF iter  17:  -659.09102839654179   -3.63148e-06   1.26812e-06 DIIS
   @RHF iter  18:  -659.09102891238672   -5.15845e-07   6.39966e-07 DIIS
   @RHF iter  19:  -659.09102904508836   -1.32702e-07   3.01248e-07 DIIS
   @RHF iter  20:  -659.09102908307364   -3.79853e-08   9.02032e-08 DIIS
   @RHF iter  21:  -659.09102908568229   -2.60866e-09   3.78251e-08 DIIS
   @RHF iter  22:  -659.09102908594377   -2.61480e-10   1.20055e-08 DIIS
   @RHF iter  23:  -659.09102908598061   -3.68345e-11   6.00344e-09 DIIS

  ==> Post-Iterations <==

	Orbital Energies (a.u.)
	-----------------------

	Doubly Occupied:                                                      

	   1A    -20.551647     2A    -20.544423     3A    -15.635186  
	   4A    -15.620987     5A    -15.576664     6A    -11.423080  
	   7A    -11.386672     8A    -11.331796     9A    -11.281265  
	  10A    -11.278914    11A    -11.254585    12A    -11.252687  
	  13A    -11.238620    14A    -11.237572    15A     -1.443968  
	  16A     -1.403840    17A     -1.317776    18A     -1.265169  
	  19A     -1.245815    20A     -1.094864    21A     -1.091489  
	  22A     -1.037951    23A     -0.932435    24A     -0.900941  
	  25A     -0.863309    26A     -0.861480    27A     -0.804098  
	  28A     -0.761329    29A     -0.730586    30A     -0.706007  
	  31A     -0.698540    32A     -0.676826    33A     -0.661692  
	  34A     -0.654959    35A     -0.650152    36A     -0.611956  
	  37A     -0.605271    38A     -0.597530    39A     -0.585392  
	  40A     -0.575052    41A     -0.532757    42A     -0.517446  
	  43A     -0.496040    44A     -0.477333    45A     -0.445545  
	  46A     -0.437230    47A     -0.422838    48A     -0.371727  
	  49A     -0.361873    50A     -0.312042  

	Virtual:                                                              

	  51A      0.025261    52A      0.039957    53A      0.040415  
	  54A      0.049364    55A      0.054923    56A      0.055717  
	  57A      0.063528    58A      0.070378    59A      0.072477  
	  60A      0.074393    61A      0.088564    62A      0.096246  
	  63A      0.097279    64A      0.110510    65A      0.113206  
	  66A      0.118498    67A      0.125485    68A      0.128104  
	  69A      0.133632    70A      0.135519    71A      0.142813  
	  72A      0.146765    73A      0.148056    74A      0.152052  
	  75A      0.154884    76A      0.157542    77A      0.164185  
	  78A      0.165386    79A      0.169196    80A      0.173575  
	  81A      0.175931    82A      0.178124    83A      0.181206  
	  84A      0.185532    85A      0.187458    86A      0.191931  
	  87A      0.200340    88A      0.204856    89A      0.207993  
	  90A      0.210918    91A      0.219020    92A      0.235370  
	  93A      0.239680    94A      0.247954    95A      0.263941  
	  96A      0.268019    97A      0.276195    98A      0.282276  
	  99A      0.295526   100A      0.299593   101A      0.302850  
	 102A      0.310090   103A      0.313000   104A      0.318083  
	 105A      0.322343   106A      0.325117   107A      0.330000  
	 108A      0.334974   109A      0.337687   110A      0.341861  
	 111A      0.350400   112A      0.354169   113A      0.356161  
	 114A      0.361544   115A      0.368435   116A      0.369787  
	 117A      0.376325   118A      0.387361   119A      0.394321  
	 120A      0.400205   121A      0.406530   122A      0.408645  
	 123A      0.414376   124A      0.419277   125A      0.426193  
	 126A      0.431010   127A      0.433836   128A      0.436544  
	 129A      0.439327   130A      0.448983   131A      0.454147  
	 132A      0.464348   133A      0.465901   134A      0.470800  
	 135A      0.478513   136A      0.481339   137A      0.491857  
	 138A      0.500274   139A      0.515632   140A      0.525060  
	 141A      0.529216   142A      0.539843   143A      0.543812  
	 144A      0.552993   145A      0.557383   146A      0.563158  
	 147A      0.573849   148A      0.581557   149A      0.587366  
	 150A      0.594308   151A      0.596180   152A      0.606695  
	 153A      0.610161   154A      0.618830   155A      0.621835  
	 156A      0.626567   157A      0.635121   158A      0.640527  
	 159A      0.640895   160A      0.651081   161A      0.661439  
	 162A      0.668019   163A      0.674271   164A      0.680103  
	 165A      0.685616   166A      0.690302   167A      0.694131  
	 168A      0.702332   169A      0.710176   170A      0.724069  
	 171A      0.727042   172A      0.733224   173A      0.737841  
	 174A      0.740765   175A      0.743665   176A      0.759343  
	 177A      0.762049   178A      0.768811   179A      0.778675  
	 180A      0.783183   181A      0.789458   182A      0.799311  
	 183A      0.802535   184A      0.810119   185A      0.822646  
	 186A      0.826516   187A      0.834299   188A      0.837893  
	 189A      0.849647   190A      0.850632   191A      0.862853  
	 192A      0.866843   193A      0.866929   194A      0.873608  
	 195A      0.877115   196A      0.881620   197A      0.886078  
	 198A      0.893044   199A      0.898781   200A      0.914142  
	 201A      0.921685   202A      0.939731   203A      0.940380  
	 204A      0.945603   205A      0.960273   206A      0.967784  
	 207A      0.984246   208A      1.000122   209A      1.009295  
	 210A      1.019245   211A      1.020971   212A      1.026443  
	 213A      1.036533   214A      1.041565   215A      1.051614  
	 216A      1.055090   217A      1.059862   218A      1.068494  
	 219A      1.083008   220A      1.104312   221A      1.107398  
	 222A      1.127350   223A      1.131886   224A      1.138266  
	 225A      1.146778   226A      1.156905   227A      1.174212  
	 228A      1.184070   229A      1.199910   230A      1.202392  
	 231A      1.217675   232A      1.228424   233A      1.238776  
	 234A      1.241913   235A      1.257322   236A      1.261440  
	 237A      1.289320   238A      1.310234   239A      1.347539  
	 240A      1.349018   241A      1.360373   242A      1.381479  
	 243A      1.387900   244A      1.397879   245A      1.420018  
	 246A      1.429112   247A      1.437093   248A      1.443049  
	 249A      1.452167   250A      1.457078   251A      1.483266  
	 252A      1.496815   253A      1.512398   254A      1.525763  
	 255A      1.531923   256A      1.536126   257A      1.560410  
	 258A      1.563285   259A      1.578959   260A      1.596684  
	 261A      1.603381   262A      1.609827   263A      1.637092  
	 264A      1.643431   265A      1.648516   266A      1.663652  
	 267A      1.666067   268A      1.685798   269A      1.685986  
	 270A      1.707931   271A      1.718929   272A      1.729604  
	 273A      1.736880   274A      1.744975   275A      1.756811  
	 276A      1.771808   277A      1.786692   278A      1.807927  
	 279A      1.814619   280A      1.826038   281A      1.845654  
	 282A      1.857647   283A      1.866887   284A      1.881651  
	 285A      1.899797   286A      1.908204   287A      1.929396  
	 288A      1.933003   289A      1.944485   290A      1.954850  
	 291A      1.964193   292A      1.978837   293A      1.992841  
	 294A      2.010256   295A      2.019811   296A      2.022837  
	 297A      2.041457   298A      2.052358   299A      2.070382  
	 300A      2.075022   301A      2.092876   302A      2.111672  
	 303A      2.129058   304A      2.150165   305A      2.158214  
	 306A      2.167690   307A      2.183940   308A      2.192315  
	 309A      2.197122   310A      2.222745   311A      2.230985  
	 312A      2.239184   313A      2.261011   314A      2.271457  
	 315A      2.276578   316A      2.285216   317A      2.301600  
	 318A      2.304848   319A      2.324631   320A      2.329752  
	 321A      2.343820   322A      2.359936   323A      2.361829  
	 324A      2.373953   325A      2.379964   326A      2.398970  
	 327A      2.418864   328A      2.422998   329A      2.430020  
	 330A      2.455035   331A      2.467030   332A      2.478080  
	 333A      2.500553   334A      2.525196   335A      2.548564  
	 336A      2.567783   337A      2.573337   338A      2.591820  
	 339A      2.603390   340A      2.618994   341A      2.620939  
	 342A      2.638611   343A      2.648826   344A      2.669249  
	 345A      2.682404   346A      2.694176   347A      2.720749  
	 348A      2.723897   349A      2.740345   350A      2.779808  
	 351A      2.787813   352A      2.810534   353A      2.838513  
	 354A      2.843943   355A      2.892323   356A      2.919818  
	 357A      2.922692   358A      2.940294   359A      2.946370  
	 360A      2.975844   361A      2.986729   362A      3.005851  
	 363A      3.013045   364A      3.029373   365A      3.040608  
	 366A      3.051982   367A      3.086704   368A      3.100167  
	 369A      3.119363   370A      3.149585   371A      3.158141  
	 372A      3.209897   373A      3.241133   374A      3.259087  
	 375A      3.299067   376A      3.323905   377A      3.338516  
	 378A      3.359531   379A      3.386627   380A      3.419693  
	 381A      3.443673   382A      3.494582   383A      3.520471  
	 384A      3.587281   385A      3.638675   386A      3.770638  
	 387A      3.807072   388A      3.873346   389A      3.892380  
	 390A      3.916644   391A      3.935037   392A      3.961119  
	 393A      3.976440   394A      4.011544   395A      4.037279  
	 396A      4.053431   397A      4.073999   398A      4.118372  
	 399A      4.191912   400A      4.236731   401A      4.306798  
	 402A      4.705847   403A      5.007492  

	Final Occupation by Irrep:
	          A 
	DOCC [    50 ]

  Energy converged.

  @RHF Final Energy:  -659.09102908598061

   => Energetics <=

    Nuclear Repulsion Energy =            973.9361181767835660
    One-Electron Energy =               -2832.5195876574857721
    Two-Electron Energy =                1199.4924403947218252
    DFT Exchange-Correlation Energy =       0.0000000000000000
    Empirical Dispersion Energy =           0.0000000000000000
    Total Energy =                       -659.0910290859803808



Properties will be evaluated at   0.000000,   0.000000,   0.000000 Bohr
  ==> Properties <==


Properties computed using the SCF density density matrix
  Nuclear Dipole Moment: (a.u.)
     X:     0.9377      Y:     1.3398      Z:    -2.6044

  Electronic Dipole Moment: (a.u.)
     X:     0.1443      Y:    -1.0698      Z:     2.7113

  Dipole Moment: (a.u.)
     X:     1.0820      Y:     0.2700      Z:     0.1069     Total:     1.1203

  Dipole Moment: (Debye)
     X:     2.7501      Y:     0.6863      Z:     0.2717     Total:     2.8475


  Saving occupied orbitals to File 180.

  Saving SAPT 2-DIMER file.

*** tstop() called on node114.bme.utexas.edu at Sun Feb 16 13:49:32 2014
Module time:
	user time   =     469.65 seconds =       7.83 minutes
	system time =       3.60 seconds =       0.06 minutes
	total time  =        125 seconds =       2.08 minutes
Total time:
	user time   =     469.65 seconds =       7.83 minutes
	system time =       3.60 seconds =       0.06 minutes
	total time  =        125 seconds =       2.08 minutes

  //>>>>>>>>>>>>>>>>>>>>>>>>>>>>>>>>>>>//
  //            Monomer A HF           //
  //<<<<<<<<<<<<<<<<<<<<<<<<<<<<<<<<<<<//


  No DF_BASIS_SCF auxiliary basis selected, defaulting to aug-cc-pvdz-jkfit


*** tstart() called on node114.bme.utexas.edu
*** at Sun Feb 16 13:49:32 2014


         ---------------------------------------------------------
                                   SCF
            by Justin Turney, Rob Parrish, and Andy Simmonett
                              RHF Reference
                        4 Threads,   7000 MiB Core
         ---------------------------------------------------------

  ==> Geometry <==

    Molecular point group: c1
    Full point group: C1

    Geometry (in Angstrom), charge = 0, multiplicity = 1:

       Center              X                  Y                   Z       
    ------------   -----------------  -----------------  -----------------
           N          1.249546033771     0.029290164175    -1.115506190882
           C          0.650725668771    -1.157834624825    -1.291765539882
           H          1.290268603771    -2.028909017825    -1.225924356882
           C         -0.712523291229    -1.308035172825    -1.534051374882
           H         -1.131625075229    -2.296254931825    -1.658600507882
           C         -1.509076971229    -0.169325881825    -1.601684215882
           H         -2.572222048229    -0.245340307825    -1.783973047882
           C         -0.904831675229     1.071250503175    -1.425394205882
           H         -1.480023606229     1.985114671175    -1.456861331882
           C          0.466509268771     1.116723015175    -1.187868511882
           H          0.963485211771     2.068666120175    -1.047669318882
           N(Gh)     -0.765003295229    -0.335236434825     0.836422509118
           H(Gh)     -1.659892314229    -0.767099925825     0.651819021118
           C(Gh)     -0.764748409229     1.062573357175     0.929433510118
           O(Gh)     -1.804631486229     1.690773160175     0.814583380118
           C(Gh)      0.554746343771     1.621654702175     1.156996577118
           H(Gh)      0.656062709771     2.688876872175     1.252864758118
           C(Gh)      1.624619934771     0.802962400175     1.228516630118
           H(Gh)      2.628498974771     1.171627098175     1.376943163118
           N(Gh)      1.506558793771    -0.554330863825     1.115961966118
           H(Gh)      2.319994787771    -1.146518213825     1.107794327118
           C(Gh)      0.306111856771    -1.201563291825     0.889580269118
           O(Gh)      0.213974609771    -2.406981367825     0.756000990118

  Running in c1 symmetry.

  Nuclear repulsion =  206.160400215420907

  Charge       = 0
  Multiplicity = 1
  Electrons    = 42
  Nalpha       = 21
  Nbeta        = 21

  ==> Algorithm <==

  SCF Algorithm Type is DF.
  DIIS enabled.
  MOM disabled.
  Fractional occupation disabled.
  Guess Type is CORE.
  Energy threshold   = 1.00e-08
  Density threshold  = 1.00e-08
  Integral threshold = 0.00e+00

  ==> Primary Basis <==

  Basis Set: AUG-CC-PVDZ
    Number of shells: 171
    Number of basis function: 403
    Number of Cartesian functions: 431
    Spherical Harmonics?: true
    Max angular momentum: 2

  ==> Pre-Iterations <==

   -------------------------------------------------------
    Irrep   Nso     Nmo     Nalpha   Nbeta   Ndocc  Nsocc
   -------------------------------------------------------
     A        403     403       0       0       0       0
   -------------------------------------------------------
    Total     403     403      21      21      21       0
   -------------------------------------------------------

 OEINTS: Wrapper to libmints.
   by Justin Turney

   Calculation information:
      Number of atoms:                  23
      Number of AO shells:             171
      Number of SO shells:             171
      Number of primitives:            413
      Number of atomic orbitals:       431
      Number of basis functions:       403

      Number of irreps:                  1
      Number of functions per irrep: [ 403 ]

      Overlap, kinetic, potential, dipole, and quadrupole integrals
        stored in file 35.

  ==> Integral Setup <==

  ==> DFJK: Density-Fitted J/K Matrices <==

    J tasked:                  Yes
    K tasked:                  Yes
    wK tasked:                  No
    OpenMP threads:              4
    Integrals threads:           4
    Memory (MB):              5006
    Algorithm:                Core
    Integral Cache:           LOAD
    Schwarz Cutoff:          0E+00
    Fitting Condition:       1E-12

   => Auxiliary Basis Set <=

  Basis Set: aug-cc-pvdz-jkfit
    Number of shells: 500
    Number of basis function: 1492
    Number of Cartesian functions: 1729
    Spherical Harmonics?: true
    Max angular momentum: 3

  Minimum eigenvalue in the overlap matrix is 3.9396471238E-06.
  Using Symmetric Orthogonalization.
  SCF Guess: Core (One-Electron) Hamiltonian.

  Guess energy:  -191.16327561835328

  ==> Iterations <==

                        Total Energy        Delta E     RMS |[F,P]|

   @RHF iter   1:  -205.44222983105340   -2.05442e+02   1.54617e-02 
   @RHF iter   2:  -179.98741542983134    2.54548e+01   1.42277e-02 DIIS
   @RHF iter   3:  -236.26199777339713   -5.62746e+01   8.41037e-03 DIIS
   @RHF iter   4:  -244.51806952790446   -8.25607e+00   5.11715e-03 DIIS
   @RHF iter   5:  -246.24909699237099   -1.73103e+00   2.18100e-03 DIIS
   @RHF iter   6:  -246.65736291424588   -4.08266e-01   7.29077e-04 DIIS
   @RHF iter   7:  -246.71411180210265   -5.67489e-02   3.17971e-04 DIIS
   @RHF iter   8:  -246.72600261042692   -1.18908e-02   4.28223e-05 DIIS
   @RHF iter   9:  -246.72638247838131   -3.79868e-04   1.66042e-05 DIIS
   @RHF iter  10:  -246.72642956688804   -4.70885e-05   6.97026e-06 DIIS
   @RHF iter  11:  -246.72643605458029   -6.48769e-06   2.53516e-06 DIIS
   @RHF iter  12:  -246.72643750486543   -1.45029e-06   7.65889e-07 DIIS
   @RHF iter  13:  -246.72643769647277   -1.91607e-07   3.66758e-07 DIIS
   @RHF iter  14:  -246.72643774394817   -4.74754e-08   1.50578e-07 DIIS
   @RHF iter  15:  -246.72643775066604   -6.71787e-09   4.78032e-08 DIIS
   @RHF iter  16:  -246.72643775125198   -5.85942e-10   1.11312e-08 DIIS
   @RHF iter  17:  -246.72643775127773   -2.57501e-11   2.28729e-09 DIIS

  ==> Post-Iterations <==

	Orbital Energies (a.u.)
	-----------------------

	Doubly Occupied:                                                      

	   1A    -15.576088     2A    -11.282035     3A    -11.281787  
	   4A    -11.266758     5A    -11.248863     6A    -11.248693  
	   7A     -1.258917     8A     -1.092223     9A     -1.036058  
	  10A     -0.861186    11A     -0.857305    12A     -0.722400  
	  13A     -0.660949    14A     -0.655108    15A     -0.598775  
	  16A     -0.576993    17A     -0.540624    18A     -0.519932  
	  19A     -0.419280    20A     -0.383392    21A     -0.347689  

	Virtual:                                                              

	  22A      0.027270    23A      0.036756    24A      0.038993  
	  25A      0.047882    26A      0.053274    27A      0.055180  
	  28A      0.062525    29A      0.068350    30A      0.075845  
	  31A      0.085139    32A      0.087430    33A      0.091960  
	  34A      0.102749    35A      0.108345    36A      0.113176  
	  37A      0.117858    38A      0.121017    39A      0.126550  
	  40A      0.129393    41A      0.133877    42A      0.137646  
	  43A      0.140713    44A      0.145515    45A      0.146444  
	  46A      0.150751    47A      0.156649    48A      0.162032  
	  49A      0.166133    50A      0.171495    51A      0.175650  
	  52A      0.178196    53A      0.182665    54A      0.185856  
	  55A      0.190377    56A      0.192416    57A      0.204359  
	  58A      0.206345    59A      0.209664    60A      0.212898  
	  61A      0.222340    62A      0.230110    63A      0.237882  
	  64A      0.243182    65A      0.246923    66A      0.263974  
	  67A      0.267624    68A      0.276985    69A      0.287445  
	  70A      0.293114    71A      0.301997    72A      0.306957  
	  73A      0.307220    74A      0.308922    75A      0.312802  
	  76A      0.319095    77A      0.321400    78A      0.325951  
	  79A      0.332331    80A      0.333595    81A      0.335998  
	  82A      0.340489    83A      0.343010    84A      0.354336  
	  85A      0.355705    86A      0.365800    87A      0.375051  
	  88A      0.379131    89A      0.385442    90A      0.393469  
	  91A      0.397258    92A      0.406346    93A      0.411433  
	  94A      0.424482    95A      0.427979    96A      0.438727  
	  97A      0.441728    98A      0.446840    99A      0.450162  
	 100A      0.461505   101A      0.472349   102A      0.480835  
	 103A      0.486658   104A      0.491422   105A      0.502171  
	 106A      0.504328   107A      0.524056   108A      0.530214  
	 109A      0.535997   110A      0.540115   111A      0.545942  
	 112A      0.559667   113A      0.566198   114A      0.573621  
	 115A      0.580274   116A      0.589175   117A      0.592407  
	 118A      0.599974   119A      0.602645   120A      0.614289  
	 121A      0.618285   122A      0.624754   123A      0.626280  
	 124A      0.628069   125A      0.631300   126A      0.636599  
	 127A      0.649771   128A      0.659496   129A      0.664605  
	 130A      0.675963   131A      0.683583   132A      0.688818  
	 133A      0.698003   134A      0.698771   135A      0.707041  
	 136A      0.711458   137A      0.716480   138A      0.725970  
	 139A      0.731285   140A      0.738837   141A      0.742757  
	 142A      0.745447   143A      0.757668   144A      0.768965  
	 145A      0.773274   146A      0.780902   147A      0.784881  
	 148A      0.803167   149A      0.804002   150A      0.811117  
	 151A      0.814107   152A      0.823035   153A      0.833821  
	 154A      0.843156   155A      0.850948   156A      0.853696  
	 157A      0.857707   158A      0.860394   159A      0.869212  
	 160A      0.872784   161A      0.885102   162A      0.897557  
	 163A      0.906147   164A      0.912813   165A      0.916362  
	 166A      0.925781   167A      0.927201   168A      0.937346  
	 169A      0.946419   170A      0.958363   171A      0.969984  
	 172A      0.972561   173A      0.977296   174A      0.989436  
	 175A      1.000443   176A      1.013135   177A      1.018985  
	 178A      1.026511   179A      1.029491   180A      1.032011  
	 181A      1.048752   182A      1.060379   183A      1.061298  
	 184A      1.070649   185A      1.097233   186A      1.102923  
	 187A      1.112411   188A      1.133967   189A      1.144745  
	 190A      1.152750   191A      1.160927   192A      1.166021  
	 193A      1.192202   194A      1.197914   195A      1.203160  
	 196A      1.205978   197A      1.219958   198A      1.234475  
	 199A      1.246388   200A      1.256050   201A      1.268079  
	 202A      1.274047   203A      1.299358   204A      1.313680  
	 205A      1.328422   206A      1.339153   207A      1.348869  
	 208A      1.363999   209A      1.373601   210A      1.387199  
	 211A      1.399019   212A      1.411269   213A      1.415069  
	 214A      1.430208   215A      1.442292   216A      1.450838  
	 217A      1.459632   218A      1.474695   219A      1.485448  
	 220A      1.503409   221A      1.509660   222A      1.515682  
	 223A      1.530990   224A      1.543617   225A      1.553257  
	 226A      1.577113   227A      1.586954   228A      1.601844  
	 229A      1.607121   230A      1.612874   231A      1.622872  
	 232A      1.639593   233A      1.650486   234A      1.658422  
	 235A      1.678816   236A      1.687841   237A      1.691709  
	 238A      1.700699   239A      1.719723   240A      1.728959  
	 241A      1.751238   242A      1.759858   243A      1.769083  
	 244A      1.773265   245A      1.787414   246A      1.807775  
	 247A      1.831321   248A      1.853470   249A      1.857569  
	 250A      1.868862   251A      1.882362   252A      1.903650  
	 253A      1.922161   254A      1.945467   255A      1.960488  
	 256A      1.964999   257A      1.976789   258A      1.992944  
	 259A      2.015823   260A      2.024308   261A      2.043721  
	 262A      2.054307   263A      2.076513   264A      2.110388  
	 265A      2.143066   266A      2.150814   267A      2.162908  
	 268A      2.194499   269A      2.207791   270A      2.230347  
	 271A      2.235855   272A      2.252777   273A      2.261404  
	 274A      2.279813   275A      2.294210   276A      2.307232  
	 277A      2.310199   278A      2.329056   279A      2.347111  
	 280A      2.353272   281A      2.365790   282A      2.377872  
	 283A      2.383984   284A      2.404525   285A      2.429657  
	 286A      2.436920   287A      2.461146   288A      2.488915  
	 289A      2.506334   290A      2.534275   291A      2.547660  
	 292A      2.559264   293A      2.567937   294A      2.590056  
	 295A      2.599896   296A      2.615611   297A      2.649625  
	 298A      2.655924   299A      2.676590   300A      2.700001  
	 301A      2.707069   302A      2.737383   303A      2.750122  
	 304A      2.755415   305A      2.778792   306A      2.799953  
	 307A      2.813132   308A      2.836369   309A      2.852997  
	 310A      2.860727   311A      2.875032   312A      2.905920  
	 313A      2.914031   314A      2.922091   315A      2.961652  
	 316A      2.986299   317A      2.999859   318A      3.008091  
	 319A      3.027398   320A      3.048681   321A      3.073584  
	 322A      3.089569   323A      3.110942   324A      3.134473  
	 325A      3.144592   326A      3.171723   327A      3.186679  
	 328A      3.195463   329A      3.215558   330A      3.233853  
	 331A      3.292240   332A      3.313627   333A      3.371805  
	 334A      3.384345   335A      3.407593   336A      3.458949  
	 337A      3.480660   338A      3.572606   339A      3.642702  
	 340A      3.683998   341A      3.737105   342A      3.770827  
	 343A      3.824981   344A      3.835462   345A      3.862915  
	 346A      3.871508   347A      3.900772   348A      3.919669  
	 349A      3.957059   350A      3.981300   351A      4.004052  
	 352A      4.030560   353A      4.044974   354A      4.073812  
	 355A      4.124501   356A      4.235034   357A      4.285163  
	 358A      4.372455   359A      4.402671   360A      4.517230  
	 361A      4.586222   362A      4.649830   363A      4.669198  
	 364A      4.723357   365A      4.868513   366A      4.940825  
	 367A      5.051012   368A      5.080261   369A      5.097284  
	 370A      5.110377   371A      5.132061   372A      5.156472  
	 373A      5.170872   374A      5.176053   375A      5.189978  
	 376A      5.232618   377A      5.290707   378A      5.384857  
	 379A      5.435728   380A      5.565923   381A      5.650361  
	 382A      5.706493   383A      5.798234   384A      5.991205  
	 385A      6.090330   386A      6.110170   387A      6.211867  
	 388A      6.294795   389A      6.399931   390A      6.467634  
	 391A      6.548016   392A      6.651002   393A      6.711153  
	 394A      7.089997   395A      7.369169   396A     18.238865  
	 397A     18.910389   398A     19.170322   399A     19.918483  
	 400A     25.526502   401A     25.575372   402A     33.549791  
	 403A     33.560091  

	Final Occupation by Irrep:
	          A 
	DOCC [    21 ]

  Energy converged.

  @RHF Final Energy:  -246.72643775127773

   => Energetics <=

    Nuclear Repulsion Energy =            206.1604002154209070
    One-Electron Energy =                -740.9035712411634904
    Two-Electron Energy =                 288.0167332744655369
    DFT Exchange-Correlation Energy =       0.0000000000000000
    Empirical Dispersion Energy =           0.0000000000000000
    Total Energy =                       -246.7264377512771034



Properties will be evaluated at   0.000000,   0.000000,   0.000000 Bohr
  ==> Properties <==


Properties computed using the SCF density density matrix
  Nuclear Dipole Moment: (a.u.)
     X:   -11.7890      Y:    -5.6598      Z:  -108.1418

  Electronic Dipole Moment: (a.u.)
     X:    10.8823      Y:     5.5937      Z:   107.9896

  Dipole Moment: (a.u.)
     X:    -0.9067      Y:    -0.0660      Z:    -0.1522     Total:     0.9218

  Dipole Moment: (Debye)
     X:    -2.3047      Y:    -0.1679      Z:    -0.3867     Total:     2.3429


  Saving occupied orbitals to File 180.

  Saving SAPT 2-MONOMER_A file.

*** tstop() called on node114.bme.utexas.edu at Sun Feb 16 13:50:37 2014
Module time:
	user time   =     250.67 seconds =       4.18 minutes
	system time =       1.02 seconds =       0.02 minutes
	total time  =         65 seconds =       1.08 minutes
Total time:
	user time   =     720.33 seconds =      12.01 minutes
	system time =       4.62 seconds =       0.08 minutes
	total time  =        190 seconds =       3.17 minutes

  //>>>>>>>>>>>>>>>>>>>>>>>>>>>>>>>>>>>//
  //            Monomer B HF           //
  //<<<<<<<<<<<<<<<<<<<<<<<<<<<<<<<<<<<//


  No DF_BASIS_SCF auxiliary basis selected, defaulting to aug-cc-pvdz-jkfit


*** tstart() called on node114.bme.utexas.edu
*** at Sun Feb 16 13:50:37 2014


         ---------------------------------------------------------
                                   SCF
            by Justin Turney, Rob Parrish, and Andy Simmonett
                              RHF Reference
                        4 Threads,   7000 MiB Core
         ---------------------------------------------------------

  ==> Geometry <==

    Molecular point group: c1
    Full point group: C1

    Geometry (in Angstrom), charge = 0, multiplicity = 1:

       Center              X                  Y                   Z       
    ------------   -----------------  -----------------  -----------------
           N(Gh)      1.249546033771     0.029290164175    -1.115506190882
           C(Gh)      0.650725668771    -1.157834624825    -1.291765539882
           H(Gh)      1.290268603771    -2.028909017825    -1.225924356882
           C(Gh)     -0.712523291229    -1.308035172825    -1.534051374882
           H(Gh)     -1.131625075229    -2.296254931825    -1.658600507882
           C(Gh)     -1.509076971229    -0.169325881825    -1.601684215882
           H(Gh)     -2.572222048229    -0.245340307825    -1.783973047882
           C(Gh)     -0.904831675229     1.071250503175    -1.425394205882
           H(Gh)     -1.480023606229     1.985114671175    -1.456861331882
           C(Gh)      0.466509268771     1.116723015175    -1.187868511882
           H(Gh)      0.963485211771     2.068666120175    -1.047669318882
           N         -0.765003295229    -0.335236434825     0.836422509118
           H         -1.659892314229    -0.767099925825     0.651819021118
           C         -0.764748409229     1.062573357175     0.929433510118
           O         -1.804631486229     1.690773160175     0.814583380118
           C          0.554746343771     1.621654702175     1.156996577118
           H          0.656062709771     2.688876872175     1.252864758118
           C          1.624619934771     0.802962400175     1.228516630118
           H          2.628498974771     1.171627098175     1.376943163118
           N          1.506558793771    -0.554330863825     1.115961966118
           H          2.319994787771    -1.146518213825     1.107794327118
           C          0.306111856771    -1.201563291825     0.889580269118
           O          0.213974609771    -2.406981367825     0.756000990118

  Running in c1 symmetry.

  Nuclear repulsion =  357.235655793392652

  Charge       = 0
  Multiplicity = 1
  Electrons    = 58
  Nalpha       = 29
  Nbeta        = 29

  ==> Algorithm <==

  SCF Algorithm Type is DF.
  DIIS enabled.
  MOM disabled.
  Fractional occupation disabled.
  Guess Type is CORE.
  Energy threshold   = 1.00e-08
  Density threshold  = 1.00e-08
  Integral threshold = 0.00e+00

  ==> Primary Basis <==

  Basis Set: AUG-CC-PVDZ
    Number of shells: 171
    Number of basis function: 403
    Number of Cartesian functions: 431
    Spherical Harmonics?: true
    Max angular momentum: 2

  ==> Pre-Iterations <==

   -------------------------------------------------------
    Irrep   Nso     Nmo     Nalpha   Nbeta   Ndocc  Nsocc
   -------------------------------------------------------
     A        403     403       0       0       0       0
   -------------------------------------------------------
    Total     403     403      29      29      29       0
   -------------------------------------------------------

 OEINTS: Wrapper to libmints.
   by Justin Turney

   Calculation information:
      Number of atoms:                  23
      Number of AO shells:             171
      Number of SO shells:             171
      Number of primitives:            413
      Number of atomic orbitals:       431
      Number of basis functions:       403

      Number of irreps:                  1
      Number of functions per irrep: [ 403 ]

      Overlap, kinetic, potential, dipole, and quadrupole integrals
        stored in file 35.

  ==> Integral Setup <==

  ==> DFJK: Density-Fitted J/K Matrices <==

    J tasked:                  Yes
    K tasked:                  Yes
    wK tasked:                  No
    OpenMP threads:              4
    Integrals threads:           4
    Memory (MB):              5006
    Algorithm:                Core
    Integral Cache:           LOAD
    Schwarz Cutoff:          0E+00
    Fitting Condition:       1E-12

   => Auxiliary Basis Set <=

  Basis Set: aug-cc-pvdz-jkfit
    Number of shells: 500
    Number of basis function: 1492
    Number of Cartesian functions: 1729
    Spherical Harmonics?: true
    Max angular momentum: 3

  Minimum eigenvalue in the overlap matrix is 3.9396471238E-06.
  Using Symmetric Orthogonalization.
  SCF Guess: Core (One-Electron) Hamiltonian.

  Guess energy:  -318.41147081926511

  ==> Iterations <==

                        Total Energy        Delta E     RMS |[F,P]|

   @RHF iter   1:  -346.10614287552426   -3.46106e+02   2.03080e-02 
   @RHF iter   2:  -307.16626051073263    3.89399e+01   1.90054e-02 DIIS
   @RHF iter   3:  -353.79031800840744   -4.66241e+01   1.88950e-02 DIIS
   @RHF iter   4:  -399.42067333154614   -4.56304e+01   1.04872e-02 DIIS
   @RHF iter   5:  -402.82223791989554   -3.40156e+00   8.66951e-03 DIIS
   @RHF iter   6:  -411.52448924580108   -8.70225e+00   3.29101e-03 DIIS
   @RHF iter   7:  -412.37021745484662   -8.45728e-01   1.45771e-03 DIIS
   @RHF iter   8:  -412.51974866566195   -1.49531e-01   2.88349e-04 DIIS
   @RHF iter   9:  -412.53072694832485   -1.09783e-02   9.16668e-05 DIIS
   @RHF iter  10:  -412.53179475123807   -1.06780e-03   3.99427e-05 DIIS
   @RHF iter  11:  -412.53201408356676   -2.19332e-04   1.76703e-05 DIIS
   @RHF iter  12:  -412.53205392649943   -3.98429e-05   9.19115e-06 DIIS
   @RHF iter  13:  -412.53206353837095   -9.61187e-06   2.14393e-06 DIIS
   @RHF iter  14:  -412.53206419963044   -6.61259e-07   8.56369e-07 DIIS
   @RHF iter  15:  -412.53206429239003   -9.27596e-08   3.01231e-07 DIIS
   @RHF iter  16:  -412.53206431028082   -1.78908e-08   1.24325e-07 DIIS
   @RHF iter  17:  -412.53206431466845   -4.38763e-09   4.01408e-08 DIIS
   @RHF iter  18:  -412.53206431503907   -3.70619e-10   1.26809e-08 DIIS
   @RHF iter  19:  -412.53206431506919   -3.01270e-11   4.74972e-09 DIIS

  ==> Post-Iterations <==

	Orbital Energies (a.u.)
	-----------------------

	Doubly Occupied:                                                      

	   1A    -20.559428     2A    -20.553375     3A    -15.652965  
	   4A    -15.635352     5A    -11.428665     6A    -11.389462  
	   7A    -11.348120     8A    -11.262576     9A     -1.441677  
	  10A     -1.402882    11A     -1.318826    12A     -1.250019  
	  13A     -1.091881    14A     -0.937265    15A     -0.905257  
	  16A     -0.809742    17A     -0.767757    18A     -0.716198  
	  19A     -0.679628    20A     -0.670138    21A     -0.654728  
	  22A     -0.615960    23A     -0.602588    24A     -0.571264  
	  25A     -0.526269    26A     -0.484081    27A     -0.449046  
	  28A     -0.436301    29A     -0.368683  

	Virtual:                                                              

	  30A      0.017084    31A      0.034768    32A      0.038191  
	  33A      0.043979    34A      0.053700    35A      0.056045  
	  36A      0.062666    37A      0.069808    38A      0.072067  
	  39A      0.079927    40A      0.082085    41A      0.091197  
	  42A      0.101129    43A      0.105470    44A      0.113618  
	  45A      0.115536    46A      0.117491    47A      0.124422  
	  48A      0.127978    49A      0.133215    50A      0.138597  
	  51A      0.141122    52A      0.149099    53A      0.151111  
	  54A      0.158220    55A      0.159000    56A      0.163491  
	  57A      0.165930    58A      0.171925    59A      0.174449  
	  60A      0.176814    61A      0.178914    62A      0.184414  
	  63A      0.187474    64A      0.190168    65A      0.196178  
	  66A      0.208836    67A      0.212912    68A      0.213683  
	  69A      0.225620    70A      0.227530    71A      0.228205  
	  72A      0.243159    73A      0.245519    74A      0.249739  
	  75A      0.259279    76A      0.267003    77A      0.270255  
	  78A      0.276609    79A      0.287596    80A      0.293102  
	  81A      0.299598    82A      0.301105    83A      0.308606  
	  84A      0.313006    85A      0.319563    86A      0.330862  
	  87A      0.337980    88A      0.340281    89A      0.346783  
	  90A      0.349058    91A      0.354605    92A      0.357898  
	  93A      0.366246    94A      0.368159    95A      0.376718  
	  96A      0.386657    97A      0.390209    98A      0.397307  
	  99A      0.406244   100A      0.410220   101A      0.413548  
	 102A      0.423168   103A      0.425626   104A      0.430041  
	 105A      0.440119   106A      0.441960   107A      0.443281  
	 108A      0.457607   109A      0.466415   110A      0.468967  
	 111A      0.477551   112A      0.479476   113A      0.491729  
	 114A      0.503824   115A      0.504090   116A      0.508489  
	 117A      0.513494   118A      0.521150   119A      0.533552  
	 120A      0.541650   121A      0.545674   122A      0.549714  
	 123A      0.557688   124A      0.571508   125A      0.573585  
	 126A      0.576656   127A      0.579739   128A      0.591853  
	 129A      0.601278   130A      0.603863   131A      0.612894  
	 132A      0.619945   133A      0.622896   134A      0.625116  
	 135A      0.628378   136A      0.641610   137A      0.651448  
	 138A      0.656959   139A      0.659059   140A      0.665963  
	 141A      0.673531   142A      0.677635   143A      0.685520  
	 144A      0.698381   145A      0.705000   146A      0.720685  
	 147A      0.724707   148A      0.731245   149A      0.742777  
	 150A      0.751835   151A      0.756652   152A      0.765807  
	 153A      0.775633   154A      0.777990   155A      0.783693  
	 156A      0.794216   157A      0.807235   158A      0.811062  
	 159A      0.811867   160A      0.827437   161A      0.833145  
	 162A      0.836465   163A      0.839469   164A      0.848435  
	 165A      0.854180   166A      0.855503   167A      0.867655  
	 168A      0.872947   169A      0.878189   170A      0.890306  
	 171A      0.893307   172A      0.903222   173A      0.908206  
	 174A      0.914819   175A      0.917408   176A      0.928475  
	 177A      0.941241   178A      0.945179   179A      0.954723  
	 180A      0.968114   181A      0.971555   182A      0.984625  
	 183A      0.993641   184A      0.997127   185A      1.013202  
	 186A      1.016651   187A      1.025870   188A      1.035229  
	 189A      1.041825   190A      1.046846   191A      1.058164  
	 192A      1.068134   193A      1.075802   194A      1.089124  
	 195A      1.096912   196A      1.108840   197A      1.114848  
	 198A      1.130146   199A      1.131293   200A      1.137520  
	 201A      1.146234   202A      1.155596   203A      1.164749  
	 204A      1.171028   205A      1.188814   206A      1.191418  
	 207A      1.200255   208A      1.213834   209A      1.223869  
	 210A      1.241794   211A      1.250961   212A      1.263521  
	 213A      1.268791   214A      1.277524   215A      1.283017  
	 216A      1.305685   217A      1.327986   218A      1.336629  
	 219A      1.357733   220A      1.374781   221A      1.381670  
	 222A      1.395769   223A      1.410237   224A      1.415520  
	 225A      1.424858   226A      1.444424   227A      1.449325  
	 228A      1.467041   229A      1.468205   230A      1.481547  
	 231A      1.497217   232A      1.524811   233A      1.531518  
	 234A      1.542107   235A      1.547088   236A      1.557795  
	 237A      1.573055   238A      1.588349   239A      1.588706  
	 240A      1.601565   241A      1.615269   242A      1.627501  
	 243A      1.636045   244A      1.648890   245A      1.664395  
	 246A      1.687054   247A      1.701961   248A      1.725652  
	 249A      1.731836   250A      1.776080   251A      1.788921  
	 252A      1.829756   253A      1.849614   254A      1.863874  
	 255A      1.869396   256A      1.901101   257A      1.908806  
	 258A      1.930355   259A      1.978104   260A      1.981675  
	 261A      1.992155   262A      2.027716   263A      2.032184  
	 264A      2.065916   265A      2.068018   266A      2.080690  
	 267A      2.121271   268A      2.129880   269A      2.144799  
	 270A      2.167364   271A      2.175543   272A      2.195596  
	 273A      2.207217   274A      2.223393   275A      2.230533  
	 276A      2.261590   277A      2.267981   278A      2.274603  
	 279A      2.306464   280A      2.317899   281A      2.324385  
	 282A      2.348260   283A      2.362947   284A      2.373114  
	 285A      2.384592   286A      2.396854   287A      2.410674  
	 288A      2.434987   289A      2.446195   290A      2.449907  
	 291A      2.473316   292A      2.484569   293A      2.488361  
	 294A      2.501506   295A      2.515471   296A      2.523907  
	 297A      2.525268   298A      2.551554   299A      2.567832  
	 300A      2.578647   301A      2.600466   302A      2.609455  
	 303A      2.629115   304A      2.642835   305A      2.650997  
	 306A      2.659198   307A      2.669515   308A      2.688607  
	 309A      2.699027   310A      2.709560   311A      2.736726  
	 312A      2.745468   313A      2.756328   314A      2.759537  
	 315A      2.770799   316A      2.783724   317A      2.818117  
	 318A      2.836682   319A      2.843154   320A      2.851813  
	 321A      2.871032   322A      2.883041   323A      2.893398  
	 324A      2.896576   325A      2.919019   326A      2.922316  
	 327A      2.952684   328A      2.957291   329A      2.983954  
	 330A      3.007705   331A      3.024076   332A      3.058285  
	 333A      3.088602   334A      3.103157   335A      3.120183  
	 336A      3.147532   337A      3.153604   338A      3.160400  
	 339A      3.188638   340A      3.212681   341A      3.230586  
	 342A      3.239354   343A      3.263123   344A      3.296291  
	 345A      3.311603   346A      3.383748   347A      3.387151  
	 348A      3.419803   349A      3.476481   350A      3.515862  
	 351A      3.526507   352A      3.585502   353A      3.630806  
	 354A      3.660934   355A      3.680843   356A      3.706331  
	 357A      3.728736   358A      3.787210   359A      3.795963  
	 360A      3.845970   361A      3.850649   362A      3.874285  
	 363A      3.878520   364A      3.904839   365A      3.934431  
	 366A      3.947767   367A      3.959234   368A      3.983944  
	 369A      4.016236   370A      4.056760   371A      4.062613  
	 372A      4.096660   373A      4.133223   374A      4.153731  
	 375A      4.184137   376A      4.203118   377A      4.266170  
	 378A      4.311004   379A      4.343052   380A      4.370877  
	 381A      4.417198   382A      4.489679   383A      4.636948  
	 384A      4.798859   385A      4.890964   386A      4.968173  
	 387A      5.171574   388A      5.421125   389A      5.471405  
	 390A      5.516409   391A      5.578314   392A      5.593429  
	 393A      5.672690   394A      5.750551   395A      5.807908  
	 396A      6.183889   397A      6.314597   398A     18.162121  
	 399A     18.474286   400A     18.872458   401A     19.339440  
	 402A     20.582566   403A     25.382949  

	Final Occupation by Irrep:
	          A 
	DOCC [    29 ]

  Energy converged.

  @RHF Final Energy:  -412.53206431506919

   => Energetics <=

    Nuclear Repulsion Energy =            357.2356557933926524
    One-Electron Energy =               -1270.4751715136912935
    Two-Electron Energy =                 500.7074514052291079
    DFT Exchange-Correlation Energy =       0.0000000000000000
    Empirical Dispersion Energy =           0.0000000000000000
    Total Energy =                       -412.5320643150695332



Properties will be evaluated at   0.000000,   0.000000,   0.000000 Bohr
  ==> Properties <==


Properties computed using the SCF density density matrix
  Nuclear Dipole Moment: (a.u.)
     X:    12.7267      Y:     6.9996      Z:   105.5373

  Electronic Dipole Moment: (a.u.)
     X:   -10.7860      Y:    -6.6446      Z:  -105.2694

  Dipole Moment: (a.u.)
     X:     1.9407      Y:     0.3550      Z:     0.2679     Total:     1.9910

  Dipole Moment: (Debye)
     X:     4.9328      Y:     0.9023      Z:     0.6809     Total:     5.0607


  Saving occupied orbitals to File 180.

  Saving SAPT 2-MONOMER_B file.

*** tstop() called on node114.bme.utexas.edu at Sun Feb 16 13:51:55 2014
Module time:
	user time   =     299.41 seconds =       4.99 minutes
	system time =       1.12 seconds =       0.02 minutes
	total time  =         78 seconds =       1.30 minutes
Total time:
	user time   =    1019.75 seconds =      17.00 minutes
	system time =       5.74 seconds =       0.10 minutes
	total time  =        268 seconds =       4.47 minutes
  No DF_BASIS_SAPT auxiliary basis selected, defaulting to aug-cc-pvdz-ri

  //>>>>>>>>>>>>>>>>>>>>>>>>>>>>>>>>>>>//
  //               SAPT2+              //
  //<<<<<<<<<<<<<<<<<<<<<<<<<<<<<<<<<<<//


*** tstart() called on node114.bme.utexas.edu
*** at Sun Feb 16 13:51:55 2014

        SAPT2+  
    Ed Hohenstein
     6 June 2009

      Orbital Information
  --------------------------
    NSO        =       403
    NMO        =       403
    NRI        =      1215
    NOCC A     =        21
    NOCC B     =        29
    FOCC A     =         6
    FOCC B     =         8
    NVIR A     =       382
    NVIR B     =       374

    Estimated memory usage: 4363.7 MB

    Elst10,r            =    -0.150197512587 H
    Exch10 (S^2)        =     0.334058069434 H
    Exch10              =     0.349565531072 H
    Ind20,r (A<-B)      =    -0.151357437582 H
    Ind20,r (B<-A)      =    -0.065519549029 H
    Ind20,r             =    -0.216876986610 H
    Exch-Ind20,r (A<-B) =     0.130836800096 H
    Exch-Ind20,r (B<-A) =     0.056744335549 H
    Exch-Ind20,r        =     0.187581135645 H
    Disp20              =    -0.114771655011 H
    Exch-Disp20         =     0.028762397793 H
    Elst12,r            =    -0.002721642107 H
    Exch11              =     0.000966756293 H
    Exch12              =     0.000877622965 H
    Ind22               =    -0.005154498549 H
    Disp21              =     0.037017127052 H
    Disp22 (SDQ)        =    -0.005777441345 H

    (i =   1 of  21)       1577 seconds
    (i =   2 of  21)       3160 seconds
    (i =   3 of  21)       4736 seconds
    (i =   4 of  21)       6309 seconds
    (i =   5 of  21)       7882 seconds
    (i =   6 of  21)       9458 seconds
    (i =   7 of  21)      11031 seconds
    (i =   8 of  21)      12605 seconds
    (i =   9 of  21)      14201 seconds
    (i =  10 of  21)      15789 seconds
    (i =  11 of  21)      17360 seconds
    (i =  12 of  21)      18959 seconds
    (i =  13 of  21)      20566 seconds
    (i =  14 of  21)      22157 seconds
    (i =  15 of  21)      23739 seconds
    (i =  16 of  21)      25313 seconds
    (i =  17 of  21)      26888 seconds
    (i =  18 of  21)      28464 seconds
    (i =  19 of  21)      30041 seconds
    (i =  20 of  21)      31634 seconds
    (i =  21 of  21)      33241 seconds

    Disp220 (T)         =    -0.010160818933 H

    (i =   1 of  15)       2890 seconds
    (i =   2 of  15)       5774 seconds
    (i =   3 of  15)       8655 seconds
    (i =   4 of  15)      11534 seconds
    (i =   5 of  15)      14435 seconds
    (i =   6 of  15)      17377 seconds
    (i =   7 of  15)      20304 seconds
    (i =   8 of  15)      23189 seconds
    (i =   9 of  15)      26088 seconds
    (i =  10 of  15)      28965 seconds
    (i =  11 of  15)      31865 seconds
    (i =  12 of  15)      34741 seconds
    (i =  13 of  15)      37623 seconds
    (i =  14 of  15)      40512 seconds
    (i =  15 of  15)      43406 seconds

    Disp202 (T)         =    -0.011087766624 H

    Disp22 (T)          =    -0.021248585557 H

    SAPT Results  
  -----------------------------------------------------------------------
    Electrostatics        -152.91915469 mH     -95.95822230 kcal mol^-1
      Elst10,r            -150.19751259 mH     -94.25036602 kcal mol^-1
      Elst12,r              -2.72164211 mH      -1.70785628 kcal mol^-1

    Exchange               351.40991033 mH     220.51305713 kcal mol^-1
      Exch10               349.56553107 mH     219.35569162 kcal mol^-1
      Exch10(S^2)          334.05806943 mH     209.62461212 kcal mol^-1
      Exch11(S^2)            0.96675629 mH       0.60664876 kcal mol^-1
      Exch12(S^2)            0.87762297 mH       0.55071675 kcal mol^-1

    Induction              -32.59131034 mH     -20.45135686 kcal mol^-1
      Ind20,r             -216.87698661 mH    -136.09236943 kcal mol^-1
      Ind22                 -5.15449855 mH      -3.23449681 kcal mol^-1
      Exch-Ind20,r         187.58113565 mH     117.70894464 kcal mol^-1
      Exch-Ind22             4.45822633 mH       2.79757937 kcal mol^-1
      delta HF,r (2)        -2.59918715 mH      -1.63101463 kcal mol^-1

    Dispersion             -76.01815707 mH     -47.70211573 kcal mol^-1
      Disp20              -114.77165501 mH     -72.02030385 kcal mol^-1
      Disp21                37.01712705 mH      23.22859889 kcal mol^-1
      Disp22 (SDQ)          -5.77744134 mH      -3.62539933 kcal mol^-1
      Disp22 (T)           -21.24858556 mH     -13.33368930 kcal mol^-1
      Exch-Disp20           28.76239779 mH      18.04867786 kcal mol^-1

    Total HF               167.47298037 mH     105.09088617 kcal mol^-1
    Total SAPT0             81.46372315 mH      51.11926018 kcal mol^-1
    Total SAPT2             79.89018808 mH      50.13185198 kcal mol^-1
    Total SAPT2+            89.88128823 mH      56.40136223 kcal mol^-1

*** tstop() called on node114.bme.utexas.edu at Mon Feb 17 12:30:07 2014
Module time:
	user time   =  303738.28 seconds =    5062.30 minutes
	system time =     361.29 seconds =       6.02 minutes
	total time  =      81492 seconds =    1358.20 minutes
Total time:
	user time   =  304758.04 seconds =    5079.30 minutes
	system time =     367.03 seconds =       6.12 minutes
	total time  =      81760 seconds =    1362.67 minutes

*** PSI4 exiting successfully. Buy a developer a beer!
    -----------------------------------------------------------------------
          PSI4: An Open-Source Ab Initio Electronic Structure Package
                              PSI 4.0.0-beta4 Driver

    J. M. Turney, A. C. Simmonett, R. M. Parrish, E. G. Hohenstein,
    F. A. Evangelista, J. T. Fermann, B. J. Mintz, L. A. Burns, J. J. Wilke,
    M. L. Abrams, N. J. Russ, M. L. Leininger, C. L. Janssen, E. T. Seidl,
    W. D. Allen, H. F. Schaefer, R. A. King, E. F. Valeev, C. D. Sherrill,
    and T. D. Crawford, WIREs Comput. Mol. Sci., (2011) (doi: 10.1002/wcms.93)

                         Additional Contributions by
    A. E. DePrince, M. Saitow, U. Bozkaya, A. Yu. Sokolov
    -----------------------------------------------------------------------

    Process ID:   6312
    PSI4DATADIR: /home/xzhu216/psi4/psi4-install/share/psi

    Using LocalCommunicator (Number of processes = 1)

    Memory level set to 256.000 MB

  ==> Input File <==

--------------------------------------------------------------------------
#psi4
#
memory 7 gb

molecule Pyridine_Uracil {
0 1
    N     1.210755335     0.028675778     0.329711113
    C     0.611934970    -1.158449011     0.153451764
    H     1.251477905    -2.029523404     0.219292947
    C    -0.751313990    -1.308649559    -0.088834071
    H    -1.170415774    -2.296869318    -0.213383204
    C    -1.547867670    -0.169940268    -0.156466912
    H    -2.611012747    -0.245954694    -0.338755744
    C    -0.943622374     1.070636117     0.019823098
    H    -1.518814305     1.984500285    -0.011644028
    C     0.427718570     1.116108629     0.257348792
    H     0.924694513     2.068051734     0.397547985
--
0 1
    N    -0.774972076    -0.319344585     2.604721236
    H    -1.669861095    -0.751208076     2.420117748
    C    -0.774717190     1.078465207     2.697732237
    O    -1.814600267     1.706665010     2.582882107
    C     0.544777563     1.637546552     2.925295304
    H     0.646093929     2.704768722     3.021163485
    C     1.614651154     0.818854250     2.996815357
    H     2.618530194     1.187518948     3.145241890
    N     1.496590013    -0.538439014     2.884260693
    H     2.310026007    -1.130626364     2.876093054
    C     0.296143076    -1.185671442     2.657878996
    O     0.204005829    -2.391089518     2.524299717
units angstrom
no_reorient  #important for SAPT in psi4, default
symmetry c1  #important for SAPT in psi4, default
}

set {
basis aug-cc-pVDZ
scf_type DF
freeze_core True
}
energy('sapt2+')
--------------------------------------------------------------------------

  Memory set to   7.000 GiB by Python script.

  //>>>>>>>>>>>>>>>>>>>>>>>>>>>>>>>>>>>//
  //              Dimer HF             //
  //<<<<<<<<<<<<<<<<<<<<<<<<<<<<<<<<<<<//


  No DF_BASIS_SCF auxiliary basis selected, defaulting to aug-cc-pvdz-jkfit


*** tstart() called on node116.bme.utexas.edu
*** at Sun Feb 16 12:49:55 2014


         ---------------------------------------------------------
                                   SCF
            by Justin Turney, Rob Parrish, and Andy Simmonett
                              RHF Reference
                        4 Threads,   7000 MiB Core
         ---------------------------------------------------------

  ==> Geometry <==

    Molecular point group: c1
    Full point group: C1

    Geometry (in Angstrom), charge = 0, multiplicity = 1:

       Center              X                  Y                   Z       
    ------------   -----------------  -----------------  -----------------
           N          1.232647254014     0.019612277826    -1.304934313284
           C          0.633826889014    -1.167512511174    -1.481193662284
           H          1.273369824014    -2.038586904174    -1.415352479284
           C         -0.729422070986    -1.317713059174    -1.723479497284
           H         -1.148523854986    -2.305932818174    -1.848028630284
           C         -1.525975750986    -0.179003768174    -1.791112338284
           H         -2.589120827986    -0.255018194174    -1.973401170284
           C         -0.921730454986     1.061572616826    -1.614822328284
           H         -1.496922385986     1.975436784826    -1.646289454284
           C          0.449610489014     1.107045128826    -1.377296634284
           H          0.946586432014     2.058988233826    -1.237097441284
           N         -0.753080156986    -0.328408085174     0.970075809716
           H         -1.647969175986    -0.760271576174     0.785472321716
           C         -0.752825270986     1.069401706826     1.063086810716
           O         -1.792708347986     1.697601509826     0.948236680716
           C          0.566669482014     1.628483051826     1.290649877716
           H          0.667985848014     2.695705221826     1.386518058716
           C          1.636543073014     0.809790749826     1.362169930716
           H          2.640422113014     1.178455447826     1.510596463716
           N          1.518481932014    -0.547502514174     1.249615266716
           H          2.331917926014    -1.139689864174     1.241447627716
           C          0.318034995014    -1.194734942174     1.023233569716
           O          0.225897748014    -2.400153018174     0.889654290716

  Running in c1 symmetry.

  Nuclear repulsion =  941.547632561047294

  Charge       = 0
  Multiplicity = 1
  Electrons    = 100
  Nalpha       = 50
  Nbeta        = 50

  ==> Algorithm <==

  SCF Algorithm Type is DF.
  DIIS enabled.
  MOM disabled.
  Fractional occupation disabled.
  Guess Type is CORE.
  Energy threshold   = 1.00e-08
  Density threshold  = 1.00e-08
  Integral threshold = 0.00e+00

  ==> Primary Basis <==

  Basis Set: AUG-CC-PVDZ
    Number of shells: 171
    Number of basis function: 403
    Number of Cartesian functions: 431
    Spherical Harmonics?: true
    Max angular momentum: 2

  ==> Pre-Iterations <==

   -------------------------------------------------------
    Irrep   Nso     Nmo     Nalpha   Nbeta   Ndocc  Nsocc
   -------------------------------------------------------
     A        403     403       0       0       0       0
   -------------------------------------------------------
    Total     403     403      50      50      50       0
   -------------------------------------------------------

 OEINTS: Wrapper to libmints.
   by Justin Turney

   Calculation information:
      Number of atoms:                  23
      Number of AO shells:             171
      Number of SO shells:             171
      Number of primitives:            413
      Number of atomic orbitals:       431
      Number of basis functions:       403

      Number of irreps:                  1
      Number of functions per irrep: [ 403 ]

      Overlap, kinetic, potential, dipole, and quadrupole integrals
        stored in file 35.

  ==> Integral Setup <==

  ==> DFJK: Density-Fitted J/K Matrices <==

    J tasked:                  Yes
    K tasked:                  Yes
    wK tasked:                  No
    OpenMP threads:              4
    Integrals threads:           4
    Memory (MB):              5006
    Algorithm:                Core
    Integral Cache:           SAVE
    Schwarz Cutoff:          0E+00
    Fitting Condition:       1E-12

   => Auxiliary Basis Set <=

  Basis Set: aug-cc-pvdz-jkfit
    Number of shells: 500
    Number of basis function: 1492
    Number of Cartesian functions: 1729
    Spherical Harmonics?: true
    Max angular momentum: 3

  Minimum eigenvalue in the overlap matrix is 4.4487371818E-06.
  Using Symmetric Orthogonalization.
  SCF Guess: Core (One-Electron) Hamiltonian.

  Guess energy:  -531.96055444914487

  ==> Iterations <==

                        Total Energy        Delta E     RMS |[F,P]|

   @RHF iter   1:  -513.90486815511463   -5.13905e+02   3.08192e-02 
   @RHF iter   2:  -383.45841244504436    1.30446e+02   3.19635e-02 DIIS
   @RHF iter   3:  -502.28825698010019   -1.18830e+02   3.08404e-02 DIIS
   @RHF iter   4:  -602.72909575974040   -1.00441e+02   1.80571e-02 DIIS
   @RHF iter   5:  -565.70573989022068    3.70234e+01   2.78529e-02 DIIS
   @RHF iter   6:  -629.23854790105634   -6.35328e+01   1.62021e-02 DIIS
   @RHF iter   7:  -652.74869216447178   -2.35101e+01   7.20992e-03 DIIS
   @RHF iter   8:  -657.23251385767117   -4.48382e+00   3.96927e-03 DIIS
   @RHF iter   9:  -659.01081395630990   -1.77830e+00   1.40032e-03 DIIS
   @RHF iter  10:  -659.16703394188607   -1.56220e-01   5.03823e-04 DIIS
   @RHF iter  11:  -659.18762922828159   -2.05953e-02   2.59558e-04 DIIS
   @RHF iter  12:  -659.19423510475258   -6.60588e-03   1.19751e-04 DIIS
   @RHF iter  13:  -659.19604335106123   -1.80825e-03   4.14152e-05 DIIS
   @RHF iter  14:  -659.19630743372090   -2.64083e-04   1.36990e-05 DIIS
   @RHF iter  15:  -659.19634575660552   -3.83229e-05   7.80521e-06 DIIS
   @RHF iter  16:  -659.19635920419569   -1.34476e-05   3.48638e-06 DIIS
   @RHF iter  17:  -659.19636365612405   -4.45193e-06   1.59803e-06 DIIS
   @RHF iter  18:  -659.19636440965746   -7.53533e-07   5.77739e-07 DIIS
   @RHF iter  19:  -659.19636451382644   -1.04169e-07   2.31278e-07 DIIS
   @RHF iter  20:  -659.19636453488442   -2.10580e-08   1.06522e-07 DIIS
   @RHF iter  21:  -659.19636453902763   -4.14320e-09   4.48209e-08 DIIS
   @RHF iter  22:  -659.19636453949784   -4.70209e-10   1.49329e-08 DIIS
   @RHF iter  23:  -659.19636453956400   -6.61657e-11   5.73222e-09 DIIS

  ==> Post-Iterations <==

	Orbital Energies (a.u.)
	-----------------------

	Doubly Occupied:                                                      

	   1A    -20.551498     2A    -20.545471     3A    -15.638684  
	   4A    -15.624088     5A    -15.577048     6A    -11.420837  
	   7A    -11.383533     8A    -11.335514     9A    -11.280451  
	  10A    -11.279609    11A    -11.260527    12A    -11.251726  
	  13A    -11.243361    14A    -11.241758    15A     -1.436962  
	  16A     -1.399098    17A     -1.310621    18A     -1.264128  
	  19A     -1.242059    20A     -1.091764    21A     -1.085136  
	  22A     -1.036907    23A     -0.928409    24A     -0.897694  
	  25A     -0.861026    26A     -0.858679    27A     -0.801100  
	  28A     -0.759307    29A     -0.724716    30A     -0.706442  
	  31A     -0.681267    32A     -0.674115    33A     -0.660177  
	  34A     -0.652736    35A     -0.648439    36A     -0.609502  
	  37A     -0.600132    38A     -0.595028    39A     -0.580228  
	  40A     -0.571075    41A     -0.525934    42A     -0.520711  
	  43A     -0.515196    44A     -0.477778    45A     -0.443840  
	  46A     -0.433485    47A     -0.422786    48A     -0.379467  
	  49A     -0.364483    50A     -0.331010  

	Virtual:                                                              

	  51A      0.025476    52A      0.039375    53A      0.040850  
	  54A      0.049691    55A      0.054249    56A      0.055720  
	  57A      0.063390    58A      0.070076    59A      0.073490  
	  60A      0.078277    61A      0.088755    62A      0.095994  
	  63A      0.097215    64A      0.109359    65A      0.113374  
	  66A      0.118836    67A      0.125756    68A      0.127181  
	  69A      0.131581    70A      0.135617    71A      0.139471  
	  72A      0.146123    73A      0.147575    74A      0.150993  
	  75A      0.153096    76A      0.157624    77A      0.164141  
	  78A      0.166375    79A      0.169163    80A      0.172285  
	  81A      0.174546    82A      0.178471    83A      0.181310  
	  84A      0.185567    85A      0.186602    86A      0.191559  
	  87A      0.200125    88A      0.201900    89A      0.206363  
	  90A      0.210109    91A      0.216771    92A      0.234590  
	  93A      0.239635    94A      0.244298    95A      0.260895  
	  96A      0.270034    97A      0.274878    98A      0.280248  
	  99A      0.293923   100A      0.296161   101A      0.302091  
	 102A      0.308314   103A      0.313055   104A      0.316125  
	 105A      0.321994   106A      0.324654   107A      0.328122  
	 108A      0.333989   109A      0.335927   110A      0.339036  
	 111A      0.349806   112A      0.353139   113A      0.357381  
	 114A      0.359694   115A      0.367137   116A      0.369251  
	 117A      0.376236   118A      0.386855   119A      0.394218  
	 120A      0.398706   121A      0.400849   122A      0.408553  
	 123A      0.410115   124A      0.418678   125A      0.426217  
	 126A      0.428583   127A      0.430327   128A      0.433101  
	 129A      0.437317   130A      0.445947   131A      0.451206  
	 132A      0.455511   133A      0.456802   134A      0.467110  
	 135A      0.475174   136A      0.477375   137A      0.479563  
	 138A      0.491986   139A      0.504542   140A      0.516364  
	 141A      0.523831   142A      0.528869   143A      0.533891  
	 144A      0.542677   145A      0.547545   146A      0.556193  
	 147A      0.564938   148A      0.573741   149A      0.576587  
	 150A      0.580936   151A      0.589351   152A      0.596243  
	 153A      0.601600   154A      0.605463   155A      0.610707  
	 156A      0.620318   157A      0.624643   158A      0.630224  
	 159A      0.636136   160A      0.642896   161A      0.646711  
	 162A      0.652272   163A      0.664117   164A      0.666067  
	 165A      0.672120   166A      0.677345   167A      0.684244  
	 168A      0.692192   169A      0.706171   170A      0.707633  
	 171A      0.715836   172A      0.721255   173A      0.726503  
	 174A      0.732064   175A      0.733789   176A      0.741248  
	 177A      0.746505   178A      0.751444   179A      0.766145  
	 180A      0.770948   181A      0.775973   182A      0.784574  
	 183A      0.792131   184A      0.794532   185A      0.814072  
	 186A      0.820346   187A      0.822986   188A      0.826694  
	 189A      0.839763   190A      0.845459   191A      0.854232  
	 192A      0.859446   193A      0.860606   194A      0.862515  
	 195A      0.868066   196A      0.871101   197A      0.873531  
	 198A      0.881330   199A      0.887117   200A      0.901080  
	 201A      0.916368   202A      0.921089   203A      0.930091  
	 204A      0.937723   205A      0.945110   206A      0.962259  
	 207A      0.977540   208A      0.989201   209A      0.999281  
	 210A      1.002704   211A      1.010049   212A      1.015870  
	 213A      1.019780   214A      1.028412   215A      1.032458  
	 216A      1.037082   217A      1.045279   218A      1.052442  
	 219A      1.069114   220A      1.073084   221A      1.086926  
	 222A      1.108192   223A      1.115880   224A      1.124480  
	 225A      1.131484   226A      1.136419   227A      1.154477  
	 228A      1.161100   229A      1.169682   230A      1.174833  
	 231A      1.201133   232A      1.206637   233A      1.208441  
	 234A      1.224596   235A      1.235424   236A      1.239671  
	 237A      1.274311   238A      1.279057   239A      1.316596  
	 240A      1.318628   241A      1.332984   242A      1.351978  
	 243A      1.374391   244A      1.378955   245A      1.388575  
	 246A      1.404132   247A      1.413976   248A      1.420447  
	 249A      1.429707   250A      1.449109   251A      1.464502  
	 252A      1.469876   253A      1.486510   254A      1.506992  
	 255A      1.517733   256A      1.525588   257A      1.542782  
	 258A      1.556611   259A      1.562442   260A      1.565118  
	 261A      1.585765   262A      1.587447   263A      1.604022  
	 264A      1.617746   265A      1.619264   266A      1.639578  
	 267A      1.648323   268A      1.656013   269A      1.661815  
	 270A      1.677741   271A      1.684247   272A      1.695213  
	 273A      1.706302   274A      1.725212   275A      1.736051  
	 276A      1.743909   277A      1.752245   278A      1.764753  
	 279A      1.784329   280A      1.801119   281A      1.818858  
	 282A      1.821274   283A      1.828826   284A      1.831386  
	 285A      1.863354   286A      1.876370   287A      1.893731  
	 288A      1.909827   289A      1.915802   290A      1.920047  
	 291A      1.931732   292A      1.942147   293A      1.967054  
	 294A      1.969559   295A      1.987567   296A      1.999733  
	 297A      2.004785   298A      2.013459   299A      2.037179  
	 300A      2.048023   301A      2.059488   302A      2.073972  
	 303A      2.079192   304A      2.105426   305A      2.126952  
	 306A      2.139362   307A      2.153132   308A      2.155521  
	 309A      2.168067   310A      2.178664   311A      2.194607  
	 312A      2.219573   313A      2.227885   314A      2.235795  
	 315A      2.243109   316A      2.246662   317A      2.255268  
	 318A      2.262533   319A      2.280485   320A      2.285245  
	 321A      2.299365   322A      2.316841   323A      2.327931  
	 324A      2.337423   325A      2.346637   326A      2.354800  
	 327A      2.360551   328A      2.370926   329A      2.406281  
	 330A      2.412541   331A      2.422591   332A      2.432355  
	 333A      2.458782   334A      2.463374   335A      2.472702  
	 336A      2.509744   337A      2.529314   338A      2.538562  
	 339A      2.547892   340A      2.566431   341A      2.572525  
	 342A      2.575946   343A      2.595077   344A      2.632265  
	 345A      2.640056   346A      2.661928   347A      2.668696  
	 348A      2.691554   349A      2.695767   350A      2.703819  
	 351A      2.746722   352A      2.769966   353A      2.799462  
	 354A      2.827986   355A      2.854186   356A      2.873965  
	 357A      2.881138   358A      2.891649   359A      2.920680  
	 360A      2.925469   361A      2.956498   362A      2.960910  
	 363A      2.970108   364A      2.984774   365A      2.995101  
	 366A      3.018570   367A      3.042251   368A      3.058783  
	 369A      3.072770   370A      3.090021   371A      3.107305  
	 372A      3.132920   373A      3.172226   374A      3.220185  
	 375A      3.249091   376A      3.256830   377A      3.263722  
	 378A      3.295218   379A      3.321794   380A      3.343046  
	 381A      3.389663   382A      3.412993   383A      3.467177  
	 384A      3.507708   385A      3.607200   386A      3.642123  
	 387A      3.704799   388A      3.764442   389A      3.834885  
	 390A      3.863894   391A      3.885470   392A      3.896983  
	 393A      3.905539   394A      3.914849   395A      3.943544  
	 396A      3.965744   397A      4.047184   398A      4.073040  
	 399A      4.118170   400A      4.128352   401A      4.251076  
	 402A      4.461838   403A      4.683632  

	Final Occupation by Irrep:
	          A 
	DOCC [    50 ]

  Energy converged.

  @RHF Final Energy:  -659.19636453956400

   => Energetics <=

    Nuclear Repulsion Energy =            941.5476325610472941
    One-Electron Energy =               -2768.0369076632791803
    Two-Electron Energy =                1167.2929105626701585
    DFT Exchange-Correlation Energy =       0.0000000000000000
    Empirical Dispersion Energy =           0.0000000000000000
    Total Energy =                       -659.1963645395617277



Properties will be evaluated at   0.000000,   0.000000,   0.000000 Bohr
  ==> Properties <==


Properties computed using the SCF density density matrix
  Nuclear Dipole Moment: (a.u.)
     X:     0.9033      Y:     1.3201      Z:    -2.9901

  Electronic Dipole Moment: (a.u.)
     X:     0.1300      Y:    -1.0689      Z:     3.0581

  Dipole Moment: (a.u.)
     X:     1.0333      Y:     0.2511      Z:     0.0680     Total:     1.0655

  Dipole Moment: (Debye)
     X:     2.6264      Y:     0.6384      Z:     0.1728     Total:     2.7083


  Saving occupied orbitals to File 180.

  Saving SAPT 2-DIMER file.

*** tstop() called on node116.bme.utexas.edu at Sun Feb 16 12:52:40 2014
Module time:
	user time   =     612.30 seconds =      10.20 minutes
	system time =       4.63 seconds =       0.08 minutes
	total time  =        165 seconds =       2.75 minutes
Total time:
	user time   =     612.30 seconds =      10.20 minutes
	system time =       4.63 seconds =       0.08 minutes
	total time  =        165 seconds =       2.75 minutes

  //>>>>>>>>>>>>>>>>>>>>>>>>>>>>>>>>>>>//
  //            Monomer A HF           //
  //<<<<<<<<<<<<<<<<<<<<<<<<<<<<<<<<<<<//


  No DF_BASIS_SCF auxiliary basis selected, defaulting to aug-cc-pvdz-jkfit


*** tstart() called on node116.bme.utexas.edu
*** at Sun Feb 16 12:52:40 2014


         ---------------------------------------------------------
                                   SCF
            by Justin Turney, Rob Parrish, and Andy Simmonett
                              RHF Reference
                        4 Threads,   7000 MiB Core
         ---------------------------------------------------------

  ==> Geometry <==

    Molecular point group: c1
    Full point group: C1

    Geometry (in Angstrom), charge = 0, multiplicity = 1:

[...]
   @DF-RHF iter   2:  -412.44875698829406   -1.63058e-01   1.14887e-03 DIIS
   @DF-RHF iter   3:  -412.52436867015854   -7.56117e-02   2.16446e-04 DIIS
   @DF-RHF iter   4:  -412.52857177069234   -4.20310e-03   8.60996e-05 DIIS
   @DF-RHF iter   5:  -412.52940588516219   -8.34114e-04   1.75321e-05 DIIS
   @DF-RHF iter   6:  -412.52950246249657   -9.65773e-05   8.92118e-06 DIIS
   @DF-RHF iter   7:  -412.52951985871886   -1.73962e-05   3.41843e-06 DIIS
   @DF-RHF iter   8:  -412.52952267567105   -2.81695e-06   1.17733e-06 DIIS
   @DF-RHF iter   9:  -412.52952287959249   -2.03921e-07   4.77631e-07 DIIS
   @DF-RHF iter  10:  -412.52952293100202   -5.14095e-08   1.54057e-07 DIIS
   @DF-RHF iter  11:  -412.52952293672848   -5.72646e-09   5.24455e-08 DIIS
   @DF-RHF iter  12:  -412.52952293721091   -4.82430e-10   1.59355e-08 DIIS
   @DF-RHF iter  13:  -412.52952293726850   -5.75824e-11   5.68270e-09 DIIS
  Energy and wave function converged.


  ==> Post-Iterations <==

    Orbital Energies [Eh]
    ---------------------

    Doubly Occupied:                                                      

       1A    -20.558915     2A    -20.552948     3A    -15.652793  
       4A    -15.635229     5A    -11.429203     6A    -11.389870  
       7A    -11.348372     8A    -11.262581     9A     -1.442114  
      10A     -1.403341    11A     -1.319236    12A     -1.250394  
      13A     -1.092313    14A     -0.937669    15A     -0.905677  
      16A     -0.810147    17A     -0.768195    18A     -0.716566  
      19A     -0.680046    20A     -0.670288    21A     -0.655177  
      22A     -0.616388    23A     -0.603004    24A     -0.571506  
      25A     -0.526433    26A     -0.484504    27A     -0.449444  
      28A     -0.436551    29A     -0.368841  

    Virtual:                                                              

      30A      0.016355    31A      0.025246    32A      0.036300  
      33A      0.040800    34A      0.045515    35A      0.052240  
      36A      0.058448    37A      0.063628    38A      0.066606  
      39A      0.071337    40A      0.078265    41A      0.086911  
      42A      0.093701    43A      0.096166    44A      0.102873  
      45A      0.109305    46A      0.115010    47A      0.117354  
      48A      0.120803    49A      0.126715    50A      0.127672  
      51A      0.131255    52A      0.133888    53A      0.139017  
      54A      0.141899    55A      0.142821    56A      0.146221  
      57A      0.152504    58A      0.155016    59A      0.163086  
      60A      0.164110    61A      0.169166    62A      0.171525  
      63A      0.178269    64A      0.180585    65A      0.182281  
      66A      0.184656    67A      0.189676    68A      0.192344  
      69A      0.193223    70A      0.200987    71A      0.208087  
      72A      0.220686    73A      0.222630    74A      0.231696  
      75A      0.237350    76A      0.242643    77A      0.244369  
      78A      0.253010    79A      0.254966    80A      0.265223  
      81A      0.266072    82A      0.277886    83A      0.283990  
      84A      0.291769    85A      0.298469    86A      0.310870  
      87A      0.316440    88A      0.320943    89A      0.321786  
      90A      0.326095    91A      0.330055    92A      0.341032  
      93A      0.344081    94A      0.352889    95A      0.359769  
      96A      0.363248    97A      0.368299    98A      0.371456  
      99A      0.373297   100A      0.379315   101A      0.383978  
     102A      0.390400   103A      0.404667   104A      0.405789  
     105A      0.414499   106A      0.417818   107A      0.425820  
     108A      0.435828   109A      0.438576   110A      0.444055  
     111A      0.447744   112A      0.448805   113A      0.453846  
     114A      0.457960   115A      0.465731   116A      0.471749  
     117A      0.475860   118A      0.481420   119A      0.485131  
     120A      0.494102   121A      0.506583   122A      0.508185  
     123A      0.510141   124A      0.514721   125A      0.517393  
     126A      0.522411   127A      0.532353   128A      0.533966  
     129A      0.541444   130A      0.548341   131A      0.554892  
     132A      0.560213   133A      0.563179   134A      0.571373  
     135A      0.576180   136A      0.581220   137A      0.586033  
     138A      0.593026   139A      0.598797   140A      0.602288  
     141A      0.618148   142A      0.626595   143A      0.628817  
     144A      0.633844   145A      0.640564   146A      0.641310  
     147A      0.646007   148A      0.653369   149A      0.658091  
     150A      0.662402   151A      0.676360   152A      0.678442  
     153A      0.681741   154A      0.702772   155A      0.707715  
     156A      0.709518   157A      0.714556   158A      0.729925  
     159A      0.737784   160A      0.758352   161A      0.765452  
     162A      0.770397   163A      0.782372   164A      0.783520  
     165A      0.791820   166A      0.800693   167A      0.809246  
     168A      0.812472   169A      0.813613   170A      0.817008  
     171A      0.826527   172A      0.828669   173A      0.834288  
     174A      0.839412   175A      0.844859   176A      0.854820  
     177A      0.863795   178A      0.867256   179A      0.873369  
     180A      0.877625   181A      0.879869   182A      0.883923  
     183A      0.891999   184A      0.898693   185A      0.902880  
     186A      0.905368   187A      0.923012   188A      0.931632  
     189A      0.935919   190A      0.942687   191A      0.944613  
     192A      0.948064   193A      0.976531   194A      0.982135  
     195A      0.986741   196A      0.998440   197A      1.003766  
     198A      1.014126   199A      1.020293   200A      1.030999  
     201A      1.045602   202A      1.054612   203A      1.059635  
     204A      1.061916   205A      1.065060   206A      1.082241  
     207A      1.085874   208A      1.097676   209A      1.107274  
     210A      1.125970   211A      1.133643   212A      1.139552  
     213A      1.140781   214A      1.156194   215A      1.162465  
     216A      1.166201   217A      1.169263   218A      1.174700  
     219A      1.216457   220A      1.219623   221A      1.231236  
     222A      1.241447   223A      1.286865   224A      1.297726  
     225A      1.304240   226A      1.310360   227A      1.313690  
     228A      1.322648   229A      1.326860   230A      1.348358  
     231A      1.353276   232A      1.358324   233A      1.362303  
     234A      1.380801   235A      1.395969   236A      1.405235  
     237A      1.440947   238A      1.446371   239A      1.473858  
     240A      1.487712   241A      1.495288   242A      1.496935  
     243A      1.518485   244A      1.529638   245A      1.544372  
     246A      1.549438   247A      1.567213   248A      1.576978  
     249A      1.599501   250A      1.634976   251A      1.640878  
     252A      1.649328   253A      1.664295   254A      1.687857  
     255A      1.713547   256A      1.755535   257A      1.788784  
     258A      1.820190   259A      1.828788   260A      1.850730  
     261A      1.864973   262A      1.908252   263A      1.933498  
     264A      1.961869   265A      1.979983   266A      1.987340  
     267A      1.999460   268A      2.005153   269A      2.024140  
     270A      2.052356   271A      2.076714   272A      2.096128  
     273A      2.101704   274A      2.112301   275A      2.145115  
     276A      2.148639   277A      2.152082   278A      2.154612  
     279A      2.184686   280A      2.193993   281A      2.201061  
     282A      2.206786   283A      2.214684   284A      2.216726  
     285A      2.220863   286A      2.226503   287A      2.231840  
     288A      2.247305   289A      2.264123   290A      2.275011  
     291A      2.309022   292A      2.312220   293A      2.321086  
     294A      2.328129   295A      2.334366   296A      2.355742  
     297A      2.357806   298A      2.372905   299A      2.392153  
     300A      2.404037   301A      2.410768   302A      2.433706  
     303A      2.438066   304A      2.458289   305A      2.460176  
     306A      2.482795   307A      2.492977   308A      2.516663  
     309A      2.520614   310A      2.546087   311A      2.550523  
     312A      2.575638   313A      2.584634   314A      2.589225  
     315A      2.600189   316A      2.629043   317A      2.639911  
     318A      2.647589   319A      2.677069   320A      2.693026  
     321A      2.709701   322A      2.722876   323A      2.730144  
     324A      2.735668   325A      2.737498   326A      2.780302  
     327A      2.788333   328A      2.820734   329A      2.826042  
     330A      2.851909   331A      2.858848   332A      2.862552  
     333A      2.871577   334A      2.876471   335A      2.891988  
     336A      2.900712   337A      2.936803   338A      2.990528  
     339A      2.997913   340A      3.013338   341A      3.043197  
     342A      3.056938   343A      3.094155   344A      3.122452  
     345A      3.130213   346A      3.155874   347A      3.169703  
     348A      3.209121   349A      3.228903   350A      3.275275  
     351A      3.330966   352A      3.339576   353A      3.351435  
     354A      3.361169   355A      3.394029   356A      3.411858  
     357A      3.425841   358A      3.470833   359A      3.474366  
     360A      3.488941   361A      3.532975   362A      3.539351  
     363A      3.595258   364A      3.600888   365A      3.633153  
     366A      3.727249   367A      3.757388   368A      3.761285  
     369A      3.803287   370A      3.820174   371A      3.821265  
     372A      3.835269   373A      3.869187   374A      3.879373  
     375A      3.880513   376A      4.009925   377A      4.028299  
     378A      4.049957   379A      4.054016   380A      4.072859  
     381A      4.172847   382A      4.180820   383A      4.316442  
     384A      4.439313   385A      4.511905   386A      4.604624  
     387A      4.659447   388A      4.777845   389A      4.925523  
     390A      5.140127   391A      5.400737   392A      5.488601  
     393A      5.550079   394A      5.598892   395A      5.606422  
     396A      5.775713   397A      6.141351   398A     18.063127  
     399A     18.356727   400A     18.704058   401A     19.048569  
     402A     19.880140   403A     25.325285  

    Final Occupation by Irrep:
              A 
    DOCC [    29 ]

  @DF-RHF Final Energy:  -412.52952293726850

   => Energetics <=

    Nuclear Repulsion Energy =            357.2357563784163403
    One-Electron Energy =               -1270.4550588929701007
    Two-Electron Energy =                 500.6897795772852646
    Total Energy =                       -412.5295229372684958

Computation Completed


Properties will be evaluated at   0.000000,   0.000000,   0.000000 [a0]

Properties computed using the SCF density matrix

  Nuclear Dipole Moment: [e a0]
     X:    28.6027      Y:    16.0916      Z:   283.5017

  Electronic Dipole Moment: [e a0]
     X:   -26.6581      Y:   -15.7343      Z:  -283.2351

  Dipole Moment: [e a0]
     X:     1.9446      Y:     0.3573      Z:     0.2666     Total:     1.9951

  Dipole Moment: [D]
     X:     4.9428      Y:     0.9081      Z:     0.6777     Total:     5.0710


*** tstop() called on node100.bme.utexas.edu at Thu Apr 23 17:32:22 2020
Module time:
	user time   =      86.42 seconds =       1.44 minutes
	system time =       2.42 seconds =       0.04 minutes
	total time  =         35 seconds =       0.58 minutes
Total time:
	user time   =     319.03 seconds =       5.32 minutes
	system time =       8.00 seconds =       0.13 minutes
	total time  =         68 seconds =       1.13 minutes
  Constructing Basis Sets for SAPT...

   => Loading Basis Set <=

    Name: (AUG-CC-PVDZ AUX)
    Role: RIFIT
    Keyword: DF_BASIS_SAPT
    atoms 1, 12, 20                      entry N          line   158 file /home/liuchw/anaconda3/envs/psi4env/share/psi4/basis/aug-cc-pvdz-ri.gbs 
    atoms 2, 4, 6, 8, 10, 14, 16, 18, 22 entry C          line   112 file /home/liuchw/anaconda3/envs/psi4env/share/psi4/basis/aug-cc-pvdz-ri.gbs 
    atoms 3, 5, 7, 9, 11, 13, 17, 19, 21 entry H          line    30 file /home/liuchw/anaconda3/envs/psi4env/share/psi4/basis/aug-cc-pvdz-ri.gbs 
    atoms 15, 23                         entry O          line   204 file /home/liuchw/anaconda3/envs/psi4env/share/psi4/basis/aug-cc-pvdz-ri.gbs 


  //>>>>>>>>>>>>>>>>>>>>>>>>>>>>>>>>>>>//
  //               SAPT2+              //
  //<<<<<<<<<<<<<<<<<<<<<<<<<<<<<<<<<<<//


*** tstart() called on node100.bme.utexas.edu
*** at Thu Apr 23 17:32:22 2020

        SAPT2+  
    Ed Hohenstein
     6 June 2009

      Orbital Information
  --------------------------
    NSO        =       403
    NMO        =       403
    NRI        =      1215
    NOCC A     =        21
    NOCC B     =        29
    FOCC A     =         6
    FOCC B     =         8
    NVIR A     =       382
    NVIR B     =       374

    Estimated memory usage: 4363.7 MB

    Natural Orbital Cutoff:   1.000E-06
    Disp(T3) Truncation:            Yes
    CCD (vv|vv) Truncation:         Yes
    MBPT T2 Truncation:             Yes

    Monomer A: 229 virtual orbitals dropped
    Monomer B: 192 virtual orbitals dropped

    Elst10,r            =    -0.000753312782 [Eh]
    Exch10 (S^2)        =     0.000001234420 [Eh]
    Exch10              =     0.000001234419 [Eh]
    Ind20,r (A<-B)      =    -0.000018844577 [Eh]
    Ind20,r (B<-A)      =    -0.000011898844 [Eh]
    Ind20,r             =    -0.000030743421 [Eh]
    Exch-Ind20,r (A<-B) =     0.000000650392 [Eh]
    Exch-Ind20,r (B<-A) =     0.000000133191 [Eh]
    Exch-Ind20,r        =     0.000000783583 [Eh]
    Disp20              =    -0.000517833864 [Eh]
    Disp20 (NO)         =    -0.000512481129 [Eh]
    Exch-Disp20         =     0.000000399292 [Eh]
    Elst12,r            =     0.000125830409 [Eh]
    Exch11              =    -0.000000056023 [Eh]
    Exch12              =     0.000000116434 [Eh]
    Ind22               =     0.000008073244 [Eh]
    Disp21              =     0.000194256850 [Eh]
    Disp22 (SDQ)        =    -0.000027249970 [Eh]

    (i =   1 of  21)         26 seconds
    (i =   2 of  21)         52 seconds
    (i =   3 of  21)         78 seconds
    (i =   4 of  21)        104 seconds
    (i =   5 of  21)        130 seconds
    (i =   6 of  21)        156 seconds
    (i =   7 of  21)        182 seconds
    (i =   8 of  21)        208 seconds
    (i =   9 of  21)        234 seconds
    (i =  10 of  21)        260 seconds
    (i =  11 of  21)        286 seconds
    (i =  12 of  21)        312 seconds
    (i =  13 of  21)        337 seconds
    (i =  14 of  21)        363 seconds
    (i =  15 of  21)        389 seconds
    (i =  16 of  21)        415 seconds
    (i =  17 of  21)        441 seconds
    (i =  18 of  21)        467 seconds
    (i =  19 of  21)        493 seconds
    (i =  20 of  21)        519 seconds
    (i =  21 of  21)        545 seconds

    Disp220 (T)         =    -0.000056839054 [Eh]

    (i =   1 of  15)         57 seconds
    (i =   2 of  15)        115 seconds
    (i =   3 of  15)        172 seconds
    (i =   4 of  15)        229 seconds
    (i =   5 of  15)        286 seconds
    (i =   6 of  15)        344 seconds
    (i =   7 of  15)        401 seconds
    (i =   8 of  15)        458 seconds
    (i =   9 of  15)        515 seconds
    (i =  10 of  15)        572 seconds
    (i =  11 of  15)        630 seconds
    (i =  12 of  15)        687 seconds
    (i =  13 of  15)        744 seconds
    (i =  14 of  15)        801 seconds
    (i =  15 of  15)        858 seconds

    Disp202 (T)         =    -0.000062689798 [Eh]

    Disp22 (T)          =    -0.000119528851 [Eh]

    Est. Disp220 (T)    =    -0.000057432723 [Eh]
    Est. Disp202 (T)    =    -0.000063344577 [Eh]

    Est. Disp22 (T)     =    -0.000120777300 [Eh]

    SAPT Results 
  --------------------------------------------------------------------------------------------------------
    Electrostatics                 -0.62748237 [mEh]      -0.39375113 [kcal/mol]      -1.64745474 [kJ/mol]
      Elst10,r                     -0.75331278 [mEh]      -0.47271091 [kcal/mol]      -1.97782244 [kJ/mol]
      Elst12,r                      0.12583041 [mEh]       0.07895977 [kcal/mol]       0.33036769 [kJ/mol]

    Exchange                        0.00129483 [mEh]       0.00081252 [kcal/mol]       0.00339958 [kJ/mol]
      Exch10                        0.00123442 [mEh]       0.00077461 [kcal/mol]       0.00324097 [kJ/mol]
      Exch10(S^2)                   0.00123442 [mEh]       0.00077461 [kcal/mol]       0.00324097 [kJ/mol]
      Exch11(S^2)                  -0.00005602 [mEh]      -0.00003515 [kcal/mol]      -0.00014709 [kJ/mol]
      Exch12(S^2)                   0.00011643 [mEh]       0.00007306 [kcal/mol]       0.00030570 [kJ/mol]

    Induction                      -0.02301040 [mEh]      -0.01443924 [kcal/mol]      -0.06041380 [kJ/mol]
      Ind20,r                      -0.03074342 [mEh]      -0.01929179 [kcal/mol]      -0.08071684 [kJ/mol]
      Ind22                         0.00807324 [mEh]       0.00506604 [kcal/mol]       0.02119630 [kJ/mol]
      Exch-Ind20,r                  0.00078358 [mEh]       0.00049171 [kcal/mol]       0.00205730 [kJ/mol]
      Exch-Ind22                   -0.00020577 [mEh]      -0.00012912 [kcal/mol]      -0.00054025 [kJ/mol]
      delta HF,r (2)               -0.00091804 [mEh]      -0.00057608 [kcal/mol]      -0.00241031 [kJ/mol]

    Dispersion                     -0.47120499 [mEh]      -0.29568560 [kcal/mol]      -1.23714854 [kJ/mol]
      Disp20                       -0.51783386 [mEh]      -0.32494566 [kcal/mol]      -1.35957262 [kJ/mol]
      Disp21                        0.19425685 [mEh]       0.12189801 [kcal/mol]       0.51002129 [kJ/mol]
      Disp22 (SDQ)                 -0.02724997 [mEh]      -0.01709961 [kcal/mol]      -0.07154479 [kJ/mol]
      Disp22 (T)                   -0.11952885 [mEh]      -0.07500549 [kcal/mol]      -0.31382296 [kJ/mol]
      Est. Disp22 (T)              -0.12077730 [mEh]      -0.07578890 [kcal/mol]      -0.31710076 [kJ/mol]
      Exch-Disp20                   0.00039929 [mEh]       0.00025056 [kcal/mol]       0.00104834 [kJ/mol]

  Total HF                         -0.78295624 [mEh]      -0.49131246 [kcal/mol]      -2.05565132 [kJ/mol]
  Total SAPT0                      -1.30039081 [mEh]      -0.81600755 [kcal/mol]      -3.41417561 [kJ/mol]
  Total SAPT2                      -1.16663252 [mEh]      -0.73207296 [kcal/mol]      -3.06299325 [kJ/mol]
  Total SAPT2+                     -1.12040294 [mEh]      -0.70306346 [kcal/mol]      -2.94161751 [kJ/mol]

  Special recipe for scaled SAPT0 (see Manual):
    Electrostatics sSAPT0          -0.75331278 [mEh]      -0.47271091 [kcal/mol]      -1.97782244 [kJ/mol]
    Exchange sSAPT0                 0.00123442 [mEh]       0.00077461 [kcal/mol]       0.00324097 [kJ/mol]
    Induction sSAPT0               -0.03087788 [mEh]      -0.01937616 [kcal/mol]      -0.08106985 [kJ/mol]
    Dispersion sSAPT0              -0.51743457 [mEh]      -0.32469510 [kcal/mol]      -1.35852428 [kJ/mol]
  Total sSAPT0                     -1.30039081 [mEh]      -0.81600755 [kcal/mol]      -3.41417561 [kJ/mol]
  --------------------------------------------------------------------------------------------------------

*** tstop() called on node100.bme.utexas.edu at Thu Apr 23 18:06:24 2020
Module time:
	user time   =   13315.20 seconds =     221.92 minutes
	system time =     290.74 seconds =       4.85 minutes
	total time  =       2042 seconds =      34.03 minutes
Total time:
	user time   =   13635.58 seconds =     227.26 minutes
	system time =     298.83 seconds =       4.98 minutes
	total time  =       2110 seconds =      35.17 minutes

    Psi4 stopped on: Thursday, 23 April 2020 06:06PM
    Psi4 wall time for execution: 0:35:09.94

*** Psi4 exiting successfully. Buy a developer a beer!
