
    -----------------------------------------------------------------------
          Psi4: An Open-Source Ab Initio Electronic Structure Package
                               Psi4 1.4a2.dev224 

                         Git: Rev {master} e453b16 


    R. M. Parrish, L. A. Burns, D. G. A. Smith, A. C. Simmonett,
    A. E. DePrince III, E. G. Hohenstein, U. Bozkaya, A. Yu. Sokolov,
    R. Di Remigio, R. M. Richard, J. F. Gonthier, A. M. James,
    H. R. McAlexander, A. Kumar, M. Saitow, X. Wang, B. P. Pritchard,
    P. Verma, H. F. Schaefer III, K. Patkowski, R. A. King, E. F. Valeev,
    F. A. Evangelista, J. M. Turney, T. D. Crawford, and C. D. Sherrill,
    J. Chem. Theory Comput. 13(7) pp 3185--3197 (2017).
    (doi: 10.1021/acs.jctc.7b00174)


                         Additional Contributions by
    P. Kraus, H. Kruse, M. H. Lechner, M. C. Schieber, R. A. Shaw,
    A. Alenaizan, R. Galvelis, Z. L. Glick, S. Lehtola, and J. P. Misiewicz

    -----------------------------------------------------------------------


    Psi4 started on: Thursday, 23 April 2020 05:31PM

    Process ID: 71709
    Host:       node100.bme.utexas.edu
    PSIDATADIR: /home/liuchw/anaconda3/envs/psi4env/share/psi4
    Memory:     500.0 MiB
    Threads:    8
    
  ==> Input File <==

--------------------------------------------------------------------------
#Generated by lconvert.py for sapt job

memory 20 GB

molecule  {
0 1
  N       1.210760    0.028680    0.329710
  C       0.611940   -1.158450    0.153450
  H       1.251480   -2.029520    0.219290
  C      -0.751310   -1.308650   -0.088830
  H      -1.170420   -2.296870   -0.213380
  C      -1.547870   -0.169940   -0.156470
  H      -2.611010   -0.245960   -0.338760
  C      -0.943620    1.070640    0.019820
  H      -1.518810    1.984500   -0.011640
  C       0.427720    1.116110    0.257350
  H       0.924700    2.068050    0.397550
--
0 1
  N      -0.453650   -0.135330    6.206630
  H      -1.348540   -0.567190    6.022030
  C      -0.453390    1.262490    6.299640
  O      -1.493270    1.890680    6.184790
  C       0.866100    1.821570    6.527200
  H       0.967420    2.888790    6.623070
  C       1.935980    1.002870    6.598720
  H       2.939860    1.371540    6.747150
  N       1.817910   -0.354420    6.486170
  H       2.631350   -0.946610    6.478000
  C       0.617470   -1.001650    6.259790
  O       0.525330   -2.207070    6.126210
units angstrom
no_reorient
symmetry c1
}

set {
scf_type DF
basis aug-cc-pvdz
freeze_core True
guess SAD
}
energy('sapt2+')
--------------------------------------------------------------------------

  Memory set to  18.626 GiB by Python driver.

Scratch directory: /scratch/liuchw/

  //>>>>>>>>>>>>>>>>>>>>>>>>>>>>>>>>>>>//
  //              Dimer HF             //
  //<<<<<<<<<<<<<<<<<<<<<<<<<<<<<<<<<<<//


*** tstart() called on node100.bme.utexas.edu
*** at Thu Apr 23 17:31:14 2020

   => Loading Basis Set <=

    Name: AUG-CC-PVDZ
    Role: ORBITAL
    Keyword: BASIS
    atoms 1, 12, 20                      entry N          line   218 file /home/liuchw/anaconda3/envs/psi4env/share/psi4/basis/aug-cc-pvdz.gbs 
    atoms 2, 4, 6, 8, 10, 14, 16, 18, 22 entry C          line   182 file /home/liuchw/anaconda3/envs/psi4env/share/psi4/basis/aug-cc-pvdz.gbs 
    atoms 3, 5, 7, 9, 11, 13, 17, 19, 21 entry H          line    40 file /home/liuchw/anaconda3/envs/psi4env/share/psi4/basis/aug-cc-pvdz.gbs 
    atoms 15, 23                         entry O          line   254 file /home/liuchw/anaconda3/envs/psi4env/share/psi4/basis/aug-cc-pvdz.gbs 


         ---------------------------------------------------------
                                   SCF
               by Justin Turney, Rob Parrish, Andy Simmonett
                          and Daniel G. A. Smith
                              RHF Reference
                        8 Threads,  19073 MiB Core
         ---------------------------------------------------------

  ==> Geometry <==

    Molecular point group: c1
    Full point group: C1

    Geometry (in Angstrom), charge = 0, multiplicity = 1:

       Center              X                  Y                   Z               Mass       
    ------------   -----------------  -----------------  -----------------  -----------------
         N            1.044252427503    -0.088277487249    -3.416795087180    14.003074004430
         C            0.445432427503    -1.275407487249    -3.593055087180    12.000000000000
         H            1.084972427503    -2.146477487249    -3.527215087180     1.007825032230
         C           -0.917817572497    -1.425607487249    -3.835335087180    12.000000000000
         H           -1.336927572497    -2.413827487249    -3.959885087180     1.007825032230
         C           -1.714377572497    -0.286897487249    -3.902975087180    12.000000000000
         H           -2.777517572497    -0.362917487249    -4.085265087180     1.007825032230
         C           -1.110127572497     0.953682512751    -3.726685087180    12.000000000000
         H           -1.685317572497     1.867542512751    -3.758145087180     1.007825032230
         C            0.261212427503     0.999152512751    -3.489155087180    12.000000000000
         H            0.758192427503     1.951092512751    -3.348955087180     1.007825032230
         N           -0.620157572497    -0.252287487249     2.460124912820    14.003074004430
         H           -1.515047572497    -0.684147487249     2.275524912820     1.007825032230
         C           -0.619897572497     1.145532512751     2.553134912820    12.000000000000
         O           -1.659777572497     1.773722512751     2.438284912820    15.994914619570
         C            0.699592427503     1.704612512751     2.780694912820    12.000000000000
         H            0.800912427503     2.771832512751     2.876564912820     1.007825032230
         C            1.769472427503     0.885912512751     2.852214912820    12.000000000000
         H            2.773352427503     1.254582512751     3.000644912820     1.007825032230
         N            1.651402427503    -0.471377487249     2.739664912820    14.003074004430
         H            2.464842427503    -1.063567487249     2.731494912820     1.007825032230
         C            0.450962427503    -1.118607487249     2.513284912820    12.000000000000
         O            0.358822427503    -2.324027487249     2.379704912820    15.994914619570

  Running in c1 symmetry.

  Rotational constants: A =      0.03167  B =      0.00826  C =      0.00775 [cm^-1]
  Rotational constants: A =    949.56595  B =    247.74445  C =    232.32132 [MHz]
  Nuclear repulsion =  756.277190814649430

  Charge       = 0
  Multiplicity = 1
  Electrons    = 100
  Nalpha       = 50
  Nbeta        = 50

  ==> Algorithm <==

  SCF Algorithm Type is DF.
  DIIS enabled.
  MOM disabled.
  Fractional occupation disabled.
  Guess Type is SAD.
  Energy threshold   = 1.00e-08
  Density threshold  = 1.00e-08
  Integral threshold = 0.00e+00

  ==> Primary Basis <==

  Basis Set: AUG-CC-PVDZ
    Blend: AUG-CC-PVDZ
    Number of shells: 171
    Number of basis function: 403
    Number of Cartesian functions: 431
    Spherical Harmonics?: true
    Max angular momentum: 2

   => Loading Basis Set <=

    Name: (AUG-CC-PVDZ AUX)
    Role: JKFIT
    Keyword: DF_BASIS_SCF
    atoms 1, 12, 20                      entry N          line   212 file /home/liuchw/anaconda3/envs/psi4env/share/psi4/basis/aug-cc-pvdz-jkfit.gbs 
    atoms 2, 4, 6, 8, 10, 14, 16, 18, 22 entry C          line   154 file /home/liuchw/anaconda3/envs/psi4env/share/psi4/basis/aug-cc-pvdz-jkfit.gbs 
    atoms 3, 5, 7, 9, 11, 13, 17, 19, 21 entry H          line    70 file /home/liuchw/anaconda3/envs/psi4env/share/psi4/basis/aug-cc-pvdz-jkfit.gbs 
    atoms 15, 23                         entry O          line   270 file /home/liuchw/anaconda3/envs/psi4env/share/psi4/basis/aug-cc-pvdz-jkfit.gbs 

  ==> Pre-Iterations <==

   -------------------------------------------------------
    Irrep   Nso     Nmo     Nalpha   Nbeta   Ndocc  Nsocc
   -------------------------------------------------------
     A        403     403       0       0       0       0
   -------------------------------------------------------
    Total     403     403      50      50      50       0
   -------------------------------------------------------

  ==> Integral Setup <==

  ==> DiskDFJK: Density-Fitted J/K Matrices <==

    J tasked:                  Yes
    K tasked:                  Yes
    wK tasked:                  No
    OpenMP threads:              8
    Integrals threads:           8
    Memory [MiB]:            14305
    Algorithm:                Core
    Integral Cache:           SAVE
    Schwarz Cutoff:          1E-12
    Fitting Condition:       1E-10

   => Auxiliary Basis Set <=

  Basis Set: (AUG-CC-PVDZ AUX)
    Blend: AUG-CC-PVDZ-JKFIT
    Number of shells: 500
    Number of basis function: 1492
    Number of Cartesian functions: 1729
    Spherical Harmonics?: true
    Max angular momentum: 3

  Minimum eigenvalue in the overlap matrix is 1.0243123546E-05.
  Using Symmetric Orthogonalization.

  SCF Guess: Superposition of Atomic Densities via on-the-fly atomic UHF.

  ==> Iterations <==

                           Total Energy        Delta E     RMS |[F,P]|

   @DF-RHF iter SAD:  -658.00872036202543   -6.58009e+02   0.00000e+00 
   @DF-RHF iter   1:  -658.86988553177389   -8.61165e-01   2.12237e-03 DIIS
   @DF-RHF iter   2:  -659.15076231527291   -2.80877e-01   1.25603e-03 DIIS
   @DF-RHF iter   3:  -659.24686030119028   -9.60980e-02   2.65455e-04 DIIS
   @DF-RHF iter   4:  -659.25284491224102   -5.98461e-03   1.11491e-04 DIIS
   @DF-RHF iter   5:  -659.25404214538185   -1.19723e-03   1.92011e-05 DIIS
   @DF-RHF iter   6:  -659.25414277698962   -1.00632e-04   9.55079e-06 DIIS
   @DF-RHF iter   7:  -659.25416486402105   -2.20870e-05   4.17225e-06 DIIS
   @DF-RHF iter   8:  -659.25416895295359   -4.08893e-06   1.43139e-06 DIIS
   @DF-RHF iter   9:  -659.25416933038946   -3.77436e-07   5.58817e-07 DIIS
   @DF-RHF iter  10:  -659.25416939355523   -6.31658e-08   2.01209e-07 DIIS
   @DF-RHF iter  11:  -659.25416940344542   -9.89019e-09   6.74920e-08 DIIS
   @DF-RHF iter  12:  -659.25416940440641   -9.60995e-10   2.53361e-08 DIIS
   @DF-RHF iter  13:  -659.25416940454556   -1.39153e-10   8.97802e-09 DIIS
  Energy and wave function converged.


  ==> Post-Iterations <==

    Orbital Energies [Eh]
    ---------------------

    Doubly Occupied:                                                      

       1A    -20.556103     2A    -20.550560     3A    -15.649700  
       4A    -15.632543     5A    -15.575856     6A    -11.426377  
       7A    -11.387437     8A    -11.345534     9A    -11.281524  
      10A    -11.281327    11A    -11.265626    12A    -11.259637  
      13A    -11.247708    14A    -11.247647    15A     -1.439282  
      16A     -1.400948    17A     -1.316261    18A     -1.258971  
      19A     -1.247611    20A     -1.091704    21A     -1.089412  
      22A     -1.035658    23A     -0.934770    24A     -0.902898  
      25A     -0.860637    26A     -0.856969    27A     -0.807252  
      28A     -0.765389    29A     -0.721958    30A     -0.713725  
      31A     -0.677508    32A     -0.667283    33A     -0.660570  
      34A     -0.654412    35A     -0.652465    36A     -0.613836  
      37A     -0.600326    38A     -0.598323    39A     -0.576526  
      40A     -0.568939    41A     -0.540081    42A     -0.523374  
      43A     -0.519429    44A     -0.481801    45A     -0.447050  
      46A     -0.434034    47A     -0.419473    48A     -0.382733  
      49A     -0.365952    50A     -0.346842  

    Virtual:                                                              

      51A      0.021375    52A      0.034397    53A      0.039263  
      54A      0.046846    55A      0.047111    56A      0.054379  
      57A      0.060007    58A      0.064883    59A      0.065929  
      60A      0.076097    61A      0.086806    62A      0.091254  
      63A      0.098469    64A      0.102271    65A      0.105606  
      66A      0.115009    67A      0.116866    68A      0.120549  
      69A      0.121911    70A      0.128608    71A      0.130043  
      72A      0.131621    73A      0.140293    74A      0.144133  
      75A      0.146325    76A      0.147849    77A      0.149907  
      78A      0.151811    79A      0.159931    80A      0.162547  
      81A      0.165926    82A      0.166902    83A      0.171520  
      84A      0.177292    85A      0.178700    86A      0.181014  
      87A      0.186207    88A      0.186462    89A      0.188980  
      90A      0.194585    91A      0.199284    92A      0.203298  
      93A      0.205736    94A      0.218578    95A      0.232993  
      96A      0.238964    97A      0.246227    98A      0.256056  
      99A      0.259252   100A      0.267400   101A      0.279266  
     102A      0.284597   103A      0.290350   104A      0.295209  
     105A      0.299732   106A      0.305544   107A      0.312019  
     108A      0.316416   109A      0.322256   110A      0.327206  
     111A      0.328762   112A      0.334334   113A      0.335249  
     114A      0.342232   115A      0.345392   116A      0.346202  
     117A      0.350393   118A      0.354242   119A      0.362208  
     120A      0.365251   121A      0.366990   122A      0.374953  
     123A      0.383345   124A      0.384553   125A      0.386620  
     126A      0.393549   127A      0.404764   128A      0.406557  
     129A      0.409633   130A      0.418203   131A      0.419717  
     132A      0.429288   133A      0.433021   134A      0.436705  
     135A      0.443234   136A      0.447231   137A      0.452474  
     138A      0.456740   139A      0.458276   140A      0.472021  
     141A      0.477940   142A      0.492013   143A      0.495779  
     144A      0.503494   145A      0.512494   146A      0.518171  
     147A      0.527605   148A      0.536586   149A      0.546273  
     150A      0.550083   151A      0.555772   152A      0.557368  
     153A      0.562433   154A      0.566517   155A      0.576827  
     156A      0.578673   157A      0.581872   158A      0.584114  
     159A      0.590150   160A      0.598319   161A      0.610464  
     162A      0.616158   163A      0.621310   164A      0.629637  
     165A      0.632629   166A      0.636412   167A      0.642773  
     168A      0.649316   169A      0.654776   170A      0.657390  
     171A      0.671013   172A      0.674538   173A      0.684258  
     174A      0.687700   175A      0.689981   176A      0.693211  
     177A      0.693418   178A      0.704575   179A      0.708344  
     180A      0.711664   181A      0.713543   182A      0.721551  
     183A      0.727295   184A      0.736482   185A      0.746164  
     186A      0.747050   187A      0.750711   188A      0.767225  
     189A      0.771911   190A      0.776392   191A      0.788776  
     192A      0.799207   193A      0.808583   194A      0.816840  
     195A      0.821708   196A      0.829997   197A      0.835654  
     198A      0.842757   199A      0.845787   200A      0.854071  
     201A      0.856427   202A      0.859669   203A      0.865012  
     204A      0.877200   205A      0.883170   206A      0.888860  
     207A      0.898884   208A      0.905289   209A      0.909761  
     210A      0.915795   211A      0.925380   212A      0.932493  
     213A      0.946624   214A      0.948710   215A      0.959269  
     216A      0.967006   217A      0.970159   218A      0.982071  
     219A      0.985753   220A      0.988623   221A      0.991384  
     222A      1.000717   223A      1.002625   224A      1.017373  
     225A      1.025735   226A      1.033516   227A      1.039079  
     228A      1.064122   229A      1.071068   230A      1.076748  
     231A      1.088291   232A      1.093260   233A      1.100758  
     234A      1.109260   235A      1.129613   236A      1.137739  
     237A      1.142314   238A      1.144868   239A      1.168912  
     240A      1.171996   241A      1.200492   242A      1.222140  
     243A      1.233409   244A      1.242432   245A      1.244458  
     246A      1.267581   247A      1.295587   248A      1.306595  
     249A      1.307968   250A      1.325741   251A      1.349638  
     252A      1.353406   253A      1.360589   254A      1.364493  
     255A      1.394930   256A      1.399127   257A      1.414310  
     258A      1.447480   259A      1.454649   260A      1.475459  
     261A      1.490560   262A      1.518318   263A      1.531520  
     264A      1.538794   265A      1.542948   266A      1.547564  
     267A      1.552210   268A      1.566712   269A      1.567885  
     270A      1.574453   271A      1.594495   272A      1.601861  
     273A      1.611689   274A      1.619692   275A      1.621720  
     276A      1.642879   277A      1.652170   278A      1.661671  
     279A      1.672934   280A      1.686157   281A      1.688625  
     282A      1.691949   283A      1.703700   284A      1.715900  
     285A      1.722408   286A      1.749489   287A      1.758625  
     288A      1.777708   289A      1.788232   290A      1.796612  
     291A      1.815562   292A      1.823449   293A      1.833306  
     294A      1.835780   295A      1.852680   296A      1.855026  
     297A      1.868617   298A      1.910575   299A      1.918206  
     300A      1.925519   301A      1.936609   302A      1.951226  
     303A      1.954751   304A      1.961036   305A      1.965286  
     306A      1.983379   307A      1.991322   308A      2.002519  
     309A      2.010797   310A      2.027044   311A      2.048924  
     312A      2.055354   313A      2.056953   314A      2.074417  
     315A      2.101011   316A      2.109005   317A      2.117134  
     318A      2.123373   319A      2.139592   320A      2.159866  
     321A      2.172066   322A      2.197014   323A      2.203094  
     324A      2.203928   325A      2.219638   326A      2.224384  
     327A      2.240868   328A      2.250883   329A      2.266932  
     330A      2.270100   331A      2.285636   332A      2.307228  
     333A      2.327728   334A      2.336131   335A      2.360057  
     336A      2.363918   337A      2.364805   338A      2.376478  
     339A      2.431097   340A      2.436296   341A      2.440075  
     342A      2.460212   343A      2.464640   344A      2.485260  
     345A      2.486283   346A      2.518937   347A      2.551559  
     348A      2.556978   349A      2.578712   350A      2.619902  
     351A      2.630609   352A      2.645509   353A      2.695812  
     354A      2.706089   355A      2.725920   356A      2.738884  
     357A      2.744143   358A      2.782115   359A      2.788222  
     360A      2.796573   361A      2.824793   362A      2.831471  
     363A      2.850272   364A      2.856343   365A      2.865475  
     366A      2.879810   367A      2.897097   368A      2.903740  
     369A      2.975130   370A      2.983645   371A      3.000973  
     372A      3.001119   373A      3.016493   374A      3.097476  
     375A      3.117498   376A      3.132197   377A      3.137070  
     378A      3.160088   379A      3.172563   380A      3.231591  
     381A      3.271652   382A      3.334837   383A      3.363421  
     384A      3.399640   385A      3.404710   386A      3.477362  
     387A      3.541859   388A      3.598590   389A      3.630265  
     390A      3.666479   391A      3.730062   392A      3.759122  
     393A      3.763561   394A      3.805863   395A      3.823316  
     396A      3.823906   397A      3.837915   398A      4.030635  
     399A      4.052763   400A      4.075475   401A      4.174971  
     402A      4.294054   403A      4.319529  

    Final Occupation by Irrep:
              A 
    DOCC [    50 ]

  @DF-RHF Final Energy:  -659.25416940454556

   => Energetics <=

    Nuclear Repulsion Energy =            756.2771908146494297
    One-Electron Energy =               -2397.2987521629747789
    Two-Electron Energy =                 981.7673919437797849
    Total Energy =                       -659.2541694045455642

Computation Completed


Properties will be evaluated at   0.000000,   0.000000,   0.000000 [a0]

Properties computed using the SCF density matrix

  Nuclear Dipole Moment: [e a0]
     X:     0.5197      Y:     1.1004      Z:    -7.2898

  Electronic Dipole Moment: [e a0]
     X:     0.4968      Y:    -0.8230      Z:     7.3823

  Dipole Moment: [e a0]
     X:     1.0165      Y:     0.2774      Z:     0.0925     Total:     1.0577

  Dipole Moment: [D]
     X:     2.5837      Y:     0.7050      Z:     0.2350     Total:     2.6884


*** tstop() called on node100.bme.utexas.edu at Thu Apr 23 17:31:36 2020
Module time:
	user time   =     159.68 seconds =       2.66 minutes
	system time =       3.54 seconds =       0.06 minutes
	total time  =         22 seconds =       0.37 minutes
Total time:
	user time   =     159.68 seconds =       2.66 minutes
	system time =       3.54 seconds =       0.06 minutes
	total time  =         22 seconds =       0.37 minutes

  //>>>>>>>>>>>>>>>>>>>>>>>>>>>>>>>>>>>//
  //            Monomer A HF           //
  //<<<<<<<<<<<<<<<<<<<<<<<<<<<<<<<<<<<//


*** tstart() called on node100.bme.utexas.edu
*** at Thu Apr 23 17:31:36 2020

   => Loading Basis Set <=

    Name: AUG-CC-PVDZ
    Role: ORBITAL
    Keyword: BASIS
    atoms 1, 12, 20                      entry N          line   218 file /home/liuchw/anaconda3/envs/psi4env/share/psi4/basis/aug-cc-pvdz.gbs 
    atoms 2, 4, 6, 8, 10, 14, 16, 18, 22 entry C          line   182 file /home/liuchw/anaconda3/envs/psi4env/share/psi4/basis/aug-cc-pvdz.gbs 
    atoms 3, 5, 7, 9, 11, 13, 17, 19, 21 entry H          line    40 file /home/liuchw/anaconda3/envs/psi4env/share/psi4/basis/aug-cc-pvdz.gbs 
    atoms 15, 23                         entry O          line   254 file /home/liuchw/anaconda3/envs/psi4env/share/psi4/basis/aug-cc-pvdz.gbs 


         ---------------------------------------------------------
                                   SCF
               by Justin Turney, Rob Parrish, Andy Simmonett
                          and Daniel G. A. Smith
                              RHF Reference
                        8 Threads,  19073 MiB Core
         ---------------------------------------------------------

  ==> Geometry <==

    Molecular point group: c1
    Full point group: C1

    Geometry (in Angstrom), charge = 0, multiplicity = 1:

       Center              X                  Y                   Z               Mass       
    ------------   -----------------  -----------------  -----------------  -----------------
         N            1.044252427503    -0.088277487249    -3.416795087180    14.003074004430
         C            0.445432427503    -1.275407487249    -3.593055087180    12.000000000000
         H            1.084972427503    -2.146477487249    -3.527215087180     1.007825032230
         C           -0.917817572497    -1.425607487249    -3.835335087180    12.000000000000
         H           -1.336927572497    -2.413827487249    -3.959885087180     1.007825032230
         C           -1.714377572497    -0.286897487249    -3.902975087180    12.000000000000
         H           -2.777517572497    -0.362917487249    -4.085265087180     1.007825032230
         C           -1.110127572497     0.953682512751    -3.726685087180    12.000000000000
         H           -1.685317572497     1.867542512751    -3.758145087180     1.007825032230
         C            0.261212427503     0.999152512751    -3.489155087180    12.000000000000
         H            0.758192427503     1.951092512751    -3.348955087180     1.007825032230
      Gh(N)          -0.620157572497    -0.252287487249     2.460124912820    14.003074004430
      Gh(H)          -1.515047572497    -0.684147487249     2.275524912820     1.007825032230
      Gh(C)          -0.619897572497     1.145532512751     2.553134912820    12.000000000000
      Gh(O)          -1.659777572497     1.773722512751     2.438284912820    15.994914619570
      Gh(C)           0.699592427503     1.704612512751     2.780694912820    12.000000000000
      Gh(H)           0.800912427503     2.771832512751     2.876564912820     1.007825032230
      Gh(C)           1.769472427503     0.885912512751     2.852214912820    12.000000000000
      Gh(H)           2.773352427503     1.254582512751     3.000644912820     1.007825032230
      Gh(N)           1.651402427503    -0.471377487249     2.739664912820    14.003074004430
      Gh(H)           2.464842427503    -1.063567487249     2.731494912820     1.007825032230
      Gh(C)           0.450962427503    -1.118607487249     2.513284912820    12.000000000000
      Gh(O)           0.358822427503    -2.324027487249     2.379704912820    15.994914619570

  Running in c1 symmetry.

  Rotational constants: A =      0.03167  B =      0.00826  C =      0.00775 [cm^-1]
  Rotational constants: A =    949.56595  B =    247.74445  C =    232.32132 [MHz]
  Nuclear repulsion =  206.160167744736810

  Charge       = 0
  Multiplicity = 1
  Electrons    = 42
  Nalpha       = 21
  Nbeta        = 21

  ==> Algorithm <==

  SCF Algorithm Type is DF.
  DIIS enabled.
  MOM disabled.
  Fractional occupation disabled.
  Guess Type is SAD.
  Energy threshold   = 1.00e-08
  Density threshold  = 1.00e-08
  Integral threshold = 0.00e+00

  ==> Primary Basis <==

  Basis Set: AUG-CC-PVDZ
    Blend: AUG-CC-PVDZ
    Number of shells: 171
    Number of basis function: 403
    Number of Cartesian functions: 431
    Spherical Harmonics?: true
    Max angular momentum: 2

   => Loading Basis Set <=

    Name: (AUG-CC-PVDZ AUX)
    Role: JKFIT
    Keyword: DF_BASIS_SCF
    atoms 1, 12, 20                      entry N          line   212 file /home/liuchw/anaconda3/envs/psi4env/share/psi4/basis/aug-cc-pvdz-jkfit.gbs 
    atoms 2, 4, 6, 8, 10, 14, 16, 18, 22 entry C          line   154 file /home/liuchw/anaconda3/envs/psi4env/share/psi4/basis/aug-cc-pvdz-jkfit.gbs 
    atoms 3, 5, 7, 9, 11, 13, 17, 19, 21 entry H          line    70 file /home/liuchw/anaconda3/envs/psi4env/share/psi4/basis/aug-cc-pvdz-jkfit.gbs 
    atoms 15, 23                         entry O          line   270 file /home/liuchw/anaconda3/envs/psi4env/share/psi4/basis/aug-cc-pvdz-jkfit.gbs 

  ==> Pre-Iterations <==

   -------------------------------------------------------
    Irrep   Nso     Nmo     Nalpha   Nbeta   Ndocc  Nsocc
   -------------------------------------------------------
     A        403     403       0       0       0       0
   -------------------------------------------------------
    Total     403     403      21      21      21       0
   -------------------------------------------------------

  ==> Integral Setup <==

  ==> DiskDFJK: Density-Fitted J/K Matrices <==

    J tasked:                  Yes
    K tasked:                  Yes
    wK tasked:                  No
    OpenMP threads:              8
    Integrals threads:           8
    Memory [MiB]:            14305
    Algorithm:                Core
    Integral Cache:           LOAD
    Schwarz Cutoff:          1E-12
    Fitting Condition:       1E-10

   => Auxiliary Basis Set <=

  Basis Set: (AUG-CC-PVDZ AUX)
    Blend: AUG-CC-PVDZ-JKFIT
    Number of shells: 500
    Number of basis function: 1492
    Number of Cartesian functions: 1729
    Spherical Harmonics?: true
    Max angular momentum: 3

  Minimum eigenvalue in the overlap matrix is 1.0243123546E-05.
  Using Symmetric Orthogonalization.

  SCF Guess: Superposition of Atomic Densities via on-the-fly atomic UHF.

  ==> Iterations <==

                           Total Energy        Delta E     RMS |[F,P]|

   @DF-RHF iter SAD:  -246.10471176614891   -2.46105e+02   0.00000e+00 
   @DF-RHF iter   1:  -246.58251294069868   -4.77801e-01   1.15619e-03 DIIS
   @DF-RHF iter   2:  -246.70025894964260   -1.17746e-01   5.22234e-04 DIIS
   @DF-RHF iter   3:  -246.72247443553920   -2.22155e-02   1.02239e-04 DIIS
   @DF-RHF iter   4:  -246.72377427832217   -1.29984e-03   3.13685e-05 DIIS
   @DF-RHF iter   5:  -246.72385394397298   -7.96657e-05   8.92055e-06 DIIS
   @DF-RHF iter   6:  -246.72386270271514   -8.75874e-06   2.18684e-06 DIIS
   @DF-RHF iter   7:  -246.72386337442495   -6.71710e-07   8.34141e-07 DIIS
   @DF-RHF iter   8:  -246.72386347669095   -1.02266e-07   3.31284e-07 DIIS
   @DF-RHF iter   9:  -246.72386350656444   -2.98735e-08   9.84027e-08 DIIS
   @DF-RHF iter  10:  -246.72386351017576   -3.61132e-09   3.65766e-08 DIIS
   @DF-RHF iter  11:  -246.72386351088372   -7.07956e-10   2.10219e-08 DIIS
   @DF-RHF iter  12:  -246.72386351103785   -1.54131e-10   5.49465e-09 DIIS
  Energy and wave function converged.


  ==> Post-Iterations <==

    Orbital Energies [Eh]
    ---------------------

    Doubly Occupied:                                                      

       1A    -15.576187     2A    -11.282204     3A    -11.282158  
       4A    -11.266920     5A    -11.248872     6A    -11.248816  
       7A     -1.259501     8A     -1.092798     9A     -1.036596  
      10A     -0.861712    11A     -0.857821    12A     -0.722926  
      13A     -0.661478    14A     -0.655600    15A     -0.599335  
      16A     -0.577554    17A     -0.540719    18A     -0.520440  
      19A     -0.419715    20A     -0.383609    21A     -0.347870  

    Virtual:                                                              

      22A      0.022731    23A      0.033238    24A      0.036699  
      25A      0.043682    26A      0.047341    27A      0.048379  
      28A      0.058992    29A      0.065186    30A      0.068858  
      31A      0.076113    32A      0.079611    33A      0.085921  
      34A      0.090687    35A      0.103213    36A      0.110480  
      37A      0.113798    38A      0.115729    39A      0.118655  
      40A      0.121676    41A      0.123862    42A      0.125034  
      43A      0.129227    44A      0.132698    45A      0.138188  
      46A      0.145648    47A      0.146654    48A      0.151289  
      49A      0.151919    50A      0.158879    51A      0.161584  
      52A      0.165553    53A      0.168656    54A      0.175758  
      55A      0.180291    56A      0.182809    57A      0.184774  
      58A      0.186283    59A      0.191917    60A      0.193201  
      61A      0.195142    62A      0.206918    63A      0.212085  
      64A      0.216365    65A      0.218770    66A      0.224697  
      67A      0.234280    68A      0.243578    69A      0.251131  
      70A      0.254180    71A      0.264466    72A      0.278230  
      73A      0.286258    74A      0.286570    75A      0.295783  
      76A      0.299355    77A      0.300235    78A      0.305362  
      79A      0.308545    80A      0.315949    81A      0.320262  
      82A      0.322795    83A      0.326146    84A      0.333321  
      85A      0.340817    86A      0.341478    87A      0.344953  
      88A      0.349363    89A      0.351591    90A      0.368707  
      91A      0.373917    92A      0.378448    93A      0.380951  
      94A      0.386803    95A      0.389378    96A      0.412584  
      97A      0.418903    98A      0.427479    99A      0.431149  
     100A      0.432279   101A      0.436031   102A      0.437487  
     103A      0.440680   104A      0.443382   105A      0.461145  
     106A      0.469855   107A      0.475579   108A      0.487101  
     109A      0.494470   110A      0.502498   111A      0.508440  
     112A      0.513038   113A      0.520044   114A      0.522456  
     115A      0.536316   116A      0.539305   117A      0.543632  
     118A      0.545650   119A      0.552520   120A      0.558453  
     121A      0.564767   122A      0.566629   123A      0.570326  
     124A      0.575314   125A      0.578874   126A      0.589556  
     127A      0.591969   128A      0.603084   129A      0.603268  
     130A      0.610175   131A      0.622264   132A      0.625625  
     133A      0.628544   134A      0.634144   135A      0.640033  
     136A      0.640981   137A      0.650964   138A      0.655512  
     139A      0.666211   140A      0.670566   141A      0.674686  
     142A      0.687547   143A      0.688390   144A      0.690214  
     145A      0.694094   146A      0.694643   147A      0.705478  
     148A      0.707658   149A      0.717670   150A      0.722233  
     151A      0.728587   152A      0.742390   153A      0.743328  
     154A      0.743829   155A      0.752061   156A      0.769844  
     157A      0.775882   158A      0.785235   159A      0.799534  
     160A      0.815219   161A      0.821431   162A      0.825819  
     163A      0.834849   164A      0.839447   165A      0.848384  
     166A      0.853772   167A      0.855218   168A      0.859122  
     169A      0.866992   170A      0.876149   171A      0.888383  
     172A      0.897687   173A      0.905304   174A      0.907300  
     175A      0.911522   176A      0.914292   177A      0.922774  
     178A      0.931192   179A      0.938006   180A      0.948718  
     181A      0.959110   182A      0.968276   183A      0.971256  
     184A      0.988009   185A      0.997113   186A      1.000380  
     187A      1.008402   188A      1.020108   189A      1.024315  
     190A      1.035990   191A      1.039146   192A      1.064206  
     193A      1.073385   194A      1.089009   195A      1.090977  
     196A      1.104902   197A      1.108825   198A      1.120730  
     199A      1.123944   200A      1.136547   201A      1.142628  
     202A      1.148019   203A      1.169699   204A      1.180828  
     205A      1.199265   206A      1.215768   207A      1.217018  
     208A      1.224080   209A      1.231169   210A      1.233479  
     211A      1.241422   212A      1.263933   213A      1.267740  
     214A      1.271558   215A      1.301163   216A      1.302014  
     217A      1.308156   218A      1.332103   219A      1.344653  
     220A      1.355604   221A      1.366665   222A      1.370722  
     223A      1.385231   224A      1.389278   225A      1.397168  
     226A      1.412638   227A      1.423651   228A      1.433395  
     229A      1.453325   230A      1.463112   231A      1.468287  
     232A      1.510251   233A      1.513971   234A      1.537125  
     235A      1.542292   236A      1.547978   237A      1.562810  
     238A      1.567675   239A      1.568380   240A      1.575842  
     241A      1.588918   242A      1.595720   243A      1.610549  
     244A      1.617853   245A      1.622026   246A      1.625126  
     247A      1.662789   248A      1.671819   249A      1.685461  
     250A      1.687861   251A      1.693135   252A      1.702557  
     253A      1.718800   254A      1.744997   255A      1.753793  
     256A      1.777293   257A      1.795154   258A      1.814653  
     259A      1.817021   260A      1.831462   261A      1.852973  
     262A      1.883839   263A      1.916102   264A      1.924626  
     265A      1.949088   266A      1.953728   267A      1.960698  
     268A      1.979621   269A      2.045886   270A      2.055842  
     271A      2.073419   272A      2.101272   273A      2.114126  
     274A      2.119741   275A      2.135337   276A      2.168687  
     277A      2.175823   278A      2.201436   279A      2.201893  
     280A      2.212263   281A      2.217774   282A      2.239903  
     283A      2.259974   284A      2.265909   285A      2.267881  
     286A      2.279937   287A      2.284633   288A      2.304177  
     289A      2.314078   290A      2.362813   291A      2.364261  
     292A      2.416861   293A      2.420682   294A      2.435364  
     295A      2.435949   296A      2.462801   297A      2.479694  
     298A      2.484953   299A      2.505064   300A      2.532001  
     301A      2.545482   302A      2.553582   303A      2.556162  
     304A      2.564264   305A      2.619140   306A      2.621045  
     307A      2.643482   308A      2.652513   309A      2.664619  
     310A      2.704736   311A      2.709987   312A      2.743270  
     313A      2.759139   314A      2.770069   315A      2.793009  
     316A      2.815444   317A      2.820659   318A      2.830137  
     319A      2.849848   320A      2.895784   321A      2.896532  
     322A      2.901981   323A      2.971740   324A      2.974326  
     325A      2.983718   326A      3.000406   327A      3.041279  
     328A      3.044628   329A      3.094963   330A      3.116278  
     331A      3.130973   332A      3.136004   333A      3.166955  
     334A      3.186576   335A      3.269134   336A      3.277224  
     337A      3.323906   338A      3.340179   339A      3.398900  
     340A      3.404659   341A      3.458397   342A      3.467160  
     343A      3.502226   344A      3.515535   345A      3.600254  
     346A      3.608961   347A      3.630363   348A      3.650056  
     349A      3.664185   350A      3.666386   351A      3.720024  
     352A      3.763265   353A      3.775002   354A      3.809954  
     355A      3.863664   356A      3.905610   357A      3.928283  
     358A      4.065576   359A      4.128665   360A      4.188104  
     361A      4.292984   362A      4.344330   363A      4.416481  
     364A      4.463703   365A      4.549017   366A      4.605628  
     367A      4.668659   368A      4.692742   369A      4.746113  
     370A      4.764401   371A      4.921495   372A      4.971168  
     373A      5.009408   374A      5.015010   375A      5.035242  
     376A      5.062325   377A      5.077526   378A      5.116226  
     379A      5.197884   380A      5.324112   381A      5.421528  
     382A      5.483838   383A      5.685314   384A      5.773597  
     385A      5.906868   386A      5.967315   387A      5.978196  
     388A      6.048817   389A      6.064779   390A      6.121638  
     391A      6.224823   392A      6.385756   393A      6.509016  
     394A      7.031545   395A      7.307008   396A     18.168745  
     397A     18.736328   398A     18.801269   399A     19.514435  
     400A     25.459062   401A     25.463147   402A     33.538418  
     403A     33.547980  

    Final Occupation by Irrep:
              A 
    DOCC [    21 ]

  @DF-RHF Final Energy:  -246.72386351103785

   => Energetics <=

    Nuclear Repulsion Energy =            206.1601677447368104
    One-Electron Energy =                -740.8824050373996215
    Two-Electron Energy =                 287.9983737816249914
    Total Energy =                       -246.7238635110378482

Computation Completed


Properties will be evaluated at   0.000000,   0.000000,   0.000000 [a0]

Properties computed using the SCF density matrix

  Nuclear Dipole Moment: [e a0]
     X:   -28.0830      Y:   -14.9912      Z:  -290.7916

  Electronic Dipole Moment: [e a0]
     X:    27.1742      Y:    14.9251      Z:   290.6381

  Dipole Moment: [e a0]
     X:    -0.9088      Y:    -0.0661      Z:    -0.1534     Total:     0.9240

  Dipole Moment: [D]
     X:    -2.3099      Y:    -0.1680      Z:    -0.3900     Total:     2.3486


*** tstop() called on node100.bme.utexas.edu at Thu Apr 23 17:31:47 2020
Module time:
	user time   =      72.83 seconds =       1.21 minutes
	system time =       2.04 seconds =       0.03 minutes
	total time  =         11 seconds =       0.18 minutes
Total time:
	user time   =     232.56 seconds =       3.88 minutes
	system time =       5.58 seconds =       0.09 minutes
	total time  =         33 seconds =       0.55 minutes

  //>>>>>>>>>>>>>>>>>>>>>>>>>>>>>>>>>>>//
  //            Monomer B HF           //
  //<<<<<<<<<<<<<<<<<<<<<<<<<<<<<<<<<<<//


*** tstart() called on node100.bme.utexas.edu
*** at Thu Apr 23 17:31:47 2020

   => Loading Basis Set <=

    Name: AUG-CC-PVDZ
    Role: ORBITAL
    Keyword: BASIS
    atoms 1, 12, 20                      entry N          line   218 file /home/liuchw/anaconda3/envs/psi4env/share/psi4/basis/aug-cc-pvdz.gbs 
    atoms 2, 4, 6, 8, 10, 14, 16, 18, 22 entry C          line   182 file /home/liuchw/anaconda3/envs/psi4env/share/psi4/basis/aug-cc-pvdz.gbs 
    atoms 3, 5, 7, 9, 11, 13, 17, 19, 21 entry H          line    40 file /home/liuchw/anaconda3/envs/psi4env/share/psi4/basis/aug-cc-pvdz.gbs 
    atoms 15, 23                         entry O          line   254 file /home/liuchw/anaconda3/envs/psi4env/share/psi4/basis/aug-cc-pvdz.gbs 


         ---------------------------------------------------------
                                   SCF
               by Justin Turney, Rob Parrish, Andy Simmonett
                          and Daniel G. A. Smith
                              RHF Reference
                        8 Threads,  19073 MiB Core
         ---------------------------------------------------------

  ==> Geometry <==

    Molecular point group: c1
    Full point group: C1

    Geometry (in Angstrom), charge = 0, multiplicity = 1:

       Center              X                  Y                   Z               Mass       
    ------------   -----------------  -----------------  -----------------  -----------------
      Gh(N)           1.044252427503    -0.088277487249    -3.416795087180    14.003074004430
      Gh(C)           0.445432427503    -1.275407487249    -3.593055087180    12.000000000000
      Gh(H)           1.084972427503    -2.146477487249    -3.527215087180     1.007825032230
      Gh(C)          -0.917817572497    -1.425607487249    -3.835335087180    12.000000000000
      Gh(H)          -1.336927572497    -2.413827487249    -3.959885087180     1.007825032230
      Gh(C)          -1.714377572497    -0.286897487249    -3.902975087180    12.000000000000
      Gh(H)          -2.777517572497    -0.362917487249    -4.085265087180     1.007825032230
      Gh(C)          -1.110127572497     0.953682512751    -3.726685087180    12.000000000000
      Gh(H)          -1.685317572497     1.867542512751    -3.758145087180     1.007825032230
      Gh(C)           0.261212427503     0.999152512751    -3.489155087180    12.000000000000
      Gh(H)           0.758192427503     1.951092512751    -3.348955087180     1.007825032230
         N           -0.620157572497    -0.252287487249     2.460124912820    14.003074004430
         H           -1.515047572497    -0.684147487249     2.275524912820     1.007825032230
         C           -0.619897572497     1.145532512751     2.553134912820    12.000000000000
         O           -1.659777572497     1.773722512751     2.438284912820    15.994914619570
         C            0.699592427503     1.704612512751     2.780694912820    12.000000000000
         H            0.800912427503     2.771832512751     2.876564912820     1.007825032230
         C            1.769472427503     0.885912512751     2.852214912820    12.000000000000
         H            2.773352427503     1.254582512751     3.000644912820     1.007825032230
         N            1.651402427503    -0.471377487249     2.739664912820    14.003074004430
         H            2.464842427503    -1.063567487249     2.731494912820     1.007825032230
         C            0.450962427503    -1.118607487249     2.513284912820    12.000000000000
         O            0.358822427503    -2.324027487249     2.379704912820    15.994914619570

  Running in c1 symmetry.

  Rotational constants: A =      0.03167  B =      0.00826  C =      0.00775 [cm^-1]
  Rotational constants: A =    949.56595  B =    247.74445  C =    232.32132 [MHz]
  Nuclear repulsion =  357.235756378416340

  Charge       = 0
  Multiplicity = 1
  Electrons    = 58
  Nalpha       = 29
  Nbeta        = 29

  ==> Algorithm <==

  SCF Algorithm Type is DF.
  DIIS enabled.
  MOM disabled.
  Fractional occupation disabled.
  Guess Type is SAD.
  Energy threshold   = 1.00e-08
  Density threshold  = 1.00e-08
  Integral threshold = 0.00e+00

  ==> Primary Basis <==

  Basis Set: AUG-CC-PVDZ
    Blend: AUG-CC-PVDZ
    Number of shells: 171
    Number of basis function: 403
    Number of Cartesian functions: 431
    Spherical Harmonics?: true
    Max angular momentum: 2

   => Loading Basis Set <=

    Name: (AUG-CC-PVDZ AUX)
    Role: JKFIT
    Keyword: DF_BASIS_SCF
    atoms 1, 12, 20                      entry N          line   212 file /home/liuchw/anaconda3/envs/psi4env/share/psi4/basis/aug-cc-pvdz-jkfit.gbs 
    atoms 2, 4, 6, 8, 10, 14, 16, 18, 22 entry C          line   154 file /home/liuchw/anaconda3/envs/psi4env/share/psi4/basis/aug-cc-pvdz-jkfit.gbs 
    atoms 3, 5, 7, 9, 11, 13, 17, 19, 21 entry H          line    70 file /home/liuchw/anaconda3/envs/psi4env/share/psi4/basis/aug-cc-pvdz-jkfit.gbs 
    atoms 15, 23                         entry O          line   270 file /home/liuchw/anaconda3/envs/psi4env/share/psi4/basis/aug-cc-pvdz-jkfit.gbs 

  ==> Pre-Iterations <==

   -------------------------------------------------------
    Irrep   Nso     Nmo     Nalpha   Nbeta   Ndocc  Nsocc
   -------------------------------------------------------
     A        403     403       0       0       0       0
   -------------------------------------------------------
    Total     403     403      29      29      29       0
   -------------------------------------------------------

  ==> Integral Setup <==

  ==> DiskDFJK: Density-Fitted J/K Matrices <==

    J tasked:                  Yes
    K tasked:                  Yes
    wK tasked:                  No
    OpenMP threads:              8
    Integrals threads:           8
    Memory [MiB]:            14305
    Algorithm:                Core
    Integral Cache:           LOAD
    Schwarz Cutoff:          1E-12
    Fitting Condition:       1E-10

   => Auxiliary Basis Set <=

  Basis Set: (AUG-CC-PVDZ AUX)
    Blend: AUG-CC-PVDZ-JKFIT
    Number of shells: 500
    Number of basis function: 1492
    Number of Cartesian functions: 1729
    Spherical Harmonics?: true
    Max angular momentum: 3

  Minimum eigenvalue in the overlap matrix is 1.0243123546E-05.
  Using Symmetric Orthogonalization.

  SCF Guess: Superposition of Atomic Densities via on-the-fly atomic UHF.

  ==> Iterations <==

                           Total Energy        Delta E     RMS |[F,P]|

   @DF-RHF iter SAD:  -411.90311438650417   -4.11903e+02   0.00000e+00 
   @DF-RHF iter   1:  -412.28569910534702   -3.82585e-01   1.78239e-03 DIIS
   @DF-RHF iter   2:  -412.44875698829406   -1.63058e-01   1.14887e-03 DIIS
   @DF-RHF iter   3:  -412.52436867015854   -7.56117e-02   2.16446e-04 DIIS
   @DF-RHF iter   4:  -412.52857177069234   -4.20310e-03   8.60996e-05 DIIS
   @DF-RHF iter   5:  -412.52940588516219   -8.34114e-04   1.75321e-05 DIIS
   @DF-RHF iter   6:  -412.52950246249657   -9.65773e-05   8.92118e-06 DIIS
   @DF-RHF iter   7:  -412.52951985871886   -1.73962e-05   3.41843e-06 DIIS
   @DF-RHF iter   8:  -412.52952267567105   -2.81695e-06   1.17733e-06 DIIS
   @DF-RHF iter   9:  -412.52952287959249   -2.03921e-07   4.77631e-07 DIIS
   @DF-RHF iter  10:  -412.52952293100202   -5.14095e-08   1.54057e-07 DIIS
   @DF-RHF iter  11:  -412.52952293672848   -5.72646e-09   5.24455e-08 DIIS
   @DF-RHF iter  12:  -412.52952293721091   -4.82430e-10   1.59355e-08 DIIS
   @DF-RHF iter  13:  -412.52952293726850   -5.75824e-11   5.68270e-09 DIIS
  Energy and wave function converged.


  ==> Post-Iterations <==

    Orbital Energies [Eh]
    ---------------------

    Doubly Occupied:                                                      

       1A    -20.558915     2A    -20.552948     3A    -15.652793  
       4A    -15.635229     5A    -11.429203     6A    -11.389870  
       7A    -11.348372     8A    -11.262581     9A     -1.442114  
      10A     -1.403341    11A     -1.319236    12A     -1.250394  
      13A     -1.092313    14A     -0.937669    15A     -0.905677  
      16A     -0.810147    17A     -0.768195    18A     -0.716566  
      19A     -0.680046    20A     -0.670288    21A     -0.655177  
      22A     -0.616388    23A     -0.603004    24A     -0.571506  
      25A     -0.526433    26A     -0.484504    27A     -0.449444  
      28A     -0.436551    29A     -0.368841  

    Virtual:                                                              

      30A      0.016355    31A      0.025246    32A      0.036300  
      33A      0.040800    34A      0.045515    35A      0.052240  
      36A      0.058448    37A      0.063628    38A      0.066606  
      39A      0.071337    40A      0.078265    41A      0.086911  
      42A      0.093701    43A      0.096166    44A      0.102873  
      45A      0.109305    46A      0.115010    47A      0.117354  
      48A      0.120803    49A      0.126715    50A      0.127672  
      51A      0.131255    52A      0.133888    53A      0.139017  
      54A      0.141899    55A      0.142821    56A      0.146221  
      57A      0.152504    58A      0.155016    59A      0.163086  
      60A      0.164110    61A      0.169166    62A      0.171525  
      63A      0.178269    64A      0.180585    65A      0.182281  
      66A      0.184656    67A      0.189676    68A      0.192344  
      69A      0.193223    70A      0.200987    71A      0.208087  
      72A      0.220686    73A      0.222630    74A      0.231696  
      75A      0.237350    76A      0.242643    77A      0.244369  
      78A      0.253010    79A      0.254966    80A      0.265223  
      81A      0.266072    82A      0.277886    83A      0.283990  
      84A      0.291769    85A      0.298469    86A      0.310870  
      87A      0.316440    88A      0.320943    89A      0.321786  
      90A      0.326095    91A      0.330055    92A      0.341032  
      93A      0.344081    94A      0.352889    95A      0.359769  
      96A      0.363248    97A      0.368299    98A      0.371456  
      99A      0.373297   100A      0.379315   101A      0.383978  
     102A      0.390400   103A      0.404667   104A      0.405789  
     105A      0.414499   106A      0.417818   107A      0.425820  
     108A      0.435828   109A      0.438576   110A      0.444055  
     111A      0.447744   112A      0.448805   113A      0.453846  
     114A      0.457960   115A      0.465731   116A      0.471749  
     117A      0.475860   118A      0.481420   119A      0.485131  
     120A      0.494102   121A      0.506583   122A      0.508185  
     123A      0.510141   124A      0.514721   125A      0.517393  
     126A      0.522411   127A      0.532353   128A      0.533966  
     129A      0.541444   130A      0.548341   131A      0.554892  
     132A      0.560213   133A      0.563179   134A      0.571373  
     135A      0.576180   136A      0.581220   137A      0.586033  
     138A      0.593026   139A      0.598797   140A      0.602288  
     141A      0.618148   142A      0.626595   143A      0.628817  
     144A      0.633844   145A      0.640564   146A      0.641310  
     147A      0.646007   148A      0.653369   149A      0.658091  
     150A      0.662402   151A      0.676360   152A      0.678442  
     153A      0.681741   154A      0.702772   155A      0.707715  
     156A      0.709518   157A      0.714556   158A      0.729925  
     159A      0.737784   160A      0.758352   161A      0.765452  
     162A      0.770397   163A      0.782372   164A      0.783520  
     165A      0.791820   166A      0.800693   167A      0.809246  
     168A      0.812472   169A      0.813613   170A      0.817008  
     171A      0.826527   172A      0.828669   173A      0.834288  
     174A      0.839412   175A      0.844859   176A      0.854820  
     177A      0.863795   178A      0.867256   179A      0.873369  
     180A      0.877625   181A      0.879869   182A      0.883923  
     183A      0.891999   184A      0.898693   185A      0.902880  
     186A      0.905368   187A      0.923012   188A      0.931632  
     189A      0.935919   190A      0.942687   191A      0.944613  
     192A      0.948064   193A      0.976531   194A      0.982135  
     195A      0.986741   196A      0.998440   197A      1.003766  
     198A      1.014126   199A      1.020293   200A      1.030999  
     201A      1.045602   202A      1.054612   203A      1.059635  
     204A      1.061916   205A      1.065060   206A      1.082241  
     207A      1.085874   208A      1.097676   209A      1.107274  
     210A      1.125970   211A      1.133643   212A      1.139552  
     213A      1.140781   214A      1.156194   215A      1.162465  
     216A      1.166201   217A      1.169263   218A      1.174700  
     219A      1.216457   220A      1.219623   221A      1.231236  
     222A      1.241447   223A      1.286865   224A      1.297726  
     225A      1.304240   226A      1.310360   227A      1.313690  
     228A      1.322648   229A      1.326860   230A      1.348358  
     231A      1.353276   232A      1.358324   233A      1.362303  
     234A      1.380801   235A      1.395969   236A      1.405235  
     237A      1.440947   238A      1.446371   239A      1.473858  
     240A      1.487712   241A      1.495288   242A      1.496935  
     243A      1.518485   244A      1.529638   245A      1.544372  
     246A      1.549438   247A      1.567213   248A      1.576978  
     249A      1.599501   250A      1.634976   251A      1.640878  
     252A      1.649328   253A      1.664295   254A      1.687857  
     255A      1.713547   256A      1.755535   257A      1.788784  
     258A      1.820190   259A      1.828788   260A      1.850730  
     261A      1.864973   262A      1.908252   263A      1.933498  
     264A      1.961869   265A      1.979983   266A      1.987340  
     267A      1.999460   268A      2.005153   269A      2.024140  
     270A      2.052356   271A      2.076714   272A      2.096128  
     273A      2.101704   274A      2.112301   275A      2.145115  
     276A      2.148639   277A      2.152082   278A      2.154612  
     279A      2.184686   280A      2.193993   281A      2.201061  
     282A      2.206786   283A      2.214684   284A      2.216726  
     285A      2.220863   286A      2.226503   287A      2.231840  
     288A      2.247305   289A      2.264123   290A      2.275011  
     291A      2.309022   292A      2.312220   293A      2.321086  
     294A      2.328129   295A      2.334366   296A      2.355742  
     297A      2.357806   298A      2.372905   299A      2.392153  
     300A      2.404037   301A      2.410768   302A      2.433706  
     303A      2.438066   304A      2.458289   305A      2.460176  
     306A      2.482795   307A      2.492977   308A      2.516663  
     309A      2.520614   310A      2.546087   311A      2.550523  
     312A      2.575638   313A      2.584634   314A      2.589225  
     315A      2.600189   316A      2.629043   317A      2.639911  
     318A      2.647589   319A      2.677069   320A      2.693026  
     321A      2.709701   322A      2.722876   323A      2.730144  
     324A      2.735668   325A      2.737498   326A      2.780302  
     327A      2.788333   328A      2.820734   329A      2.826042  
     330A      2.851909   331A      2.858848   332A      2.862552  
     333A      2.871577   334A      2.876471   335A      2.891988  
     336A      2.900712   337A      2.936803   338A      2.990528  
     339A      2.997913   340A      3.013338   341A      3.043197  
     342A      3.056938   343A      3.094155   344A      3.122452  
     345A      3.130213   346A      3.155874   347A      3.169703  
     348A      3.209121   349A      3.228903   350A      3.275275  
     351A      3.330966   352A      3.339576   353A      3.351435  
     354A      3.361169   355A      3.394029   356A      3.411858  
     357A      3.425841   358A      3.470833   359A      3.474366  
     360A      3.488941   361A      3.532975   362A      3.539351  
     363A      3.595258   364A      3.600888   365A      3.633153  
     366A      3.727249   367A      3.757388   368A      3.761285  
     369A      3.803287   370A      3.820174   371A      3.821265  
     372A      3.835269   373A      3.869187   374A      3.879373  
     375A      3.880513   376A      4.009925   377A      4.028299  
     378A      4.049957   379A      4.054016   380A      4.072859  
     381A      4.172847   382A      4.180820   383A      4.316442  
     384A      4.439313   385A      4.511905   386A      4.604624  
     387A      4.659447   388A      4.777845   389A      4.925523  
     390A      5.140127   391A      5.400737   392A      5.488601  
     393A      5.550079   394A      5.598892   395A      5.606422  
     396A      5.775713   397A      6.141351   398A     18.063127  
     399A     18.356727   400A     18.704058   401A     19.048569  
     402A     19.880140   403A     25.325285  

    Final Occupation by Irrep:
              A 
    DOCC [    29 ]

  @DF-RHF Final Energy:  -412.52952293726850

   => Energetics <=

    Nuclear Repulsion Energy =            357.2357563784163403
    One-Electron Energy =               -1270.4550588929701007
    Two-Electron Energy =                 500.6897795772852646
    Total Energy =                       -412.5295229372684958

Computation Completed


Properties will be evaluated at   0.000000,   0.000000,   0.000000 [a0]

Properties computed using the SCF density matrix

  Nuclear Dipole Moment: [e a0]
     X:    28.6027      Y:    16.0916      Z:   283.5017

  Electronic Dipole Moment: [e a0]
     X:   -26.6581      Y:   -15.7343      Z:  -283.2351

  Dipole Moment: [e a0]
     X:     1.9446      Y:     0.3573      Z:     0.2666     Total:     1.9951

  Dipole Moment: [D]
     X:     4.9428      Y:     0.9081      Z:     0.6777     Total:     5.0710


*** tstop() called on node100.bme.utexas.edu at Thu Apr 23 17:32:22 2020
Module time:
	user time   =      86.42 seconds =       1.44 minutes
	system time =       2.42 seconds =       0.04 minutes
	total time  =         35 seconds =       0.58 minutes
Total time:
	user time   =     319.03 seconds =       5.32 minutes
	system time =       8.00 seconds =       0.13 minutes
	total time  =         68 seconds =       1.13 minutes
  Constructing Basis Sets for SAPT...

   => Loading Basis Set <=

    Name: (AUG-CC-PVDZ AUX)
    Role: RIFIT
    Keyword: DF_BASIS_SAPT
    atoms 1, 12, 20                      entry N          line   158 file /home/liuchw/anaconda3/envs/psi4env/share/psi4/basis/aug-cc-pvdz-ri.gbs 
    atoms 2, 4, 6, 8, 10, 14, 16, 18, 22 entry C          line   112 file /home/liuchw/anaconda3/envs/psi4env/share/psi4/basis/aug-cc-pvdz-ri.gbs 
    atoms 3, 5, 7, 9, 11, 13, 17, 19, 21 entry H          line    30 file /home/liuchw/anaconda3/envs/psi4env/share/psi4/basis/aug-cc-pvdz-ri.gbs 
    atoms 15, 23                         entry O          line   204 file /home/liuchw/anaconda3/envs/psi4env/share/psi4/basis/aug-cc-pvdz-ri.gbs 


  //>>>>>>>>>>>>>>>>>>>>>>>>>>>>>>>>>>>//
  //               SAPT2+              //
  //<<<<<<<<<<<<<<<<<<<<<<<<<<<<<<<<<<<//


*** tstart() called on node100.bme.utexas.edu
*** at Thu Apr 23 17:32:22 2020

        SAPT2+  
    Ed Hohenstein
     6 June 2009

      Orbital Information
  --------------------------
    NSO        =       403
    NMO        =       403
    NRI        =      1215
    NOCC A     =        21
    NOCC B     =        29
    FOCC A     =         6
    FOCC B     =         8
    NVIR A     =       382
    NVIR B     =       374

    Estimated memory usage: 4363.7 MB

    Natural Orbital Cutoff:   1.000E-06
    Disp(T3) Truncation:            Yes
    CCD (vv|vv) Truncation:         Yes
    MBPT T2 Truncation:             Yes

    Monomer A: 229 virtual orbitals dropped
    Monomer B: 192 virtual orbitals dropped

    Elst10,r            =    -0.000753312782 [Eh]
    Exch10 (S^2)        =     0.000001234420 [Eh]
    Exch10              =     0.000001234419 [Eh]
    Ind20,r (A<-B)      =    -0.000018844577 [Eh]
    Ind20,r (B<-A)      =    -0.000011898844 [Eh]
    Ind20,r             =    -0.000030743421 [Eh]
    Exch-Ind20,r (A<-B) =     0.000000650392 [Eh]
    Exch-Ind20,r (B<-A) =     0.000000133191 [Eh]
    Exch-Ind20,r        =     0.000000783583 [Eh]
    Disp20              =    -0.000517833864 [Eh]
    Disp20 (NO)         =    -0.000512481129 [Eh]
    Exch-Disp20         =     0.000000399292 [Eh]
    Elst12,r            =     0.000125830409 [Eh]
    Exch11              =    -0.000000056023 [Eh]
    Exch12              =     0.000000116434 [Eh]
    Ind22               =     0.000008073244 [Eh]
    Disp21              =     0.000194256850 [Eh]
    Disp22 (SDQ)        =    -0.000027249970 [Eh]

    (i =   1 of  21)         26 seconds
    (i =   2 of  21)         52 seconds
    (i =   3 of  21)         78 seconds
    (i =   4 of  21)        104 seconds
    (i =   5 of  21)        130 seconds
    (i =   6 of  21)        156 seconds
    (i =   7 of  21)        182 seconds
    (i =   8 of  21)        208 seconds
    (i =   9 of  21)        234 seconds
    (i =  10 of  21)        260 seconds
    (i =  11 of  21)        286 seconds
    (i =  12 of  21)        312 seconds
    (i =  13 of  21)        337 seconds
    (i =  14 of  21)        363 seconds
    (i =  15 of  21)        389 seconds
    (i =  16 of  21)        415 seconds
    (i =  17 of  21)        441 seconds
    (i =  18 of  21)        467 seconds
    (i =  19 of  21)        493 seconds
    (i =  20 of  21)        519 seconds
    (i =  21 of  21)        545 seconds

    Disp220 (T)         =    -0.000056839054 [Eh]

    (i =   1 of  15)         57 seconds
    (i =   2 of  15)        115 seconds
    (i =   3 of  15)        172 seconds
    (i =   4 of  15)        229 seconds
    (i =   5 of  15)        286 seconds
    (i =   6 of  15)        344 seconds
    (i =   7 of  15)        401 seconds
    (i =   8 of  15)        458 seconds
    (i =   9 of  15)        515 seconds
    (i =  10 of  15)        572 seconds
    (i =  11 of  15)        630 seconds
    (i =  12 of  15)        687 seconds
    (i =  13 of  15)        744 seconds
    (i =  14 of  15)        801 seconds
    (i =  15 of  15)        858 seconds

    Disp202 (T)         =    -0.000062689798 [Eh]

    Disp22 (T)          =    -0.000119528851 [Eh]

    Est. Disp220 (T)    =    -0.000057432723 [Eh]
    Est. Disp202 (T)    =    -0.000063344577 [Eh]

    Est. Disp22 (T)     =    -0.000120777300 [Eh]

    SAPT Results 
  --------------------------------------------------------------------------------------------------------
    Electrostatics                 -0.62748237 [mEh]      -0.39375113 [kcal/mol]      -1.64745474 [kJ/mol]
      Elst10,r                     -0.75331278 [mEh]      -0.47271091 [kcal/mol]      -1.97782244 [kJ/mol]
      Elst12,r                      0.12583041 [mEh]       0.07895977 [kcal/mol]       0.33036769 [kJ/mol]

    Exchange                        0.00129483 [mEh]       0.00081252 [kcal/mol]       0.00339958 [kJ/mol]
      Exch10                        0.00123442 [mEh]       0.00077461 [kcal/mol]       0.00324097 [kJ/mol]
      Exch10(S^2)                   0.00123442 [mEh]       0.00077461 [kcal/mol]       0.00324097 [kJ/mol]
      Exch11(S^2)                  -0.00005602 [mEh]      -0.00003515 [kcal/mol]      -0.00014709 [kJ/mol]
      Exch12(S^2)                   0.00011643 [mEh]       0.00007306 [kcal/mol]       0.00030570 [kJ/mol]

    Induction                      -0.02301040 [mEh]      -0.01443924 [kcal/mol]      -0.06041380 [kJ/mol]
      Ind20,r                      -0.03074342 [mEh]      -0.01929179 [kcal/mol]      -0.08071684 [kJ/mol]
      Ind22                         0.00807324 [mEh]       0.00506604 [kcal/mol]       0.02119630 [kJ/mol]
      Exch-Ind20,r                  0.00078358 [mEh]       0.00049171 [kcal/mol]       0.00205730 [kJ/mol]
      Exch-Ind22                   -0.00020577 [mEh]      -0.00012912 [kcal/mol]      -0.00054025 [kJ/mol]
      delta HF,r (2)               -0.00091804 [mEh]      -0.00057608 [kcal/mol]      -0.00241031 [kJ/mol]

    Dispersion                     -0.47120499 [mEh]      -0.29568560 [kcal/mol]      -1.23714854 [kJ/mol]
      Disp20                       -0.51783386 [mEh]      -0.32494566 [kcal/mol]      -1.35957262 [kJ/mol]
      Disp21                        0.19425685 [mEh]       0.12189801 [kcal/mol]       0.51002129 [kJ/mol]
      Disp22 (SDQ)                 -0.02724997 [mEh]      -0.01709961 [kcal/mol]      -0.07154479 [kJ/mol]
      Disp22 (T)                   -0.11952885 [mEh]      -0.07500549 [kcal/mol]      -0.31382296 [kJ/mol]
      Est. Disp22 (T)              -0.12077730 [mEh]      -0.07578890 [kcal/mol]      -0.31710076 [kJ/mol]
      Exch-Disp20                   0.00039929 [mEh]       0.00025056 [kcal/mol]       0.00104834 [kJ/mol]

  Total HF                         -0.78295624 [mEh]      -0.49131246 [kcal/mol]      -2.05565132 [kJ/mol]
  Total SAPT0                      -1.30039081 [mEh]      -0.81600755 [kcal/mol]      -3.41417561 [kJ/mol]
  Total SAPT2                      -1.16663252 [mEh]      -0.73207296 [kcal/mol]      -3.06299325 [kJ/mol]
  Total SAPT2+                     -1.12040294 [mEh]      -0.70306346 [kcal/mol]      -2.94161751 [kJ/mol]

  Special recipe for scaled SAPT0 (see Manual):
    Electrostatics sSAPT0          -0.75331278 [mEh]      -0.47271091 [kcal/mol]      -1.97782244 [kJ/mol]
    Exchange sSAPT0                 0.00123442 [mEh]       0.00077461 [kcal/mol]       0.00324097 [kJ/mol]
    Induction sSAPT0               -0.03087788 [mEh]      -0.01937616 [kcal/mol]      -0.08106985 [kJ/mol]
    Dispersion sSAPT0              -0.51743457 [mEh]      -0.32469510 [kcal/mol]      -1.35852428 [kJ/mol]
  Total sSAPT0                     -1.30039081 [mEh]      -0.81600755 [kcal/mol]      -3.41417561 [kJ/mol]
  --------------------------------------------------------------------------------------------------------

*** tstop() called on node100.bme.utexas.edu at Thu Apr 23 18:06:24 2020
Module time:
	user time   =   13315.20 seconds =     221.92 minutes
	system time =     290.74 seconds =       4.85 minutes
	total time  =       2042 seconds =      34.03 minutes
Total time:
	user time   =   13635.58 seconds =     227.26 minutes
	system time =     298.83 seconds =       4.98 minutes
	total time  =       2110 seconds =      35.17 minutes

    Psi4 stopped on: Thursday, 23 April 2020 06:06PM
    Psi4 wall time for execution: 0:35:09.94

*** Psi4 exiting successfully. Buy a developer a beer!
