
    -----------------------------------------------------------------------
          Psi4: An Open-Source Ab Initio Electronic Structure Package
                               Psi4 1.4a2.dev224 

                         Git: Rev {master} e453b16 


    R. M. Parrish, L. A. Burns, D. G. A. Smith, A. C. Simmonett,
    A. E. DePrince III, E. G. Hohenstein, U. Bozkaya, A. Yu. Sokolov,
    R. Di Remigio, R. M. Richard, J. F. Gonthier, A. M. James,
    H. R. McAlexander, A. Kumar, M. Saitow, X. Wang, B. P. Pritchard,
    P. Verma, H. F. Schaefer III, K. Patkowski, R. A. King, E. F. Valeev,
    F. A. Evangelista, J. M. Turney, T. D. Crawford, and C. D. Sherrill,
    J. Chem. Theory Comput. 13(7) pp 3185--3197 (2017).
    (doi: 10.1021/acs.jctc.7b00174)


                         Additional Contributions by
    P. Kraus, H. Kruse, M. H. Lechner, M. C. Schieber, R. A. Shaw,
    A. Alenaizan, R. Galvelis, Z. L. Glick, S. Lehtola, and J. P. Misiewicz

    -----------------------------------------------------------------------


    Psi4 started on: Thursday, 23 April 2020 10:51AM

    Process ID: 52600
    Host:       node87.bme.utexas.edu
    PSIDATADIR: /home/liuchw/anaconda3/envs/psi4env/share/psi4
    Memory:     500.0 MiB
    Threads:    8
    
  ==> Input File <==

--------------------------------------------------------------------------
#Generated by lconvert.py for sapt job

memory 20 GB

molecule  {
0 1
  N      -0.050870   -0.980080    0.033960
  H      -0.053220   -1.990690    0.049820
  C      -1.308810   -0.361880    0.004030
  O      -2.327220   -1.032550   -0.005830
  C      -1.236820    1.088050   -0.012220
  H      -2.152740    1.651460   -0.054770
  C      -0.035190    1.697840    0.033700
  H       0.070370    2.772480    0.031880
  N       1.134530    0.990280    0.091840
  H       2.023720    1.456770    0.155690
  C       1.193190   -0.391830    0.115780
  O       2.236400   -1.011190    0.194190
--
0 1
  C       0.750620    0.056380    4.316620
  H       1.267740   -0.814610    3.939400
  H       1.356230    0.843370    4.743940
  C      -0.578160    0.156970    4.267380
  H      -1.190160   -0.630510    3.850480
  H      -1.089980    1.028040    4.651380
units angstrom
no_reorient
symmetry c1
}

set {
scf_type DF
basis aug-cc-pvdz
freeze_core True
guess SAD
}
energy('sapt2+')
--------------------------------------------------------------------------

  Memory set to  18.626 GiB by Python driver.

Scratch directory: /scratch/liuchw/

  //>>>>>>>>>>>>>>>>>>>>>>>>>>>>>>>>>>>//
  //              Dimer HF             //
  //<<<<<<<<<<<<<<<<<<<<<<<<<<<<<<<<<<<//


*** tstart() called on node87.bme.utexas.edu
*** at Thu Apr 23 10:51:41 2020

   => Loading Basis Set <=

    Name: AUG-CC-PVDZ
    Role: ORBITAL
    Keyword: BASIS
    atoms 1, 9                      entry N          line   218 file /home/liuchw/anaconda3/envs/psi4env/share/psi4/basis/aug-cc-pvdz.gbs 
    atoms 2, 6, 8, 10, 14-15, 17-18 entry H          line    40 file /home/liuchw/anaconda3/envs/psi4env/share/psi4/basis/aug-cc-pvdz.gbs 
    atoms 3, 5, 7, 11, 13, 16       entry C          line   182 file /home/liuchw/anaconda3/envs/psi4env/share/psi4/basis/aug-cc-pvdz.gbs 
    atoms 4, 12                     entry O          line   254 file /home/liuchw/anaconda3/envs/psi4env/share/psi4/basis/aug-cc-pvdz.gbs 


         ---------------------------------------------------------
                                   SCF
               by Justin Turney, Rob Parrish, Andy Simmonett
                          and Daniel G. A. Smith
                              RHF Reference
                        8 Threads,  19073 MiB Core
         ---------------------------------------------------------

  ==> Geometry <==

    Molecular point group: c1
    Full point group: C1

    Geometry (in Angstrom), charge = 0, multiplicity = 1:

       Center              X                  Y                   Z               Mass       
    ------------   -----------------  -----------------  -----------------  -----------------
         N           -0.046397929194    -0.971153947721    -0.872672030969    14.003074004430
         H           -0.048747929194    -1.981763947721    -0.856812030969     1.007825032230
         C           -1.304337929194    -0.352953947721    -0.902602030969    12.000000000000
         O           -2.322747929194    -1.023623947721    -0.912462030969    15.994914619570
         C           -1.232347929194     1.096976052279    -0.918852030969    12.000000000000
         H           -2.148267929194     1.660386052279    -0.961402030969     1.007825032230
         C           -0.030717929194     1.706766052279    -0.872932030969    12.000000000000
         H            0.074842070806     2.781406052279    -0.874752030969     1.007825032230
         N            1.139002070806     0.999206052279    -0.814792030969    14.003074004430
         H            2.028192070806     1.465696052279    -0.750942030969     1.007825032230
         C            1.197662070806    -0.382903947721    -0.790852030969    12.000000000000
         O            2.240872070806    -1.002263947721    -0.712442030969    15.994914619570
         C            0.755092070806     0.065306052279     3.409987969031    12.000000000000
         H            1.272212070806    -0.805683947721     3.032767969031     1.007825032230
         H            1.360702070806     0.852296052279     3.837307969031     1.007825032230
         C           -0.573687929194     0.165896052279     3.360747969031    12.000000000000
         H           -1.185687929194    -0.621583947721     2.943847969031     1.007825032230
         H           -1.085507929194     1.036966052279     3.744747969031     1.007825032230

  Running in c1 symmetry.

  Rotational constants: A =      0.04270  B =      0.03126  C =      0.02516 [cm^-1]
  Rotational constants: A =   1280.19243  B =    937.29019  C =    754.27368 [MHz]
  Nuclear repulsion =  495.590239431398118

  Charge       = 0
  Multiplicity = 1
  Electrons    = 74
  Nalpha       = 37
  Nbeta        = 37

  ==> Algorithm <==

  SCF Algorithm Type is DF.
  DIIS enabled.
  MOM disabled.
  Fractional occupation disabled.
  Guess Type is SAD.
  Energy threshold   = 1.00e-08
  Density threshold  = 1.00e-08
  Integral threshold = 0.00e+00

  ==> Primary Basis <==

  Basis Set: AUG-CC-PVDZ
    Blend: AUG-CC-PVDZ
    Number of shells: 130
    Number of basis function: 302
    Number of Cartesian functions: 322
    Spherical Harmonics?: true
    Max angular momentum: 2

   => Loading Basis Set <=

    Name: (AUG-CC-PVDZ AUX)
    Role: JKFIT
    Keyword: DF_BASIS_SCF
    atoms 1, 9                      entry N          line   212 file /home/liuchw/anaconda3/envs/psi4env/share/psi4/basis/aug-cc-pvdz-jkfit.gbs 
    atoms 2, 6, 8, 10, 14-15, 17-18 entry H          line    70 file /home/liuchw/anaconda3/envs/psi4env/share/psi4/basis/aug-cc-pvdz-jkfit.gbs 
    atoms 3, 5, 7, 11, 13, 16       entry C          line   154 file /home/liuchw/anaconda3/envs/psi4env/share/psi4/basis/aug-cc-pvdz-jkfit.gbs 
    atoms 4, 12                     entry O          line   270 file /home/liuchw/anaconda3/envs/psi4env/share/psi4/basis/aug-cc-pvdz-jkfit.gbs 

  ==> Pre-Iterations <==

   -------------------------------------------------------
    Irrep   Nso     Nmo     Nalpha   Nbeta   Ndocc  Nsocc
   -------------------------------------------------------
     A        302     302       0       0       0       0
   -------------------------------------------------------
    Total     302     302      37      37      37       0
   -------------------------------------------------------

  ==> Integral Setup <==

  ==> DiskDFJK: Density-Fitted J/K Matrices <==

    J tasked:                  Yes
    K tasked:                  Yes
    wK tasked:                  No
    OpenMP threads:              8
    Integrals threads:           8
    Memory [MiB]:            14305
    Algorithm:                Core
    Integral Cache:           SAVE
    Schwarz Cutoff:          1E-12
    Fitting Condition:       1E-10

   => Auxiliary Basis Set <=

  Basis Set: (AUG-CC-PVDZ AUX)
    Blend: AUG-CC-PVDZ-JKFIT
    Number of shells: 376
    Number of basis function: 1116
    Number of Cartesian functions: 1290
    Spherical Harmonics?: true
    Max angular momentum: 3

  Minimum eigenvalue in the overlap matrix is 1.3385023168E-05.
  Using Symmetric Orthogonalization.

  SCF Guess: Superposition of Atomic Densities via on-the-fly atomic UHF.

  ==> Iterations <==

                           Total Energy        Delta E     RMS |[F,P]|

   @DF-RHF iter SAD:  -489.18533078713557   -4.89185e+02   0.00000e+00 
   @DF-RHF iter   1:  -490.25532836097835   -1.07000e+00   2.63551e-03 DIIS
   @DF-RHF iter   2:  -490.48427390351895   -2.28946e-01   1.58356e-03 DIIS
   @DF-RHF iter   3:  -490.56793928607851   -8.36654e-02   3.30395e-04 DIIS
   @DF-RHF iter   4:  -490.57317462766247   -5.23534e-03   1.29489e-04 DIIS
   @DF-RHF iter   5:  -490.57420391979917   -1.02929e-03   2.36823e-05 DIIS
   @DF-RHF iter   6:  -490.57429821832443   -9.42985e-05   1.23491e-05 DIIS
   @DF-RHF iter   7:  -490.57431664319535   -1.84249e-05   4.66434e-06 DIIS
   @DF-RHF iter   8:  -490.57431980383257   -3.16064e-06   1.60742e-06 DIIS
   @DF-RHF iter   9:  -490.57432002268075   -2.18848e-07   6.41404e-07 DIIS
   @DF-RHF iter  10:  -490.57432007479747   -5.21167e-08   2.13627e-07 DIIS
   @DF-RHF iter  11:  -490.57432008086454   -6.06707e-09   7.56897e-08 DIIS
   @DF-RHF iter  12:  -490.57432008148533   -6.20787e-10   2.25371e-08 DIIS
   @DF-RHF iter  13:  -490.57432008154910   -6.37783e-11   8.03582e-09 DIIS
  Energy and wave function converged.


  ==> Post-Iterations <==

    Orbital Energies [Eh]
    ---------------------

    Doubly Occupied:                                                      

       1A    -20.557070     2A    -20.551508     3A    -15.649685  
       4A    -15.633250     5A    -11.427083     6A    -11.388133  
       7A    -11.345554     8A    -11.259601     9A    -11.241964  
      10A    -11.240278    11A     -1.440123    12A     -1.402351  
      13A     -1.316040    14A     -1.247898    15A     -1.089501  
      16A     -1.039605    17A     -0.934524    18A     -0.903046  
      19A     -0.807471    20A     -0.797246    21A     -0.765576  
      22A     -0.714116    23A     -0.678345    24A     -0.667582  
      25A     -0.653320    26A     -0.647151    27A     -0.614723  
      28A     -0.600841    29A     -0.590324    30A     -0.569717  
      31A     -0.523660    32A     -0.510326    33A     -0.482689  
      34A     -0.447883    35A     -0.435165    36A     -0.380289  
      37A     -0.365894  

    Virtual:                                                              

      38A      0.019681    39A      0.039183    40A      0.043256  
      41A      0.048421    42A      0.058278    43A      0.059547  
      44A      0.068954    45A      0.076254    46A      0.078577  
      47A      0.091262    48A      0.100555    49A      0.109991  
      50A      0.114352    51A      0.121559    52A      0.126557  
      53A      0.134292    54A      0.137325    55A      0.138383  
      56A      0.147204    57A      0.148777    58A      0.151529  
      59A      0.158383    60A      0.161693    61A      0.168648  
      62A      0.173272    63A      0.179799    64A      0.181826  
      65A      0.185440    66A      0.195899    67A      0.201007  
      68A      0.207553    69A      0.209455    70A      0.215835  
      71A      0.218318    72A      0.229009    73A      0.253888  
      74A      0.258588    75A      0.259469    76A      0.271075  
      77A      0.278870    78A      0.285659    79A      0.290286  
      80A      0.304917    81A      0.318230    82A      0.322343  
      83A      0.327731    84A      0.329730    85A      0.336039  
      86A      0.349077    87A      0.357578    88A      0.361615  
      89A      0.368550    90A      0.372663    91A      0.380923  
      92A      0.390616    93A      0.394746    94A      0.403147  
      95A      0.406247    96A      0.415223    97A      0.421162  
      98A      0.426165    99A      0.431751   100A      0.443127  
     101A      0.446222   102A      0.450059   103A      0.462581  
     104A      0.466186   105A      0.478846   106A      0.484027  
     107A      0.487155   108A      0.498303   109A      0.500696  
     110A      0.507958   111A      0.520008   112A      0.530969  
     113A      0.539150   114A      0.544483   115A      0.552385  
     116A      0.559485   117A      0.566727   118A      0.570237  
     119A      0.575827   120A      0.582665   121A      0.595548  
     122A      0.605764   123A      0.616815   124A      0.624001  
     125A      0.627091   126A      0.630873   127A      0.640135  
     128A      0.646820   129A      0.653030   130A      0.655273  
     131A      0.660032   132A      0.667977   133A      0.671677  
     134A      0.694255   135A      0.707315   136A      0.710546  
     137A      0.714540   138A      0.717658   139A      0.729942  
     140A      0.746619   141A      0.749432   142A      0.755349  
     143A      0.771581   144A      0.781946   145A      0.788390  
     146A      0.799575   147A      0.811908   148A      0.820169  
     149A      0.828380   150A      0.835321   151A      0.842776  
     152A      0.851133   153A      0.852718   154A      0.863713  
     155A      0.884229   156A      0.893128   157A      0.900694  
     158A      0.903478   159A      0.911931   160A      0.933416  
     161A      0.941533   162A      0.953717   163A      0.966135  
     164A      0.981969   165A      0.987566   166A      1.001070  
     167A      1.012896   168A      1.034547   169A      1.041530  
     170A      1.063106   171A      1.073496   172A      1.086562  
     173A      1.101181   174A      1.108849   175A      1.137145  
     176A      1.143504   177A      1.157336   178A      1.173751  
     179A      1.182536   180A      1.203523   181A      1.229705  
     182A      1.241447   183A      1.245172   184A      1.264475  
     185A      1.292185   186A      1.304022   187A      1.313702  
     188A      1.338765   189A      1.357008   190A      1.363013  
     191A      1.376416   192A      1.401192   193A      1.445495  
     194A      1.466653   195A      1.477413   196A      1.486839  
     197A      1.494611   198A      1.524583   199A      1.538234  
     200A      1.547615   201A      1.554756   202A      1.558491  
     203A      1.571797   204A      1.602179   205A      1.614228  
     206A      1.644663   207A      1.654966   208A      1.680634  
     209A      1.691939   210A      1.706312   211A      1.725175  
     212A      1.764898   213A      1.770544   214A      1.779795  
     215A      1.805557   216A      1.815521   217A      1.844571  
     218A      1.856231   219A      1.861050   220A      1.871946  
     221A      1.879092   222A      1.906511   223A      1.934911  
     224A      1.941107   225A      1.964938   226A      1.972252  
     227A      1.986825   228A      2.000691   229A      2.009684  
     230A      2.029350   231A      2.036417   232A      2.046708  
     233A      2.061441   234A      2.081507   235A      2.102057  
     236A      2.127055   237A      2.141273   238A      2.150731  
     239A      2.158863   240A      2.174898   241A      2.180518  
     242A      2.201985   243A      2.210278   244A      2.232429  
     245A      2.235891   246A      2.268752   247A      2.278497  
     248A      2.330851   249A      2.338761   250A      2.368847  
     251A      2.379721   252A      2.407782   253A      2.445322  
     254A      2.457530   255A      2.462731   256A      2.484178  
     257A      2.497951   258A      2.507902   259A      2.534193  
     260A      2.557406   261A      2.587107   262A      2.637974  
     263A      2.657122   264A      2.688475   265A      2.698485  
     266A      2.736512   267A      2.760496   268A      2.793914  
     269A      2.798573   270A      2.819908   271A      2.833334  
     272A      2.849616   273A      2.865427   274A      2.866095  
     275A      2.886229   276A      2.903544   277A      2.920897  
     278A      3.006279   279A      3.020508   280A      3.113916  
     281A      3.172642   282A      3.183292   283A      3.234830  
     284A      3.338075   285A      3.368273   286A      3.430973  
     287A      3.497765   288A      3.508568   289A      3.544528  
     290A      3.607605   291A      3.733538   292A      3.766985  
     293A      3.771399   294A      3.810474   295A      3.825670  
     296A      3.838836   297A      3.844464   298A      4.032296  
     299A      4.054585   300A      4.075844   301A      4.180135  
     302A      4.323881  

    Final Occupation by Irrep:
              A 
    DOCC [    37 ]

  @DF-RHF Final Energy:  -490.57432008154910

   => Energetics <=

    Nuclear Repulsion Energy =            495.5902394313981176
    One-Electron Energy =               -1650.4900544637548592
    Two-Electron Energy =                 664.3254949508077516
    Total Energy =                       -490.5743200815491036

Computation Completed


Properties will be evaluated at   0.000000,   0.000000,   0.000000 [a0]

Properties computed using the SCF density matrix

  Nuclear Dipole Moment: [e a0]
     X:     0.2474      Y:     4.1035      Z:     9.4794

  Electronic Dipole Moment: [e a0]
     X:     0.2703      Y:    -2.1989      Z:    -9.4467

  Dipole Moment: [e a0]
     X:     0.5177      Y:     1.9046      Z:     0.0327     Total:     1.9740

  Dipole Moment: [D]
     X:     1.3159      Y:     4.8410      Z:     0.0831     Total:     5.0173


*** tstop() called on node87.bme.utexas.edu at Thu Apr 23 10:51:52 2020
Module time:
	user time   =      75.34 seconds =       1.26 minutes
	system time =       1.92 seconds =       0.03 minutes
	total time  =         11 seconds =       0.18 minutes
Total time:
	user time   =      75.34 seconds =       1.26 minutes
	system time =       1.92 seconds =       0.03 minutes
	total time  =         11 seconds =       0.18 minutes

  //>>>>>>>>>>>>>>>>>>>>>>>>>>>>>>>>>>>//
  //            Monomer A HF           //
  //<<<<<<<<<<<<<<<<<<<<<<<<<<<<<<<<<<<//


*** tstart() called on node87.bme.utexas.edu
*** at Thu Apr 23 10:51:52 2020

   => Loading Basis Set <=

    Name: AUG-CC-PVDZ
    Role: ORBITAL
    Keyword: BASIS
    atoms 1, 9                      entry N          line   218 file /home/liuchw/anaconda3/envs/psi4env/share/psi4/basis/aug-cc-pvdz.gbs 
    atoms 2, 6, 8, 10, 14-15, 17-18 entry H          line    40 file /home/liuchw/anaconda3/envs/psi4env/share/psi4/basis/aug-cc-pvdz.gbs 
    atoms 3, 5, 7, 11, 13, 16       entry C          line   182 file /home/liuchw/anaconda3/envs/psi4env/share/psi4/basis/aug-cc-pvdz.gbs 
    atoms 4, 12                     entry O          line   254 file /home/liuchw/anaconda3/envs/psi4env/share/psi4/basis/aug-cc-pvdz.gbs 


         ---------------------------------------------------------
                                   SCF
               by Justin Turney, Rob Parrish, Andy Simmonett
                          and Daniel G. A. Smith
                              RHF Reference
                        8 Threads,  19073 MiB Core
         ---------------------------------------------------------

  ==> Geometry <==

    Molecular point group: c1
    Full point group: C1

    Geometry (in Angstrom), charge = 0, multiplicity = 1:

       Center              X                  Y                   Z               Mass       
    ------------   -----------------  -----------------  -----------------  -----------------
         N           -0.046397929194    -0.971153947721    -0.872672030969    14.003074004430
         H           -0.048747929194    -1.981763947721    -0.856812030969     1.007825032230
         C           -1.304337929194    -0.352953947721    -0.902602030969    12.000000000000
         O           -2.322747929194    -1.023623947721    -0.912462030969    15.994914619570
         C           -1.232347929194     1.096976052279    -0.918852030969    12.000000000000
         H           -2.148267929194     1.660386052279    -0.961402030969     1.007825032230
         C           -0.030717929194     1.706766052279    -0.872932030969    12.000000000000
         H            0.074842070806     2.781406052279    -0.874752030969     1.007825032230
         N            1.139002070806     0.999206052279    -0.814792030969    14.003074004430
         H            2.028192070806     1.465696052279    -0.750942030969     1.007825032230
         C            1.197662070806    -0.382903947721    -0.790852030969    12.000000000000
         O            2.240872070806    -1.002263947721    -0.712442030969    15.994914619570
      Gh(C)           0.755092070806     0.065306052279     3.409987969031    12.000000000000
      Gh(H)           1.272212070806    -0.805683947721     3.032767969031     1.007825032230
      Gh(H)           1.360702070806     0.852296052279     3.837307969031     1.007825032230
      Gh(C)          -0.573687929194     0.165896052279     3.360747969031    12.000000000000
      Gh(H)          -1.185687929194    -0.621583947721     2.943847969031     1.007825032230
      Gh(H)          -1.085507929194     1.036966052279     3.744747969031     1.007825032230

  Running in c1 symmetry.

  Rotational constants: A =      0.04270  B =      0.03126  C =      0.02516 [cm^-1]
  Rotational constants: A =   1280.19243  B =    937.29019  C =    754.27368 [MHz]
  Nuclear repulsion =  357.187195812641789

  Charge       = 0
  Multiplicity = 1
  Electrons    = 58
  Nalpha       = 29
  Nbeta        = 29

  ==> Algorithm <==

  SCF Algorithm Type is DF.
  DIIS enabled.
  MOM disabled.
  Fractional occupation disabled.
  Guess Type is SAD.
  Energy threshold   = 1.00e-08
  Density threshold  = 1.00e-08
  Integral threshold = 0.00e+00

  ==> Primary Basis <==

  Basis Set: AUG-CC-PVDZ
    Blend: AUG-CC-PVDZ
    Number of shells: 130
    Number of basis function: 302
    Number of Cartesian functions: 322
    Spherical Harmonics?: true
    Max angular momentum: 2

   => Loading Basis Set <=

    Name: (AUG-CC-PVDZ AUX)
    Role: JKFIT
    Keyword: DF_BASIS_SCF
    atoms 1, 9                      entry N          line   212 file /home/liuchw/anaconda3/envs/psi4env/share/psi4/basis/aug-cc-pvdz-jkfit.gbs 
    atoms 2, 6, 8, 10, 14-15, 17-18 entry H          line    70 file /home/liuchw/anaconda3/envs/psi4env/share/psi4/basis/aug-cc-pvdz-jkfit.gbs 
    atoms 3, 5, 7, 11, 13, 16       entry C          line   154 file /home/liuchw/anaconda3/envs/psi4env/share/psi4/basis/aug-cc-pvdz-jkfit.gbs 
    atoms 4, 12                     entry O          line   270 file /home/liuchw/anaconda3/envs/psi4env/share/psi4/basis/aug-cc-pvdz-jkfit.gbs 

  ==> Pre-Iterations <==

   -------------------------------------------------------
    Irrep   Nso     Nmo     Nalpha   Nbeta   Ndocc  Nsocc
   -------------------------------------------------------
     A        302     302       0       0       0       0
   -------------------------------------------------------
    Total     302     302      29      29      29       0
   -------------------------------------------------------

  ==> Integral Setup <==

  ==> DiskDFJK: Density-Fitted J/K Matrices <==

    J tasked:                  Yes
    K tasked:                  Yes
    wK tasked:                  No
    OpenMP threads:              8
    Integrals threads:           8
    Memory [MiB]:            14305
    Algorithm:                Core
    Integral Cache:           LOAD
    Schwarz Cutoff:          1E-12
    Fitting Condition:       1E-10

   => Auxiliary Basis Set <=

  Basis Set: (AUG-CC-PVDZ AUX)
    Blend: AUG-CC-PVDZ-JKFIT
    Number of shells: 376
    Number of basis function: 1116
    Number of Cartesian functions: 1290
    Spherical Harmonics?: true
    Max angular momentum: 3

  Minimum eigenvalue in the overlap matrix is 1.3385023168E-05.
  Using Symmetric Orthogonalization.

  SCF Guess: Superposition of Atomic Densities via on-the-fly atomic UHF.

  ==> Iterations <==

                           Total Energy        Delta E     RMS |[F,P]|

   @DF-RHF iter SAD:  -411.89917511422914   -4.11899e+02   0.00000e+00 
   @DF-RHF iter   1:  -412.28617114855990   -3.86996e-01   2.37824e-03 DIIS
   @DF-RHF iter   2:  -412.44924563687607   -1.63074e-01   1.53174e-03 DIIS
   @DF-RHF iter   3:  -412.52467941990290   -7.54338e-02   2.88574e-04 DIIS
   @DF-RHF iter   4:  -412.52887729136899   -4.19787e-03   1.14840e-04 DIIS
   @DF-RHF iter   5:  -412.52971090083111   -8.33609e-04   2.33845e-05 DIIS
   @DF-RHF iter   6:  -412.52980756929566   -9.66685e-05   1.18910e-05 DIIS
   @DF-RHF iter   7:  -412.52982492416925   -1.73549e-05   4.54959e-06 DIIS
   @DF-RHF iter   8:  -412.52982773112433   -2.80696e-06   1.56209e-06 DIIS
   @DF-RHF iter   9:  -412.52982793266108   -2.01537e-07   6.34721e-07 DIIS
   @DF-RHF iter  10:  -412.52982798347966   -5.08186e-08   2.04641e-07 DIIS
   @DF-RHF iter  11:  -412.52982798915696   -5.67729e-09   6.94835e-08 DIIS
   @DF-RHF iter  12:  -412.52982798963490   -4.77939e-10   2.10818e-08 DIIS
   @DF-RHF iter  13:  -412.52982798969123   -5.63318e-11   7.57112e-09 DIIS
  Energy and wave function converged.


  ==> Post-Iterations <==

    Orbital Energies [Eh]
    ---------------------

    Doubly Occupied:                                                      

       1A    -20.558836     2A    -20.553161     3A    -15.652415  
       4A    -15.635155     5A    -11.429022     6A    -11.389935  
       7A    -11.348208     8A    -11.262489     9A     -1.442054  
      10A     -1.403904    11A     -1.318527    12A     -1.250006  
      13A     -1.092208    14A     -0.936996    15A     -0.905178  
      16A     -0.809901    17A     -0.767867    18A     -0.716401  
      19A     -0.680095    20A     -0.669892    21A     -0.655220  
      22A     -0.616717    23A     -0.603027    24A     -0.571503  
      25A     -0.526229    26A     -0.484395    27A     -0.449485  
      28A     -0.436629    29A     -0.368804  

    Virtual:                                                              

      30A      0.016497    31A      0.032428    32A      0.038281  
      33A      0.047297    34A      0.056894    35A      0.058934  
      36A      0.065875    37A      0.074311    38A      0.077886  
      39A      0.089470    40A      0.093950    41A      0.101169  
      42A      0.113253    43A      0.121604    44A      0.126594  
      45A      0.129066    46A      0.130232    47A      0.136395  
      48A      0.140116    49A      0.141623    50A      0.148845  
      51A      0.154174    52A      0.161462    53A      0.164096  
      54A      0.169418    55A      0.173015    56A      0.178546  
      57A      0.181532    58A      0.184895    59A      0.197274  
      60A      0.198643    61A      0.208928    62A      0.213067  
      63A      0.220980    64A      0.241035    65A      0.252704  
      66A      0.258773    67A      0.268595    68A      0.279827  
      69A      0.285553    70A      0.292707    71A      0.306584  
      72A      0.320083    73A      0.322438    74A      0.326945  
      75A      0.332964    76A      0.338858    77A      0.342836  
      78A      0.348985    79A      0.360202    80A      0.361510  
      81A      0.367766    82A      0.376521    83A      0.385066  
      84A      0.388455    85A      0.395232    86A      0.402378  
      87A      0.409564    88A      0.412592    89A      0.422379  
      90A      0.427818    91A      0.436241    92A      0.439591  
      93A      0.445727    94A      0.450387    95A      0.458005  
      96A      0.458859    97A      0.462554    98A      0.480701  
      99A      0.491751   100A      0.499895   101A      0.506634  
     102A      0.515632   103A      0.519093   104A      0.530989  
     105A      0.542593   106A      0.551027   107A      0.556645  
     108A      0.561220   109A      0.564432   110A      0.570296  
     111A      0.583692   112A      0.586106   113A      0.598738  
     114A      0.604997   115A      0.610328   116A      0.631663  
     117A      0.634383   118A      0.645873   119A      0.649091  
     120A      0.652710   121A      0.657599   122A      0.669979  
     123A      0.673072   124A      0.688671   125A      0.699552  
     126A      0.705825   127A      0.716687   128A      0.726648  
     129A      0.730853   130A      0.741041   131A      0.751407  
     132A      0.766120   133A      0.773070   134A      0.777795  
     135A      0.797843   136A      0.806498   137A      0.811892  
     138A      0.820390   139A      0.825183   140A      0.832152  
     141A      0.837375   142A      0.839345   143A      0.850368  
     144A      0.855582   145A      0.859652   146A      0.864053  
     147A      0.879117   148A      0.891367   149A      0.894426  
     150A      0.917626   151A      0.929153   152A      0.941842  
     153A      0.943668   154A      0.946149   155A      0.962978  
     156A      0.970159   157A      0.982925   158A      0.986867  
     159A      0.994544   160A      0.998005   161A      1.010613  
     162A      1.032360   163A      1.044895   164A      1.061329  
     165A      1.073585   166A      1.085576   167A      1.090152  
     168A      1.111589   169A      1.138173   170A      1.150340  
     171A      1.159660   172A      1.174570   173A      1.182519  
     174A      1.185679   175A      1.228633   176A      1.241041  
     177A      1.244913   178A      1.303398   179A      1.312096  
     180A      1.335971   181A      1.355797   182A      1.361999  
     183A      1.373815   184A      1.400096   185A      1.448992  
     186A      1.486426   187A      1.492367   188A      1.527244  
     189A      1.537690   190A      1.548193   191A      1.558187  
     192A      1.570037   193A      1.604455   194A      1.646763  
     195A      1.652377   196A      1.666631   197A      1.697965  
     198A      1.723909   199A      1.758116   200A      1.791175  
     201A      1.828290   202A      1.843538   203A      1.856095  
     204A      1.871811   205A      1.920484   206A      1.934901  
     207A      1.960776   208A      1.977962   209A      1.983762  
     210A      1.990980   211A      2.003779   212A      2.019170  
     213A      2.031154   214A      2.048057   215A      2.063328  
     216A      2.089125   217A      2.095062   218A      2.101691  
     219A      2.140795   220A      2.151922   221A      2.159528  
     222A      2.191254   223A      2.204385   224A      2.217717  
     225A      2.226887   226A      2.239427   227A      2.252965  
     228A      2.270544   229A      2.276507   230A      2.292014  
     231A      2.320682   232A      2.324496   233A      2.338957  
     234A      2.342187   235A      2.357740   236A      2.369488  
     237A      2.381127   238A      2.418857   239A      2.442110  
     240A      2.452257   241A      2.463202   242A      2.465161  
     243A      2.484271   244A      2.517559   245A      2.530123  
     246A      2.543722   247A      2.558670   248A      2.585778  
     249A      2.606519   250A      2.613885   251A      2.638636  
     252A      2.696707   253A      2.731945   254A      2.750434  
     255A      2.775157   256A      2.776663   257A      2.788423  
     258A      2.796114   259A      2.833938   260A      2.848850  
     261A      2.863505   262A      2.866468   263A      2.883531  
     264A      2.896151   265A      2.902417   266A      2.961768  
     267A      2.999020   268A      3.005701   269A      3.023533  
     270A      3.111081   271A      3.167060   272A      3.181970  
     273A      3.230416   274A      3.232962   275A      3.289245  
     276A      3.336265   277A      3.366036   278A      3.445941  
     279A      3.483645   280A      3.502647   281A      3.542612  
     282A      3.606601   283A      3.732924   284A      3.765349  
     285A      3.769890   286A      3.808819   287A      3.824217  
     288A      3.836354   289A      3.842409   290A      3.967030  
     291A      4.028487   292A      4.030860   293A      4.053991  
     294A      4.074378   295A      4.178966   296A      4.242342  
     297A      4.323597   298A      5.217523   299A      5.274641  
     300A      5.642039   301A     18.138758   302A     18.931668  

    Final Occupation by Irrep:
              A 
    DOCC [    29 ]

  @DF-RHF Final Energy:  -412.52982798969123

   => Energetics <=

    Nuclear Repulsion Energy =            357.1871958126417894
    One-Electron Energy =               -1270.3655273664476226
    Two-Electron Energy =                 500.6485035641146055
    Total Energy =                       -412.5298279896912277

Computation Completed


Properties will be evaluated at   0.000000,   0.000000,   0.000000 [a0]

Properties computed using the SCF density matrix

  Nuclear Dipole Moment: [e a0]
     X:    -2.4929      Y:     0.6090      Z:   -92.9118

  Electronic Dipole Moment: [e a0]
     X:     3.0148      Y:     1.3088      Z:    92.8930

  Dipole Moment: [e a0]
     X:     0.5218      Y:     1.9178      Z:    -0.0188     Total:     1.9876

  Dipole Moment: [D]
     X:     1.3264      Y:     4.8746      Z:    -0.0477     Total:     5.0521


*** tstop() called on node87.bme.utexas.edu at Thu Apr 23 10:52:00 2020
Module time:
	user time   =      46.20 seconds =       0.77 minutes
	system time =       1.38 seconds =       0.02 minutes
	total time  =          8 seconds =       0.13 minutes
Total time:
	user time   =     121.59 seconds =       2.03 minutes
	system time =       3.30 seconds =       0.06 minutes
	total time  =         19 seconds =       0.32 minutes

  //>>>>>>>>>>>>>>>>>>>>>>>>>>>>>>>>>>>//
  //            Monomer B HF           //
  //<<<<<<<<<<<<<<<<<<<<<<<<<<<<<<<<<<<//


*** tstart() called on node87.bme.utexas.edu
*** at Thu Apr 23 10:52:00 2020

   => Loading Basis Set <=

    Name: AUG-CC-PVDZ
    Role: ORBITAL
    Keyword: BASIS
    atoms 1, 9                      entry N          line   218 file /home/liuchw/anaconda3/envs/psi4env/share/psi4/basis/aug-cc-pvdz.gbs 
    atoms 2, 6, 8, 10, 14-15, 17-18 entry H          line    40 file /home/liuchw/anaconda3/envs/psi4env/share/psi4/basis/aug-cc-pvdz.gbs 
    atoms 3, 5, 7, 11, 13, 16       entry C          line   182 file /home/liuchw/anaconda3/envs/psi4env/share/psi4/basis/aug-cc-pvdz.gbs 
    atoms 4, 12                     entry O          line   254 file /home/liuchw/anaconda3/envs/psi4env/share/psi4/basis/aug-cc-pvdz.gbs 


         ---------------------------------------------------------
                                   SCF
               by Justin Turney, Rob Parrish, Andy Simmonett
                          and Daniel G. A. Smith
                              RHF Reference
                        8 Threads,  19073 MiB Core
         ---------------------------------------------------------

  ==> Geometry <==

    Molecular point group: c1
    Full point group: C1

    Geometry (in Angstrom), charge = 0, multiplicity = 1:

       Center              X                  Y                   Z               Mass       
    ------------   -----------------  -----------------  -----------------  -----------------
      Gh(N)          -0.046397929194    -0.971153947721    -0.872672030969    14.003074004430
      Gh(H)          -0.048747929194    -1.981763947721    -0.856812030969     1.007825032230
      Gh(C)          -1.304337929194    -0.352953947721    -0.902602030969    12.000000000000
      Gh(O)          -2.322747929194    -1.023623947721    -0.912462030969    15.994914619570
      Gh(C)          -1.232347929194     1.096976052279    -0.918852030969    12.000000000000
      Gh(H)          -2.148267929194     1.660386052279    -0.961402030969     1.007825032230
      Gh(C)          -0.030717929194     1.706766052279    -0.872932030969    12.000000000000
      Gh(H)           0.074842070806     2.781406052279    -0.874752030969     1.007825032230
      Gh(N)           1.139002070806     0.999206052279    -0.814792030969    14.003074004430
      Gh(H)           2.028192070806     1.465696052279    -0.750942030969     1.007825032230
      Gh(C)           1.197662070806    -0.382903947721    -0.790852030969    12.000000000000
      Gh(O)           2.240872070806    -1.002263947721    -0.712442030969    15.994914619570
         C            0.755092070806     0.065306052279     3.409987969031    12.000000000000
         H            1.272212070806    -0.805683947721     3.032767969031     1.007825032230
         H            1.360702070806     0.852296052279     3.837307969031     1.007825032230
         C           -0.573687929194     0.165896052279     3.360747969031    12.000000000000
         H           -1.185687929194    -0.621583947721     2.943847969031     1.007825032230
         H           -1.085507929194     1.036966052279     3.744747969031     1.007825032230

  Running in c1 symmetry.

  Rotational constants: A =      0.04270  B =      0.03126  C =      0.02516 [cm^-1]
  Rotational constants: A =   1280.19243  B =    937.29019  C =    754.27368 [MHz]
  Nuclear repulsion =   33.404065678055623

  Charge       = 0
  Multiplicity = 1
  Electrons    = 16
  Nalpha       = 8
  Nbeta        = 8

  ==> Algorithm <==

  SCF Algorithm Type is DF.
  DIIS enabled.
  MOM disabled.
  Fractional occupation disabled.
  Guess Type is SAD.
  Energy threshold   = 1.00e-08
  Density threshold  = 1.00e-08
  Integral threshold = 0.00e+00

  ==> Primary Basis <==

  Basis Set: AUG-CC-PVDZ
    Blend: AUG-CC-PVDZ
    Number of shells: 130
    Number of basis function: 302
    Number of Cartesian functions: 322
    Spherical Harmonics?: true
    Max angular momentum: 2

   => Loading Basis Set <=

    Name: (AUG-CC-PVDZ AUX)
    Role: JKFIT
    Keyword: DF_BASIS_SCF
    atoms 1, 9                      entry N          line   212 file /home/liuchw/anaconda3/envs/psi4env/share/psi4/basis/aug-cc-pvdz-jkfit.gbs 
    atoms 2, 6, 8, 10, 14-15, 17-18 entry H          line    70 file /home/liuchw/anaconda3/envs/psi4env/share/psi4/basis/aug-cc-pvdz-jkfit.gbs 
    atoms 3, 5, 7, 11, 13, 16       entry C          line   154 file /home/liuchw/anaconda3/envs/psi4env/share/psi4/basis/aug-cc-pvdz-jkfit.gbs 
    atoms 4, 12                     entry O          line   270 file /home/liuchw/anaconda3/envs/psi4env/share/psi4/basis/aug-cc-pvdz-jkfit.gbs 

  ==> Pre-Iterations <==

   -------------------------------------------------------
    Irrep   Nso     Nmo     Nalpha   Nbeta   Ndocc  Nsocc
   -------------------------------------------------------
     A        302     302       0       0       0       0
   -------------------------------------------------------
    Total     302     302       8       8       8       0
   -------------------------------------------------------

  ==> Integral Setup <==

  ==> DiskDFJK: Density-Fitted J/K Matrices <==

    J tasked:                  Yes
    K tasked:                  Yes
    wK tasked:                  No
    OpenMP threads:              8
    Integrals threads:           8
    Memory [MiB]:            14305
    Algorithm:                Core
    Integral Cache:           LOAD
    Schwarz Cutoff:          1E-12
    Fitting Condition:       1E-10

   => Auxiliary Basis Set <=

  Basis Set: (AUG-CC-PVDZ AUX)
    Blend: AUG-CC-PVDZ-JKFIT
    Number of shells: 376
    Number of basis function: 1116
    Number of Cartesian functions: 1290
    Spherical Harmonics?: true
    Max angular momentum: 3

  Minimum eigenvalue in the overlap matrix is 1.3385023168E-05.
  Using Symmetric Orthogonalization.

  SCF Guess: Superposition of Atomic Densities via on-the-fly atomic UHF.

  ==> Iterations <==

                           Total Energy        Delta E     RMS |[F,P]|

   @DF-RHF iter SAD:   -77.25756717712154   -7.72576e+01   0.00000e+00 
   @DF-RHF iter   1:   -77.96650015686389   -7.08933e-01   1.15451e-03 DIIS
   @DF-RHF iter   2:   -78.03251822016929   -6.60181e-02   4.57342e-04 DIIS
   @DF-RHF iter   3:   -78.04312445469601   -1.06062e-02   7.28599e-05 DIIS
   @DF-RHF iter   4:   -78.04365590255503   -5.31448e-04   6.86261e-06 DIIS
   @DF-RHF iter   5:   -78.04366114682871   -5.24427e-06   7.47856e-07 DIIS
   @DF-RHF iter   6:   -78.04366121729993   -7.04712e-08   9.34719e-08 DIIS
   @DF-RHF iter   7:   -78.04366121827375   -9.73827e-10   1.52141e-08 DIIS
   @DF-RHF iter   8:   -78.04366121829911   -2.53522e-11   4.97920e-09 DIIS
  Energy and wave function converged.


  ==> Post-Iterations <==

    Orbital Energies [Eh]
    ---------------------

    Doubly Occupied:                                                      

       1A    -11.239134     2A    -11.237465     3A     -1.036415  
       4A     -0.794540     5A     -0.644332     6A     -0.587648  
       7A     -0.507772     8A     -0.376419  

    Virtual:                                                              

       9A      0.023896    10A      0.038586    11A      0.038971  
      12A      0.047443    13A      0.059084    14A      0.064067  
      15A      0.064734    16A      0.067170    17A      0.085201  
      18A      0.089156    19A      0.091487    20A      0.105515  
      21A      0.105743    22A      0.122490    23A      0.125028  
      24A      0.126401    25A      0.129230    26A      0.134797  
      27A      0.145982    28A      0.148100    29A      0.156141  
      30A      0.159463    31A      0.171959    32A      0.173930  
      33A      0.179604    34A      0.185157    35A      0.188487  
      36A      0.191565    37A      0.203593    38A      0.206963  
      39A      0.211882    40A      0.218094    41A      0.221676  
      42A      0.224690    43A      0.227539    44A      0.233816  
      45A      0.243440    46A      0.257423    47A      0.273340  
      48A      0.284989    49A      0.292415    50A      0.294563  
      51A      0.299116    52A      0.302797    53A      0.307259  
      54A      0.320402    55A      0.323857    56A      0.339456  
      57A      0.342938    58A      0.351932    59A      0.364875  
      60A      0.373150    61A      0.382774    62A      0.399227  
      63A      0.409136    64A      0.415141    65A      0.427051  
      66A      0.436753    67A      0.443688    68A      0.449556  
      69A      0.455529    70A      0.463778    71A      0.465986  
      72A      0.472149    73A      0.485522    74A      0.491380  
      75A      0.501743    76A      0.509077    77A      0.510970  
      78A      0.518043    79A      0.524393    80A      0.533882  
      81A      0.538412    82A      0.545444    83A      0.552709  
      84A      0.563994    85A      0.571531    86A      0.577804  
      87A      0.595021    88A      0.599778    89A      0.605534  
      90A      0.608990    91A      0.611761    92A      0.623578  
      93A      0.626278    94A      0.633780    95A      0.634325  
      96A      0.642486    97A      0.643189    98A      0.656206  
      99A      0.661848   100A      0.669494   101A      0.677636  
     102A      0.686571   103A      0.690895   104A      0.705601  
     105A      0.723837   106A      0.731487   107A      0.741067  
     108A      0.745192   109A      0.753935   110A      0.759649  
     111A      0.768098   112A      0.785365   113A      0.803870  
     114A      0.808284   115A      0.817398   116A      0.828987  
     117A      0.840980   118A      0.848092   119A      0.860033  
     120A      0.873401   121A      0.879101   122A      0.893841  
     123A      0.898478   124A      0.909533   125A      0.919461  
     126A      0.923728   127A      0.936424   128A      0.948807  
     129A      0.995724   130A      0.999967   131A      1.009657  
     132A      1.036968   133A      1.040865   134A      1.050028  
     135A      1.066895   136A      1.089662   137A      1.097082  
     138A      1.127660   139A      1.130191   140A      1.150005  
     141A      1.157633   142A      1.179505   143A      1.192814  
     144A      1.201943   145A      1.220049   146A      1.233058  
     147A      1.238156   148A      1.244477   149A      1.250604  
     150A      1.259680   151A      1.268094   152A      1.286365  
     153A      1.302011   154A      1.314274   155A      1.335232  
     156A      1.336861   157A      1.351021   158A      1.371689  
     159A      1.378608   160A      1.387575   161A      1.397030  
     162A      1.433283   163A      1.434577   164A      1.463429  
     165A      1.466652   166A      1.482092   167A      1.496979  
     168A      1.512963   169A      1.517705   170A      1.549272  
     171A      1.556371   172A      1.564711   173A      1.583348  
     174A      1.602270   175A      1.627032   176A      1.642672  
     177A      1.671603   178A      1.692915   179A      1.698525  
     180A      1.757221   181A      1.783903   182A      1.791774  
     183A      1.823423   184A      1.843673   185A      1.875178  
     186A      1.888257   187A      1.925275   188A      1.976969  
     189A      1.982865   190A      2.034728   191A      2.083437  
     192A      2.105771   193A      2.134995   194A      2.146140  
     195A      2.172888   196A      2.179602   197A      2.185698  
     198A      2.198510   199A      2.222034   200A      2.230020  
     201A      2.263576   202A      2.278401   203A      2.290533  
     204A      2.329581   205A      2.403275   206A      2.425706  
     207A      2.435484   208A      2.447196   209A      2.486707  
     210A      2.501446   211A      2.510992   212A      2.514214  
     213A      2.540751   214A      2.554208   215A      2.559727  
     216A      2.574328   217A      2.626559   218A      2.649937  
     219A      2.660933   220A      2.669911   221A      2.691928  
     222A      2.719616   223A      2.759736   224A      2.780549  
     225A      2.813393   226A      2.822068   227A      2.825266  
     228A      2.836410   229A      2.902003   230A      2.907137  
     231A      2.921082   232A      2.974583   233A      3.043785  
     234A      3.054256   235A      3.103965   236A      3.184767  
     237A      3.202484   238A      3.278389   239A      3.335099  
     240A      3.344278   241A      3.439316   242A      3.465810  
     243A      3.478861   244A      3.501442   245A      3.507738  
     246A      3.523221   247A      3.616841   248A      3.632122  
     249A      3.657766   250A      3.686750   251A      3.727990  
     252A      3.766549   253A      3.785191   254A      3.826916  
     255A      3.869005   256A      3.916103   257A      3.936091  
     258A      4.073731   259A      4.134184   260A      4.193279  
     261A      4.352296   262A      4.432437   263A      4.473834  
     264A      4.552865   265A      4.621168   266A      4.669520  
     267A      4.696619   268A      4.751570   269A      4.780956  
     270A      4.926784   271A      4.977316   272A      5.010875  
     273A      5.032191   274A      5.039949   275A      5.065153  
     276A      5.077058   277A      5.117457   278A      5.199109  
     279A      5.324778   280A      5.425577   281A      5.486194  
     282A      5.690417   283A      5.779899   284A      5.910377  
     285A      5.983911   286A      6.005415   287A      6.068306  
     288A      6.084120   289A      6.124122   290A      6.227950  
     291A      6.388570   292A      6.510287   293A      7.034048  
     294A      7.312724   295A     18.170893   296A     18.740245  
     297A     18.814989   298A     19.518824   299A     25.458969  
     300A     25.464360   301A     33.537905   302A     33.547369  

    Final Occupation by Irrep:
              A 
    DOCC [     8 ]

  @DF-RHF Final Energy:   -78.04366121829911

   => Energetics <=

    Nuclear Repulsion Energy =             33.4040656780556233
    One-Electron Energy =                -170.0480020979908886
    Two-Electron Energy =                  58.6002752016361725
    Total Energy =                        -78.0436612182990928

Computation Completed


Properties will be evaluated at   0.000000,   0.000000,   0.000000 [a0]

Properties computed using the SCF density matrix

  Nuclear Dipole Moment: [e a0]
     X:     2.7404      Y:     3.4945      Z:   102.3912

  Electronic Dipole Moment: [e a0]
     X:    -2.7406      Y:    -3.4951      Z:  -102.3865

  Dipole Moment: [e a0]
     X:    -0.0002      Y:    -0.0006      Z:     0.0047     Total:     0.0047

  Dipole Moment: [D]
     X:    -0.0006      Y:    -0.0014      Z:     0.0119     Total:     0.0120


*** tstop() called on node87.bme.utexas.edu at Thu Apr 23 10:52:04 2020
Module time:
	user time   =      24.25 seconds =       0.40 minutes
	system time =       0.73 seconds =       0.01 minutes
	total time  =          4 seconds =       0.07 minutes
Total time:
	user time   =     145.89 seconds =       2.43 minutes
	system time =       4.04 seconds =       0.07 minutes
	total time  =         23 seconds =       0.38 minutes
  Constructing Basis Sets for SAPT...

   => Loading Basis Set <=

    Name: (AUG-CC-PVDZ AUX)
    Role: RIFIT
    Keyword: DF_BASIS_SAPT
    atoms 1, 9                      entry N          line   158 file /home/liuchw/anaconda3/envs/psi4env/share/psi4/basis/aug-cc-pvdz-ri.gbs 
    atoms 2, 6, 8, 10, 14-15, 17-18 entry H          line    30 file /home/liuchw/anaconda3/envs/psi4env/share/psi4/basis/aug-cc-pvdz-ri.gbs 
    atoms 3, 5, 7, 11, 13, 16       entry C          line   112 file /home/liuchw/anaconda3/envs/psi4env/share/psi4/basis/aug-cc-pvdz-ri.gbs 
    atoms 4, 12                     entry O          line   204 file /home/liuchw/anaconda3/envs/psi4env/share/psi4/basis/aug-cc-pvdz-ri.gbs 


  //>>>>>>>>>>>>>>>>>>>>>>>>>>>>>>>>>>>//
  //               SAPT2+              //
  //<<<<<<<<<<<<<<<<<<<<<<<<<<<<<<<<<<<//


*** tstart() called on node87.bme.utexas.edu
*** at Thu Apr 23 10:52:04 2020

        SAPT2+  
    Ed Hohenstein
     6 June 2009

      Orbital Information
  --------------------------
    NSO        =       302
    NMO        =       302
    NRI        =       904
    NOCC A     =        29
    NOCC B     =         8
    FOCC A     =         8
    FOCC B     =         2
    NVIR A     =       273
    NVIR B     =       294

    Estimated memory usage: 2369.7 MB

    Natural Orbital Cutoff:   1.000E-06
    Disp(T3) Truncation:            Yes
    CCD (vv|vv) Truncation:         Yes
    MBPT T2 Truncation:             Yes

    Monomer A: 89 virtual orbitals dropped
    Monomer B: 221 virtual orbitals dropped

    Elst10,r            =    -0.001270742659 [Eh]
    Exch10 (S^2)        =     0.000581872915 [Eh]
    Exch10              =     0.000582225005 [Eh]
    Ind20,r (A<-B)      =    -0.000048416498 [Eh]
    Ind20,r (B<-A)      =    -0.000372603574 [Eh]
    Ind20,r             =    -0.000421020072 [Eh]
    Exch-Ind20,r (A<-B) =     0.000013806034 [Eh]
    Exch-Ind20,r (B<-A) =     0.000293420369 [Eh]
    Exch-Ind20,r        =     0.000307226403 [Eh]
    Disp20              =    -0.002493424268 [Eh]
    Disp20 (NO)         =    -0.002327472194 [Eh]
    Exch-Disp20         =     0.000118850340 [Eh]
    Elst12,r            =     0.000359382094 [Eh]
    Exch11              =     0.000012122123 [Eh]
    Exch12              =     0.000004698938 [Eh]
    Ind22               =     0.000052481190 [Eh]
    Disp21              =     0.000545113004 [Eh]
    Disp22 (SDQ)        =     0.000047662663 [Eh]

    (i =   1 of   6)         26 seconds
    (i =   2 of   6)         51 seconds
    (i =   3 of   6)         77 seconds
    (i =   4 of   6)        103 seconds
    (i =   5 of   6)        129 seconds
    (i =   6 of   6)        155 seconds

    Disp220 (T)         =    -0.000268778874 [Eh]

    (i =   1 of  21)          1 seconds
    (i =   2 of  21)          2 seconds
    (i =   3 of  21)          3 seconds
    (i =   4 of  21)          4 seconds
    (i =   5 of  21)          5 seconds
    (i =   6 of  21)          6 seconds
    (i =   7 of  21)          8 seconds
    (i =   8 of  21)          9 seconds
    (i =   9 of  21)         10 seconds
    (i =  10 of  21)         11 seconds
    (i =  11 of  21)         12 seconds
    (i =  12 of  21)         13 seconds
    (i =  13 of  21)         14 seconds
    (i =  14 of  21)         16 seconds
    (i =  15 of  21)         17 seconds
    (i =  16 of  21)         18 seconds
    (i =  17 of  21)         19 seconds
    (i =  18 of  21)         20 seconds
    (i =  19 of  21)         21 seconds
    (i =  20 of  21)         22 seconds
    (i =  21 of  21)         23 seconds

    Disp202 (T)         =    -0.000169120901 [Eh]

    Disp22 (T)          =    -0.000437899775 [Eh]

    Est. Disp220 (T)    =    -0.000287943189 [Eh]
    Est. Disp202 (T)    =    -0.000181179462 [Eh]

    Est. Disp22 (T)     =    -0.000469122651 [Eh]

    SAPT Results 
  --------------------------------------------------------------------------------------------------------
    Electrostatics                 -0.91136056 [mEh]      -0.57188739 [kcal/mol]      -2.39277683 [kJ/mol]
      Elst10,r                     -1.27074266 [mEh]      -0.79740306 [kcal/mol]      -3.33633439 [kJ/mol]
      Elst12,r                      0.35938209 [mEh]       0.22551567 [kcal/mol]       0.94355756 [kJ/mol]

    Exchange                        0.59904607 [mEh]       0.37590708 [kcal/mol]       1.57279523 [kJ/mol]
      Exch10                        0.58222500 [mEh]       0.36535171 [kcal/mol]       1.52863154 [kJ/mol]
      Exch10(S^2)                   0.58187291 [mEh]       0.36513077 [kcal/mol]       1.52770713 [kJ/mol]
      Exch11(S^2)                   0.01212212 [mEh]       0.00760675 [kcal/mol]       0.03182663 [kJ/mol]
      Exch12(S^2)                   0.00469894 [mEh]       0.00294863 [kcal/mol]       0.01233706 [kJ/mol]

    Induction                      -0.12817124 [mEh]      -0.08042867 [kcal/mol]      -0.33651355 [kJ/mol]
      Ind20,r                      -0.42102007 [mEh]      -0.26419408 [kcal/mol]      -1.10538805 [kJ/mol]
      Ind22                         0.05248119 [mEh]       0.03293244 [kcal/mol]       0.13778935 [kJ/mol]
      Exch-Ind20,r                  0.30722640 [mEh]       0.19278748 [kcal/mol]       0.80662281 [kJ/mol]
      Exch-Ind22                   -0.03829653 [mEh]      -0.02403143 [kcal/mol]      -0.10054752 [kJ/mol]
      delta HF,r (2)               -0.02856224 [mEh]      -0.01792307 [kcal/mol]      -0.07499014 [kJ/mol]

    Dispersion                     -2.25092091 [mEh]      -1.41247420 [kcal/mol]      -5.90979204 [kJ/mol]
      Disp20                       -2.49342427 [mEh]      -1.56464735 [kcal/mol]      -6.54648451 [kJ/mol]
      Disp21                        0.54511300 [mEh]       0.34206357 [kcal/mol]       1.43119399 [kJ/mol]
      Disp22 (SDQ)                  0.04766266 [mEh]       0.02990877 [kcal/mol]       0.12513831 [kJ/mol]
      Disp22 (T)                   -0.43789977 [mEh]      -0.27478626 [kcal/mol]      -1.14970570 [kJ/mol]
      Est. Disp22 (T)              -0.46912265 [mEh]      -0.29437891 [kcal/mol]      -1.23168135 [kJ/mol]
      Exch-Disp20                   0.11885034 [mEh]       0.07457971 [kcal/mol]       0.31204152 [kJ/mol]

  Total HF                         -0.83087356 [mEh]      -0.52138103 [kcal/mol]      -2.18145823 [kJ/mol]
  Total SAPT0                      -3.20544749 [mEh]      -2.01144867 [kcal/mol]      -8.41590122 [kJ/mol]
  Total SAPT2                      -2.81505967 [mEh]      -1.76647661 [kcal/mol]      -7.39093815 [kJ/mol]
  Total SAPT2+                     -2.69140665 [mEh]      -1.68888317 [kcal/mol]      -7.06628720 [kJ/mol]

  Special recipe for scaled SAPT0 (see Manual):
    Electrostatics sSAPT0          -1.27074266 [mEh]      -0.79740306 [kcal/mol]      -3.33633439 [kJ/mol]
    Exchange sSAPT0                 0.58222500 [mEh]       0.36535171 [kcal/mol]       1.52863154 [kJ/mol]
    Induction sSAPT0               -0.14179786 [mEh]      -0.08897950 [kcal/mol]      -0.37229023 [kJ/mol]
    Dispersion sSAPT0              -2.37435805 [mEh]      -1.48993217 [kcal/mol]      -6.23387620 [kJ/mol]
  Total sSAPT0                     -3.20467357 [mEh]      -2.01096302 [kcal/mol]      -8.41386929 [kJ/mol]
  --------------------------------------------------------------------------------------------------------

*** tstop() called on node87.bme.utexas.edu at Thu Apr 23 10:57:13 2020
Module time:
	user time   =    2273.09 seconds =      37.88 minutes
	system time =      55.76 seconds =       0.93 minutes
	total time  =        309 seconds =       5.15 minutes
Total time:
	user time   =    2420.10 seconds =      40.34 minutes
	system time =      59.84 seconds =       1.00 minutes
	total time  =        332 seconds =       5.53 minutes

    Psi4 stopped on: Thursday, 23 April 2020 10:57AM
    Psi4 wall time for execution: 0:05:31.43

*** Psi4 exiting successfully. Buy a developer a beer!
