
    -----------------------------------------------------------------------
          Psi4: An Open-Source Ab Initio Electronic Structure Package
                               Psi4 1.4a2.dev224 

                         Git: Rev {master} e453b16 


    R. M. Parrish, L. A. Burns, D. G. A. Smith, A. C. Simmonett,
    A. E. DePrince III, E. G. Hohenstein, U. Bozkaya, A. Yu. Sokolov,
    R. Di Remigio, R. M. Richard, J. F. Gonthier, A. M. James,
    H. R. McAlexander, A. Kumar, M. Saitow, X. Wang, B. P. Pritchard,
    P. Verma, H. F. Schaefer III, K. Patkowski, R. A. King, E. F. Valeev,
    F. A. Evangelista, J. M. Turney, T. D. Crawford, and C. D. Sherrill,
    J. Chem. Theory Comput. 13(7) pp 3185--3197 (2017).
    (doi: 10.1021/acs.jctc.7b00174)


                         Additional Contributions by
    P. Kraus, H. Kruse, M. H. Lechner, M. C. Schieber, R. A. Shaw,
    A. Alenaizan, R. Galvelis, Z. L. Glick, S. Lehtola, and J. P. Misiewicz

    -----------------------------------------------------------------------


    Psi4 started on: Thursday, 23 April 2020 05:22PM

    Process ID: 49964
    Host:       node93.bme.utexas.edu
    PSIDATADIR: /home/liuchw/anaconda3/envs/psi4env/share/psi4
    Memory:     500.0 MiB
    Threads:    8
    
  ==> Input File <==

--------------------------------------------------------------------------
#Generated by lconvert.py for sapt job

memory 20 GB

molecule  {
0 1
  N      -0.050870   -0.980080    0.033960
  H      -0.053220   -1.990690    0.049820
  C      -1.308810   -0.361880    0.004030
  O      -2.327220   -1.032550   -0.005830
  C      -1.236820    1.088050   -0.012220
  H      -2.152740    1.651460   -0.054770
  C      -0.035190    1.697840    0.033700
  H       0.070370    2.772480    0.031880
  N       1.134530    0.990280    0.091840
  H       2.023720    1.456770    0.155690
  C       1.193190   -0.391830    0.115780
  O       2.236400   -1.011190    0.194190
--
0 1
  C       0.774770    0.087110    5.217940
  H       1.291890   -0.783870    4.840710
  H       1.380380    0.874110    5.645250
  C      -0.554000    0.187700    5.168690
  H      -1.166010   -0.599780    4.751790
  H      -1.065830    1.058770    5.552690
units angstrom
no_reorient
symmetry c1
}

set {
scf_type DF
basis aug-cc-pvdz
freeze_core True
guess SAD
}
energy('sapt2+')
--------------------------------------------------------------------------

  Memory set to  18.626 GiB by Python driver.

Scratch directory: /scratch/liuchw/

  //>>>>>>>>>>>>>>>>>>>>>>>>>>>>>>>>>>>//
  //              Dimer HF             //
  //<<<<<<<<<<<<<<<<<<<<<<<<<<<<<<<<<<<//


*** tstart() called on node93.bme.utexas.edu
*** at Thu Apr 23 17:22:25 2020

   => Loading Basis Set <=

    Name: AUG-CC-PVDZ
    Role: ORBITAL
    Keyword: BASIS
    atoms 1, 9                      entry N          line   218 file /home/liuchw/anaconda3/envs/psi4env/share/psi4/basis/aug-cc-pvdz.gbs 
    atoms 2, 6, 8, 10, 14-15, 17-18 entry H          line    40 file /home/liuchw/anaconda3/envs/psi4env/share/psi4/basis/aug-cc-pvdz.gbs 
    atoms 3, 5, 7, 11, 13, 16       entry C          line   182 file /home/liuchw/anaconda3/envs/psi4env/share/psi4/basis/aug-cc-pvdz.gbs 
    atoms 4, 12                     entry O          line   254 file /home/liuchw/anaconda3/envs/psi4env/share/psi4/basis/aug-cc-pvdz.gbs 


         ---------------------------------------------------------
                                   SCF
               by Justin Turney, Rob Parrish, Andy Simmonett
                          and Daniel G. A. Smith
                              RHF Reference
                        8 Threads,  19073 MiB Core
         ---------------------------------------------------------

  ==> Geometry <==

    Molecular point group: c1
    Full point group: C1

    Geometry (in Angstrom), charge = 0, multiplicity = 1:

       Center              X                  Y                   Z               Mass       
    ------------   -----------------  -----------------  -----------------  -----------------
         N           -0.051232162913    -0.977304388664    -1.053060919455    14.003074004430
         H           -0.053582162913    -1.987914388664    -1.037200919455     1.007825032230
         C           -1.309172162913    -0.359104388664    -1.082990919455    12.000000000000
         O           -2.327582162913    -1.029774388664    -1.092850919455    15.994914619570
         C           -1.237182162913     1.090825611336    -1.099240919455    12.000000000000
         H           -2.153102162913     1.654235611336    -1.141790919455     1.007825032230
         C           -0.035552162913     1.700615611336    -1.053320919455    12.000000000000
         H            0.070007837087     2.775255611336    -1.055140919455     1.007825032230
         N            1.134167837087     0.993055611336    -0.995180919455    14.003074004430
         H            2.023357837087     1.459545611336    -0.931330919455     1.007825032230
         C            1.192827837087    -0.389054388664    -0.971240919455    12.000000000000
         O            2.236037837087    -1.008414388664    -0.892830919455    15.994914619570
         C            0.774407837087     0.089885611336     4.130919080545    12.000000000000
         H            1.291527837087    -0.781094388664     3.753689080545     1.007825032230
         H            1.380017837087     0.876885611336     4.558229080545     1.007825032230
         C           -0.554362162913     0.190475611336     4.081669080545    12.000000000000
         H           -1.166372162913    -0.597004388664     3.664769080545     1.007825032230
         H           -1.066192162913     1.061545611336     4.465669080545     1.007825032230

  Running in c1 symmetry.

  Rotational constants: A =      0.04255  B =      0.02317  C =      0.01961 [cm^-1]
  Rotational constants: A =   1275.56691  B =    694.72935  C =    587.88119 [MHz]
  Nuclear repulsion =  479.634206179952002

  Charge       = 0
  Multiplicity = 1
  Electrons    = 74
  Nalpha       = 37
  Nbeta        = 37

  ==> Algorithm <==

  SCF Algorithm Type is DF.
  DIIS enabled.
  MOM disabled.
  Fractional occupation disabled.
  Guess Type is SAD.
  Energy threshold   = 1.00e-08
  Density threshold  = 1.00e-08
  Integral threshold = 0.00e+00

  ==> Primary Basis <==

  Basis Set: AUG-CC-PVDZ
    Blend: AUG-CC-PVDZ
    Number of shells: 130
    Number of basis function: 302
    Number of Cartesian functions: 322
    Spherical Harmonics?: true
    Max angular momentum: 2

   => Loading Basis Set <=

    Name: (AUG-CC-PVDZ AUX)
    Role: JKFIT
    Keyword: DF_BASIS_SCF
    atoms 1, 9                      entry N          line   212 file /home/liuchw/anaconda3/envs/psi4env/share/psi4/basis/aug-cc-pvdz-jkfit.gbs 
    atoms 2, 6, 8, 10, 14-15, 17-18 entry H          line    70 file /home/liuchw/anaconda3/envs/psi4env/share/psi4/basis/aug-cc-pvdz-jkfit.gbs 
    atoms 3, 5, 7, 11, 13, 16       entry C          line   154 file /home/liuchw/anaconda3/envs/psi4env/share/psi4/basis/aug-cc-pvdz-jkfit.gbs 
    atoms 4, 12                     entry O          line   270 file /home/liuchw/anaconda3/envs/psi4env/share/psi4/basis/aug-cc-pvdz-jkfit.gbs 

  ==> Pre-Iterations <==

   -------------------------------------------------------
    Irrep   Nso     Nmo     Nalpha   Nbeta   Ndocc  Nsocc
   -------------------------------------------------------
     A        302     302       0       0       0       0
   -------------------------------------------------------
    Total     302     302      37      37      37       0
   -------------------------------------------------------

  ==> Integral Setup <==

  ==> DiskDFJK: Density-Fitted J/K Matrices <==

    J tasked:                  Yes
    K tasked:                  Yes
    wK tasked:                  No
    OpenMP threads:              8
    Integrals threads:           8
    Memory [MiB]:            14305
    Algorithm:                Core
    Integral Cache:           SAVE
    Schwarz Cutoff:          1E-12
    Fitting Condition:       1E-10

   => Auxiliary Basis Set <=

  Basis Set: (AUG-CC-PVDZ AUX)
    Blend: AUG-CC-PVDZ-JKFIT
    Number of shells: 376
    Number of basis function: 1116
    Number of Cartesian functions: 1290
    Spherical Harmonics?: true
    Max angular momentum: 3

  Minimum eigenvalue in the overlap matrix is 1.5285353487E-05.
  Using Symmetric Orthogonalization.

  SCF Guess: Superposition of Atomic Densities via on-the-fly atomic UHF.

  ==> Iterations <==

                           Total Energy        Delta E     RMS |[F,P]|

   @DF-RHF iter SAD:  -489.16226791399714   -4.89162e+02   0.00000e+00 
   @DF-RHF iter   1:  -490.25377313713602   -1.09151e+00   2.63977e-03 DIIS
   @DF-RHF iter   2:  -490.48290112953612   -2.29128e-01   1.59165e-03 DIIS
   @DF-RHF iter   3:  -490.56746700768599   -8.45659e-02   3.30931e-04 DIIS
   @DF-RHF iter   4:  -490.57272102443739   -5.25402e-03   1.29224e-04 DIIS
   @DF-RHF iter   5:  -490.57375064075683   -1.02962e-03   2.36975e-05 DIIS
   @DF-RHF iter   6:  -490.57384477008338   -9.41293e-05   1.24108e-05 DIIS
   @DF-RHF iter   7:  -490.57386338816485   -1.86181e-05   4.68384e-06 DIIS
   @DF-RHF iter   8:  -490.57386657600387   -3.18784e-06   1.62686e-06 DIIS
   @DF-RHF iter   9:  -490.57386679670878   -2.20705e-07   6.41279e-07 DIIS
   @DF-RHF iter  10:  -490.57386684908920   -5.23804e-08   2.12380e-07 DIIS
   @DF-RHF iter  11:  -490.57386685506447   -5.97527e-09   7.60695e-08 DIIS
   @DF-RHF iter  12:  -490.57386685567877   -6.14307e-10   2.22085e-08 DIIS
   @DF-RHF iter  13:  -490.57386685574301   -6.42331e-11   7.86083e-09 DIIS
  Energy and wave function converged.


  ==> Post-Iterations <==

    Orbital Energies [Eh]
    ---------------------

    Doubly Occupied:                                                      

       1A    -20.557547     2A    -20.551946     3A    -15.650654  
       4A    -15.633871     5A    -11.427686     6A    -11.388683  
       7A    -11.346498     8A    -11.260649     9A    -11.241081  
      10A    -11.239411    11A     -1.440717    12A     -1.402769  
      13A     -1.316917    14A     -1.248605    15A     -1.090482  
      16A     -1.038489    17A     -0.935387    18A     -0.903757  
      19A     -0.808314    20A     -0.796346    21A     -0.766351  
      22A     -0.714884    23A     -0.678864    24A     -0.668277  
      25A     -0.653899    26A     -0.646238    27A     -0.615360  
      28A     -0.601558    29A     -0.589478    30A     -0.570224  
      31A     -0.524525    32A     -0.509509    33A     -0.483174  
      34A     -0.448332    35A     -0.435532    36A     -0.378736  
      37A     -0.367028  

    Virtual:                                                              

      38A      0.019400    39A      0.039051    40A      0.042316  
      41A      0.047668    42A      0.056462    43A      0.059456  
      44A      0.066561    45A      0.075095    46A      0.076637  
      47A      0.091754    48A      0.099621    49A      0.105869  
      50A      0.112159    51A      0.115386    52A      0.125889  
      53A      0.130381    54A      0.133068    55A      0.137227  
      56A      0.145450    57A      0.148419    58A      0.150304  
      59A      0.156321    60A      0.158093    61A      0.166411  
      62A      0.172498    63A      0.178602    64A      0.180596  
      65A      0.183741    66A      0.192664    67A      0.197393  
      68A      0.204680    69A      0.208150    70A      0.213386  
      71A      0.217809    72A      0.220376    73A      0.245420  
      74A      0.256352    75A      0.259482    76A      0.268042  
      77A      0.274957    78A      0.285174    79A      0.288225  
      80A      0.293715    81A      0.310979    82A      0.314045  
      83A      0.325698    84A      0.327791    85A      0.329708  
      86A      0.344654    87A      0.352720    88A      0.358113  
      89A      0.362064    90A      0.366838    91A      0.369266  
      92A      0.378537    93A      0.382808    94A      0.398186  
      95A      0.400204    96A      0.411751    97A      0.414685  
      98A      0.420642    99A      0.422551   100A      0.439134  
     101A      0.443966   102A      0.449021   103A      0.455892  
     104A      0.463201   105A      0.472852   106A      0.478752  
     107A      0.481985   108A      0.498754   109A      0.500155  
     110A      0.507617   111A      0.516588   112A      0.523033  
     113A      0.531234   114A      0.538758   115A      0.550224  
     116A      0.563375   117A      0.565253   118A      0.573318  
     119A      0.578758   120A      0.582870   121A      0.593541  
     122A      0.602836   123A      0.609155   124A      0.615961  
     125A      0.619483   126A      0.622696   127A      0.630465  
     128A      0.634425   129A      0.638419   130A      0.641258  
     131A      0.644182   132A      0.654702   133A      0.661258  
     134A      0.683528   135A      0.690420   136A      0.701913  
     137A      0.707492   138A      0.712730   139A      0.717321  
     140A      0.721078   141A      0.730999   142A      0.734793  
     143A      0.750125   144A      0.762751   145A      0.770208  
     146A      0.788534   147A      0.796117   148A      0.810977  
     149A      0.816724   150A      0.819188   151A      0.830188  
     152A      0.838671   153A      0.842296   154A      0.862038  
     155A      0.867194   156A      0.876692   157A      0.892971  
     158A      0.897760   159A      0.897982   160A      0.914130  
     161A      0.928231   162A      0.943211   163A      0.948182  
     164A      0.978024   165A      0.982433   166A      0.991038  
     167A      1.001254   168A      1.018977   169A      1.024594  
     170A      1.032981   171A      1.063699   172A      1.070000  
     173A      1.085177   174A      1.098320   175A      1.104930  
     176A      1.129258   177A      1.138152   178A      1.165573  
     179A      1.172225   180A      1.191981   181A      1.218906  
     182A      1.232609   183A      1.240589   184A      1.249798  
     185A      1.288281   186A      1.299916   187A      1.304468  
     188A      1.327289   189A      1.349628   190A      1.357901  
     191A      1.360676   192A      1.394163   193A      1.443737  
     194A      1.456720   195A      1.462064   196A      1.473227  
     197A      1.488262   198A      1.515777   199A      1.527386  
     200A      1.530716   201A      1.545546   202A      1.552664  
     203A      1.565616   204A      1.582523   205A      1.606277  
     206A      1.639173   207A      1.647530   208A      1.661992  
     209A      1.667434   210A      1.691818   211A      1.718271  
     212A      1.745540   213A      1.757657   214A      1.774342  
     215A      1.787889   216A      1.794515   217A      1.829314  
     218A      1.832604   219A      1.852165   220A      1.854189  
     221A      1.869577   222A      1.900064   223A      1.911029  
     224A      1.934851   225A      1.962513   226A      1.966705  
     227A      1.981745   228A      1.989205   229A      2.003982  
     230A      2.012988   231A      2.020682   232A      2.026904  
     233A      2.053572   234A      2.078530   235A      2.100660  
     236A      2.110457   237A      2.125179   238A      2.129161  
     239A      2.136348   240A      2.157520   241A      2.176745  
     242A      2.179643   243A      2.200751   244A      2.221542  
     245A      2.226419   246A      2.247657   247A      2.269757  
     248A      2.323954   249A      2.335224   250A      2.360602  
     251A      2.375168   252A      2.393652   253A      2.432965  
     254A      2.443109   255A      2.456897   256A      2.468142  
     257A      2.482315   258A      2.493031   259A      2.517610  
     260A      2.550612   261A      2.578698   262A      2.630222  
     263A      2.647700   264A      2.681061   265A      2.695964  
     266A      2.727777   267A      2.740853   268A      2.784482  
     269A      2.789344   270A      2.806910   271A      2.823360  
     272A      2.830283   273A      2.851499   274A      2.862863  
     275A      2.879142   276A      2.900209   277A      2.908084  
     278A      3.001154   279A      3.008407   280A      3.099027  
     281A      3.163172   282A      3.170776   283A      3.230557  
     284A      3.334540   285A      3.363300   286A      3.431317  
     287A      3.472320   288A      3.497405   289A      3.540266  
     290A      3.597560   291A      3.728211   292A      3.754687  
     293A      3.763008   294A      3.806797   295A      3.821223  
     296A      3.825203   297A      3.836461   298A      4.029597  
     299A      4.051963   300A      4.074326   301A      4.171216  
     302A      4.315465  

    Final Occupation by Irrep:
              A 
    DOCC [    37 ]

  @DF-RHF Final Energy:  -490.57386685574301

   => Energetics <=

    Nuclear Repulsion Energy =            479.6342061799520025
    One-Electron Energy =               -1618.5525859433075766
    Two-Electron Energy =                 648.3445129076123976
    Total Energy =                       -490.5738668557430628

Computation Completed


Properties will be evaluated at   0.000000,   0.000000,   0.000000 [a0]

Properties computed using the SCF density matrix

  Nuclear Dipole Moment: [e a0]
     X:     0.3017      Y:     4.1726      Z:    11.5056

  Electronic Dipole Moment: [e a0]
     X:     0.2170      Y:    -2.2675      Z:   -11.4901

  Dipole Moment: [e a0]
     X:     0.5187      Y:     1.9051      Z:     0.0155     Total:     1.9745

  Dipole Moment: [D]
     X:     1.3183      Y:     4.8423      Z:     0.0394     Total:     5.0187


*** tstop() called on node93.bme.utexas.edu at Thu Apr 23 17:22:35 2020
Module time:
	user time   =      70.83 seconds =       1.18 minutes
	system time =       1.59 seconds =       0.03 minutes
	total time  =         10 seconds =       0.17 minutes
Total time:
	user time   =      70.83 seconds =       1.18 minutes
	system time =       1.59 seconds =       0.03 minutes
	total time  =         10 seconds =       0.17 minutes

  //>>>>>>>>>>>>>>>>>>>>>>>>>>>>>>>>>>>//
  //            Monomer A HF           //
  //<<<<<<<<<<<<<<<<<<<<<<<<<<<<<<<<<<<//


*** tstart() called on node93.bme.utexas.edu
*** at Thu Apr 23 17:22:35 2020

   => Loading Basis Set <=

    Name: AUG-CC-PVDZ
    Role: ORBITAL
    Keyword: BASIS
    atoms 1, 9                      entry N          line   218 file /home/liuchw/anaconda3/envs/psi4env/share/psi4/basis/aug-cc-pvdz.gbs 
    atoms 2, 6, 8, 10, 14-15, 17-18 entry H          line    40 file /home/liuchw/anaconda3/envs/psi4env/share/psi4/basis/aug-cc-pvdz.gbs 
    atoms 3, 5, 7, 11, 13, 16       entry C          line   182 file /home/liuchw/anaconda3/envs/psi4env/share/psi4/basis/aug-cc-pvdz.gbs 
    atoms 4, 12                     entry O          line   254 file /home/liuchw/anaconda3/envs/psi4env/share/psi4/basis/aug-cc-pvdz.gbs 


         ---------------------------------------------------------
                                   SCF
               by Justin Turney, Rob Parrish, Andy Simmonett
                          and Daniel G. A. Smith
                              RHF Reference
                        8 Threads,  19073 MiB Core
         ---------------------------------------------------------

  ==> Geometry <==

    Molecular point group: c1
    Full point group: C1

    Geometry (in Angstrom), charge = 0, multiplicity = 1:

       Center              X                  Y                   Z               Mass       
    ------------   -----------------  -----------------  -----------------  -----------------
         N           -0.051232162913    -0.977304388664    -1.053060919455    14.003074004430
         H           -0.053582162913    -1.987914388664    -1.037200919455     1.007825032230
         C           -1.309172162913    -0.359104388664    -1.082990919455    12.000000000000
         O           -2.327582162913    -1.029774388664    -1.092850919455    15.994914619570
         C           -1.237182162913     1.090825611336    -1.099240919455    12.000000000000
         H           -2.153102162913     1.654235611336    -1.141790919455     1.007825032230
         C           -0.035552162913     1.700615611336    -1.053320919455    12.000000000000
         H            0.070007837087     2.775255611336    -1.055140919455     1.007825032230
         N            1.134167837087     0.993055611336    -0.995180919455    14.003074004430
         H            2.023357837087     1.459545611336    -0.931330919455     1.007825032230
         C            1.192827837087    -0.389054388664    -0.971240919455    12.000000000000
         O            2.236037837087    -1.008414388664    -0.892830919455    15.994914619570
      Gh(C)           0.774407837087     0.089885611336     4.130919080545    12.000000000000
      Gh(H)           1.291527837087    -0.781094388664     3.753689080545     1.007825032230
      Gh(H)           1.380017837087     0.876885611336     4.558229080545     1.007825032230
      Gh(C)          -0.554362162913     0.190475611336     4.081669080545    12.000000000000
      Gh(H)          -1.166372162913    -0.597004388664     3.664769080545     1.007825032230
      Gh(H)          -1.066192162913     1.061545611336     4.465669080545     1.007825032230

  Running in c1 symmetry.

  Rotational constants: A =      0.04255  B =      0.02317  C =      0.01961 [cm^-1]
  Rotational constants: A =   1275.56691  B =    694.72935  C =    587.88119 [MHz]
  Nuclear repulsion =  357.187195812641789

  Charge       = 0
  Multiplicity = 1
  Electrons    = 58
  Nalpha       = 29
  Nbeta        = 29

  ==> Algorithm <==

  SCF Algorithm Type is DF.
  DIIS enabled.
  MOM disabled.
  Fractional occupation disabled.
  Guess Type is SAD.
  Energy threshold   = 1.00e-08
  Density threshold  = 1.00e-08
  Integral threshold = 0.00e+00

  ==> Primary Basis <==

  Basis Set: AUG-CC-PVDZ
    Blend: AUG-CC-PVDZ
    Number of shells: 130
    Number of basis function: 302
    Number of Cartesian functions: 322
    Spherical Harmonics?: true
    Max angular momentum: 2

   => Loading Basis Set <=

    Name: (AUG-CC-PVDZ AUX)
    Role: JKFIT
    Keyword: DF_BASIS_SCF
    atoms 1, 9                      entry N          line   212 file /home/liuchw/anaconda3/envs/psi4env/share/psi4/basis/aug-cc-pvdz-jkfit.gbs 
    atoms 2, 6, 8, 10, 14-15, 17-18 entry H          line    70 file /home/liuchw/anaconda3/envs/psi4env/share/psi4/basis/aug-cc-pvdz-jkfit.gbs 
    atoms 3, 5, 7, 11, 13, 16       entry C          line   154 file /home/liuchw/anaconda3/envs/psi4env/share/psi4/basis/aug-cc-pvdz-jkfit.gbs 
    atoms 4, 12                     entry O          line   270 file /home/liuchw/anaconda3/envs/psi4env/share/psi4/basis/aug-cc-pvdz-jkfit.gbs 

  ==> Pre-Iterations <==

   -------------------------------------------------------
    Irrep   Nso     Nmo     Nalpha   Nbeta   Ndocc  Nsocc
   -------------------------------------------------------
     A        302     302       0       0       0       0
   -------------------------------------------------------
    Total     302     302      29      29      29       0
   -------------------------------------------------------

  ==> Integral Setup <==

  ==> DiskDFJK: Density-Fitted J/K Matrices <==

    J tasked:                  Yes
    K tasked:                  Yes
    wK tasked:                  No
    OpenMP threads:              8
    Integrals threads:           8
    Memory [MiB]:            14305
    Algorithm:                Core
    Integral Cache:           LOAD
    Schwarz Cutoff:          1E-12
    Fitting Condition:       1E-10

   => Auxiliary Basis Set <=

  Basis Set: (AUG-CC-PVDZ AUX)
    Blend: AUG-CC-PVDZ-JKFIT
    Number of shells: 376
    Number of basis function: 1116
    Number of Cartesian functions: 1290
    Spherical Harmonics?: true
    Max angular momentum: 3

  Minimum eigenvalue in the overlap matrix is 1.5285353487E-05.
  Using Symmetric Orthogonalization.

  SCF Guess: Superposition of Atomic Densities via on-the-fly atomic UHF.

  ==> Iterations <==

                           Total Energy        Delta E     RMS |[F,P]|

   @DF-RHF iter SAD:  -411.89917357967619   -4.11899e+02   0.00000e+00 
   @DF-RHF iter   1:  -412.28605526050580   -3.86882e-01   2.37799e-03 DIIS
   @DF-RHF iter   2:  -412.44912607654260   -1.63071e-01   1.53160e-03 DIIS
   @DF-RHF iter   3:  -412.52456420200832   -7.54381e-02   2.88548e-04 DIIS
   @DF-RHF iter   4:  -412.52876176537052   -4.19756e-03   1.14832e-04 DIIS
   @DF-RHF iter   5:  -412.52959529135933   -8.33526e-04   2.33835e-05 DIIS
   @DF-RHF iter   6:  -412.52969195764751   -9.66663e-05   1.18909e-05 DIIS
   @DF-RHF iter   7:  -412.52970931157472   -1.73539e-05   4.54840e-06 DIIS
   @DF-RHF iter   8:  -412.52971211702584   -2.80545e-06   1.56220e-06 DIIS
   @DF-RHF iter   9:  -412.52971231853496   -2.01509e-07   6.34826e-07 DIIS
   @DF-RHF iter  10:  -412.52971236937822   -5.08433e-08   2.04641e-07 DIIS
   @DF-RHF iter  11:  -412.52971237505511   -5.67690e-09   6.94815e-08 DIIS
   @DF-RHF iter  12:  -412.52971237553231   -4.77201e-10   2.10782e-08 DIIS
   @DF-RHF iter  13:  -412.52971237558887   -5.65592e-11   7.57057e-09 DIIS
  Energy and wave function converged.


  ==> Post-Iterations <==

    Orbital Energies [Eh]
    ---------------------

    Doubly Occupied:                                                      

       1A    -20.558823     2A    -20.553153     3A    -15.652420  
       4A    -15.635161     5A    -11.429036     6A    -11.389943  
       7A    -11.348215     8A    -11.262492     9A     -1.442072  
      10A     -1.403925    11A     -1.318549    12A     -1.250024  
      13A     -1.092231    14A     -0.937016    15A     -0.905197  
      16A     -0.809920    17A     -0.767887    18A     -0.716419  
      19A     -0.680113    20A     -0.669902    21A     -0.655240  
      22A     -0.616737    23A     -0.603047    24A     -0.571518  
      25A     -0.526241    26A     -0.484415    27A     -0.449505  
      28A     -0.436640    29A     -0.368809  

    Virtual:                                                              

      30A      0.016332    31A      0.030820    32A      0.038158  
      33A      0.046661    34A      0.054806    35A      0.058538  
      36A      0.063888    37A      0.073424    38A      0.075538  
      39A      0.087033    40A      0.091083    41A      0.101637  
      42A      0.113720    43A      0.120002    44A      0.123172  
      45A      0.126591    46A      0.130134    47A      0.132569  
      48A      0.137556    49A      0.140657    50A      0.144958  
      51A      0.152370    52A      0.157339    53A      0.160583  
      54A      0.165684    55A      0.169628    56A      0.175199  
      57A      0.179819    58A      0.183792    59A      0.192522  
      60A      0.196429    61A      0.205162    62A      0.208371  
      63A      0.213908    64A      0.234799    65A      0.252216  
      66A      0.256553    67A      0.267542    68A      0.274888  
      69A      0.284500    70A      0.299057    71A      0.304940  
      72A      0.314212    73A      0.319431    74A      0.321488  
      75A      0.329137    76A      0.335540    77A      0.339241  
      78A      0.347339    79A      0.356532    80A      0.362007  
      81A      0.365559    82A      0.368875    83A      0.377573  
      84A      0.384818    85A      0.390547    86A      0.398102  
      87A      0.403022    88A      0.413317    89A      0.415022  
      90A      0.419452    91A      0.428206    92A      0.432171  
      93A      0.436537    94A      0.444778    95A      0.446881  
      96A      0.449968    97A      0.465046    98A      0.468188  
      99A      0.483709   100A      0.495154   101A      0.503331  
     102A      0.508344   103A      0.514598   104A      0.516607  
     105A      0.533062   106A      0.536503   107A      0.548139  
     108A      0.556817   109A      0.561742   110A      0.569680  
     111A      0.572636   112A      0.585807   113A      0.591431  
     114A      0.604838   115A      0.615332   116A      0.621950  
     117A      0.631636   118A      0.635551   119A      0.637497  
     120A      0.638700   121A      0.647596   122A      0.650461  
     123A      0.658306   124A      0.683354   125A      0.689614  
     126A      0.701805   127A      0.705754   128A      0.718776  
     129A      0.723567   130A      0.733865   131A      0.735980  
     132A      0.743440   133A      0.750432   134A      0.767364  
     135A      0.776602   136A      0.788838   137A      0.800228  
     138A      0.809444   139A      0.814576   140A      0.825137  
     141A      0.828776   142A      0.835042   143A      0.836955  
     144A      0.841243   145A      0.847805   146A      0.860829  
     147A      0.864968   148A      0.872597   149A      0.892527  
     150A      0.896583   151A      0.911452   152A      0.920634  
     153A      0.933429   154A      0.941910   155A      0.945052  
     156A      0.965668   157A      0.971646   158A      0.975739  
     159A      0.978608   160A      0.984560   161A      0.990838  
     162A      1.002612   163A      1.022084   164A      1.034080  
     165A      1.063552   166A      1.066241   167A      1.084168  
     168A      1.098820   169A      1.128430   170A      1.135774  
     171A      1.140206   172A      1.166090   173A      1.171347  
     174A      1.178162   175A      1.219521   176A      1.231622  
     177A      1.241505   178A      1.298527   179A      1.303333  
     180A      1.326542   181A      1.348344   182A      1.356992  
     183A      1.359874   184A      1.393568   185A      1.444799  
     186A      1.473309   187A      1.487584   188A      1.518630  
     189A      1.530725   190A      1.543850   191A      1.550516  
     192A      1.565715   193A      1.600662   194A      1.641705  
     195A      1.647106   196A      1.661498   197A      1.689058  
     198A      1.717204   199A      1.755604   200A      1.787048  
     201A      1.820177   202A      1.830844   203A      1.850855  
     204A      1.868272   205A      1.908709   206A      1.933289  
     207A      1.959964   208A      1.966388   209A      1.979504  
     210A      1.988485   211A      2.001955   212A      2.003831  
     213A      2.021974   214A      2.042271   215A      2.051779  
     216A      2.066396   217A      2.087969   218A      2.102229  
     219A      2.114876   220A      2.131090   221A      2.154511  
     222A      2.178041   223A      2.197589   224A      2.213414  
     225A      2.218774   226A      2.223134   227A      2.239376  
     228A      2.244724   229A      2.263267   230A      2.269268  
     231A      2.290332   232A      2.315971   233A      2.322090  
     234A      2.327488   235A      2.337035   236A      2.359249  
     237A      2.373567   238A      2.415553   239A      2.428015  
     240A      2.429282   241A      2.442140   242A      2.455962  
     243A      2.481336   244A      2.499534   245A      2.507972  
     246A      2.516859   247A      2.548500   248A      2.577053  
     249A      2.597244   250A      2.597823   251A      2.630196  
     252A      2.694176   253A      2.723982   254A      2.731107  
     255A      2.744468   256A      2.760305   257A      2.786889  
     258A      2.790613   259A      2.812759   260A      2.830452  
     261A      2.842873   262A      2.852433   263A      2.861516  
     264A      2.879301   265A      2.898909   266A      2.939982  
     267A      2.986972   268A      2.999932   269A      3.014606  
     270A      3.094758   271A      3.155300   272A      3.169533  
     273A      3.189265   274A      3.229041   275A      3.271275  
     276A      3.333623   277A      3.362004   278A      3.436208  
     279A      3.471500   280A      3.472959   281A      3.538861  
     282A      3.596404   283A      3.727056   284A      3.753511  
     285A      3.761983   286A      3.805790   287A      3.820088  
     288A      3.823430   289A      3.835397   290A      3.954392  
     291A      4.015119   292A      4.028556   293A      4.050861  
     294A      4.073143   295A      4.170385   296A      4.234440  
     297A      4.314368   298A      5.216548   299A      5.269327  
     300A      5.640466   301A     18.138082   302A     18.915511  

    Final Occupation by Irrep:
              A 
    DOCC [    29 ]

  @DF-RHF Final Energy:  -412.52971237558887

   => Energetics <=

    Nuclear Repulsion Energy =            357.1871958126417894
    One-Electron Energy =               -1270.3645177531691388
    Two-Electron Energy =                 500.6476095649384774
    Total Energy =                       -412.5297123755888720

Computation Completed


Properties will be evaluated at   0.000000,   0.000000,   0.000000 [a0]

Properties computed using the SCF density matrix

  Nuclear Dipole Moment: [e a0]
     X:    -3.0228      Y:    -0.0651      Z:  -112.6832

  Electronic Dipole Moment: [e a0]
     X:     3.5448      Y:     1.9829      Z:   112.6644

  Dipole Moment: [e a0]
     X:     0.5220      Y:     1.9179      Z:    -0.0188     Total:     1.9877

  Dipole Moment: [D]
     X:     1.3269      Y:     4.8747      Z:    -0.0477     Total:     5.0523


*** tstop() called on node93.bme.utexas.edu at Thu Apr 23 17:22:42 2020
Module time:
	user time   =      43.19 seconds =       0.72 minutes
	system time =       1.21 seconds =       0.02 minutes
	total time  =          7 seconds =       0.12 minutes
Total time:
	user time   =     114.08 seconds =       1.90 minutes
	system time =       2.81 seconds =       0.05 minutes
	total time  =         17 seconds =       0.28 minutes

  //>>>>>>>>>>>>>>>>>>>>>>>>>>>>>>>>>>>//
  //            Monomer B HF           //
  //<<<<<<<<<<<<<<<<<<<<<<<<<<<<<<<<<<<//


*** tstart() called on node93.bme.utexas.edu
*** at Thu Apr 23 17:22:42 2020

   => Loading Basis Set <=

    Name: AUG-CC-PVDZ
    Role: ORBITAL
    Keyword: BASIS
    atoms 1, 9                      entry N          line   218 file /home/liuchw/anaconda3/envs/psi4env/share/psi4/basis/aug-cc-pvdz.gbs 
    atoms 2, 6, 8, 10, 14-15, 17-18 entry H          line    40 file /home/liuchw/anaconda3/envs/psi4env/share/psi4/basis/aug-cc-pvdz.gbs 
    atoms 3, 5, 7, 11, 13, 16       entry C          line   182 file /home/liuchw/anaconda3/envs/psi4env/share/psi4/basis/aug-cc-pvdz.gbs 
    atoms 4, 12                     entry O          line   254 file /home/liuchw/anaconda3/envs/psi4env/share/psi4/basis/aug-cc-pvdz.gbs 


         ---------------------------------------------------------
                                   SCF
               by Justin Turney, Rob Parrish, Andy Simmonett
                          and Daniel G. A. Smith
                              RHF Reference
                        8 Threads,  19073 MiB Core
         ---------------------------------------------------------

  ==> Geometry <==

    Molecular point group: c1
    Full point group: C1

    Geometry (in Angstrom), charge = 0, multiplicity = 1:

       Center              X                  Y                   Z               Mass       
    ------------   -----------------  -----------------  -----------------  -----------------
      Gh(N)          -0.051232162913    -0.977304388664    -1.053060919455    14.003074004430
      Gh(H)          -0.053582162913    -1.987914388664    -1.037200919455     1.007825032230
      Gh(C)          -1.309172162913    -0.359104388664    -1.082990919455    12.000000000000
      Gh(O)          -2.327582162913    -1.029774388664    -1.092850919455    15.994914619570
      Gh(C)          -1.237182162913     1.090825611336    -1.099240919455    12.000000000000
      Gh(H)          -2.153102162913     1.654235611336    -1.141790919455     1.007825032230
      Gh(C)          -0.035552162913     1.700615611336    -1.053320919455    12.000000000000
      Gh(H)           0.070007837087     2.775255611336    -1.055140919455     1.007825032230
      Gh(N)           1.134167837087     0.993055611336    -0.995180919455    14.003074004430
      Gh(H)           2.023357837087     1.459545611336    -0.931330919455     1.007825032230
      Gh(C)           1.192827837087    -0.389054388664    -0.971240919455    12.000000000000
      Gh(O)           2.236037837087    -1.008414388664    -0.892830919455    15.994914619570
         C            0.774407837087     0.089885611336     4.130919080545    12.000000000000
         H            1.291527837087    -0.781094388664     3.753689080545     1.007825032230
         H            1.380017837087     0.876885611336     4.558229080545     1.007825032230
         C           -0.554362162913     0.190475611336     4.081669080545    12.000000000000
         H           -1.166372162913    -0.597004388664     3.664769080545     1.007825032230
         H           -1.066192162913     1.061545611336     4.465669080545     1.007825032230

  Running in c1 symmetry.

  Rotational constants: A =      0.04255  B =      0.02317  C =      0.01961 [cm^-1]
  Rotational constants: A =   1275.56691  B =    694.72935  C =    587.88119 [MHz]
  Nuclear repulsion =   33.404157092533652

  Charge       = 0
  Multiplicity = 1
  Electrons    = 16
  Nalpha       = 8
  Nbeta        = 8

  ==> Algorithm <==

  SCF Algorithm Type is DF.
  DIIS enabled.
  MOM disabled.
  Fractional occupation disabled.
  Guess Type is SAD.
  Energy threshold   = 1.00e-08
  Density threshold  = 1.00e-08
  Integral threshold = 0.00e+00

  ==> Primary Basis <==

  Basis Set: AUG-CC-PVDZ
    Blend: AUG-CC-PVDZ
    Number of shells: 130
    Number of basis function: 302
    Number of Cartesian functions: 322
    Spherical Harmonics?: true
    Max angular momentum: 2

   => Loading Basis Set <=

    Name: (AUG-CC-PVDZ AUX)
    Role: JKFIT
    Keyword: DF_BASIS_SCF
    atoms 1, 9                      entry N          line   212 file /home/liuchw/anaconda3/envs/psi4env/share/psi4/basis/aug-cc-pvdz-jkfit.gbs 
    atoms 2, 6, 8, 10, 14-15, 17-18 entry H          line    70 file /home/liuchw/anaconda3/envs/psi4env/share/psi4/basis/aug-cc-pvdz-jkfit.gbs 
    atoms 3, 5, 7, 11, 13, 16       entry C          line   154 file /home/liuchw/anaconda3/envs/psi4env/share/psi4/basis/aug-cc-pvdz-jkfit.gbs 
    atoms 4, 12                     entry O          line   270 file /home/liuchw/anaconda3/envs/psi4env/share/psi4/basis/aug-cc-pvdz-jkfit.gbs 

  ==> Pre-Iterations <==

   -------------------------------------------------------
    Irrep   Nso     Nmo     Nalpha   Nbeta   Ndocc  Nsocc
   -------------------------------------------------------
     A        302     302       0       0       0       0
   -------------------------------------------------------
    Total     302     302       8       8       8       0
   -------------------------------------------------------

  ==> Integral Setup <==

  ==> DiskDFJK: Density-Fitted J/K Matrices <==

    J tasked:                  Yes
    K tasked:                  Yes
    wK tasked:                  No
    OpenMP threads:              8
    Integrals threads:           8
    Memory [MiB]:            14305
    Algorithm:                Core
    Integral Cache:           LOAD
    Schwarz Cutoff:          1E-12
    Fitting Condition:       1E-10

   => Auxiliary Basis Set <=

  Basis Set: (AUG-CC-PVDZ AUX)
    Blend: AUG-CC-PVDZ-JKFIT
    Number of shells: 376
    Number of basis function: 1116
    Number of Cartesian functions: 1290
    Spherical Harmonics?: true
    Max angular momentum: 3

  Minimum eigenvalue in the overlap matrix is 1.5285353487E-05.
  Using Symmetric Orthogonalization.

  SCF Guess: Superposition of Atomic Densities via on-the-fly atomic UHF.

  ==> Iterations <==

                           Total Energy        Delta E     RMS |[F,P]|

   @DF-RHF iter SAD:   -77.25757725918392   -7.72576e+01   0.00000e+00 
   @DF-RHF iter   1:   -77.96639896832880   -7.08822e-01   1.15338e-03 DIIS
   @DF-RHF iter   2:   -78.03243180740228   -6.60328e-02   4.57139e-04 DIIS
   @DF-RHF iter   3:   -78.04303938383579   -1.06076e-02   7.28333e-05 DIIS
   @DF-RHF iter   4:   -78.04356996137579   -5.30578e-04   6.82467e-06 DIIS
   @DF-RHF iter   5:   -78.04357515609098   -5.19472e-06   7.48015e-07 DIIS
   @DF-RHF iter   6:   -78.04357522650704   -7.04161e-08   9.35019e-08 DIIS
   @DF-RHF iter   7:   -78.04357522747044   -9.63396e-10   1.62254e-08 DIIS
   @DF-RHF iter   8:   -78.04357522749575   -2.53095e-11   6.62435e-09 DIIS
  Energy and wave function converged.


  ==> Post-Iterations <==

    Orbital Energies [Eh]
    ---------------------

    Doubly Occupied:                                                      

       1A    -11.239184     2A    -11.237514     3A     -1.036456  
       4A     -0.794575     5A     -0.644370     6A     -0.587689  
       7A     -0.507802     8A     -0.376428  

    Virtual:                                                              

       9A      0.022759    10A      0.038341    11A      0.038754  
      12A      0.046072    13A      0.057254    14A      0.061181  
      15A      0.064844    16A      0.067366    17A      0.084653  
      18A      0.085666    19A      0.087163    20A      0.102978  
      21A      0.106624    22A      0.121923    23A      0.124486  
      24A      0.125415    25A      0.127075    26A      0.130390  
      27A      0.144215    28A      0.147311    29A      0.151384  
      30A      0.157313    31A      0.168926    32A      0.170670  
      33A      0.178221    34A      0.179672    35A      0.186158  
      36A      0.191523    37A      0.204029    38A      0.207075  
      39A      0.209135    40A      0.214981    41A      0.217854  
      42A      0.222159    43A      0.223593    44A      0.232538  
      45A      0.241958    46A      0.252373    47A      0.267066  
      48A      0.271468    49A      0.285999    50A      0.290235  
      51A      0.295681    52A      0.300734    53A      0.303397  
      54A      0.312256    55A      0.318714    56A      0.325167  
      57A      0.330097    58A      0.337150    59A      0.352522  
      60A      0.374788    61A      0.381490    62A      0.404301  
      63A      0.409256    64A      0.415340    65A      0.425097  
      66A      0.427646    67A      0.430932    68A      0.445797  
      69A      0.453229    70A      0.457413    71A      0.471362  
      72A      0.477284    73A      0.485636    74A      0.493230  
      75A      0.496146    76A      0.500489    77A      0.508106  
      78A      0.511744    79A      0.522025    80A      0.537196  
      81A      0.538927    82A      0.542809    83A      0.544943  
      84A      0.561125    85A      0.563236    86A      0.564342  
      87A      0.574014    88A      0.585134    89A      0.590854  
      90A      0.602983    91A      0.605784    92A      0.610689  
      93A      0.622465    94A      0.623410    95A      0.629151  
      96A      0.630411    97A      0.634649    98A      0.642020  
      99A      0.647857   100A      0.654781   101A      0.661934  
     102A      0.664355   103A      0.681623   104A      0.687156  
     105A      0.703438   106A      0.714338   107A      0.724628  
     108A      0.730744   109A      0.733489   110A      0.740922  
     111A      0.755772   112A      0.762049   113A      0.785208  
     114A      0.802016   115A      0.810282   116A      0.815577  
     117A      0.830287   118A      0.836491   119A      0.850444  
     120A      0.862170   121A      0.873038   122A      0.883834  
     123A      0.898731   124A      0.902607   125A      0.910861  
     126A      0.914996   127A      0.930332   128A      0.933777  
     129A      0.945219   130A      0.995903   131A      1.007598  
     132A      1.019375   133A      1.023472   134A      1.038811  
     135A      1.062436   136A      1.081410   137A      1.091180  
     138A      1.111455   139A      1.119213   140A      1.128658  
     141A      1.141473   142A      1.167100   143A      1.178643  
     144A      1.193913   145A      1.216454   146A      1.219034  
     147A      1.223589   148A      1.229808   149A      1.232906  
     150A      1.247308   151A      1.263793   152A      1.270896  
     153A      1.288368   154A      1.298759   155A      1.305201  
     156A      1.330604   157A      1.345160   158A      1.365740  
     159A      1.369701   160A      1.383395   161A      1.389332  
     162A      1.422201   163A      1.433579   164A      1.456743  
     165A      1.460056   166A      1.465255   167A      1.467906  
     168A      1.505168   169A      1.512471   170A      1.529626  
     171A      1.541711   172A      1.556368   173A      1.574697  
     174A      1.579682   175A      1.600694   176A      1.620602  
     177A      1.660713   178A      1.666162   179A      1.689615  
     180A      1.740947   181A      1.753139   182A      1.783400  
     183A      1.798556   184A      1.818077   185A      1.855897  
     186A      1.882394   187A      1.900556   188A      1.967170  
     189A      1.976943   190A      2.026762   191A      2.073947  
     192A      2.102734   193A      2.123694   194A      2.128445  
     195A      2.134663   196A      2.171015   197A      2.175576  
     198A      2.180794   199A      2.214398   200A      2.217696  
     201A      2.259877   202A      2.265834   203A      2.283553  
     204A      2.313978   205A      2.394844   206A      2.417435  
     207A      2.420027   208A      2.437119   209A      2.469902  
     210A      2.482387   211A      2.488406   212A      2.508194  
     213A      2.533656   214A      2.545364   215A      2.549786  
     216A      2.561481   217A      2.619787   218A      2.647898  
     219A      2.650249   220A      2.664206   221A      2.683304  
     222A      2.713148   223A      2.755491   224A      2.771457  
     225A      2.807568   226A      2.814768   227A      2.817272  
     228A      2.824849   229A      2.897928   230A      2.901154  
     231A      2.910269   232A      2.971035   233A      3.038479  
     234A      3.043874   235A      3.094535   236A      3.166645  
     237A      3.187275   238A      3.273203   239A      3.326357  
     240A      3.336269   241A      3.432660   242A      3.459559  
     243A      3.467188   244A      3.497158   245A      3.502752  
     246A      3.514224   247A      3.594425   248A      3.612337  
     249A      3.650576   250A      3.668947   251A      3.717002  
     252A      3.760377   253A      3.777652   254A      3.807490  
     255A      3.861167   256A      3.902827   257A      3.928463  
     258A      4.063278   259A      4.128120   260A      4.187562  
     261A      4.342109   262A      4.417028   263A      4.463275  
     264A      4.546852   265A      4.608790   266A      4.665462  
     267A      4.687937   268A      4.744763   269A      4.759116  
     270A      4.918789   271A      4.970171   272A      5.007075  
     273A      5.014787   274A      5.037467   275A      5.060796  
     276A      5.074086   277A      5.113897   278A      5.195034  
     279A      5.319550   280A      5.420608   281A      5.481544  
     282A      5.686056   283A      5.771109   284A      5.901473  
     285A      5.968302   286A      5.976084   287A      6.051860  
     288A      6.064408   289A      6.118906   290A      6.224836  
     291A      6.385019   292A      6.507099   293A      7.032566  
     294A      7.308367   295A     18.168195   296A     18.733000  
     297A     18.798576   298A     19.511511   299A     25.456491  
     300A     25.461621   301A     33.536931   302A     33.546755  

    Final Occupation by Irrep:
              A 
    DOCC [     8 ]

  @DF-RHF Final Energy:   -78.04357522749575

   => Energetics <=

    Nuclear Repulsion Energy =             33.4041570925336515
    One-Electron Energy =                -170.0474273495497073
    Two-Electron Energy =                  58.5996950295203192
    Total Energy =                        -78.0435752274957508

Computation Completed


Properties will be evaluated at   0.000000,   0.000000,   0.000000 [a0]

Properties computed using the SCF density matrix

  Nuclear Dipole Moment: [e a0]
     X:     3.3245      Y:     4.2377      Z:   124.1888

  Electronic Dipole Moment: [e a0]
     X:    -3.3248      Y:    -4.2379      Z:  -124.1837

  Dipole Moment: [e a0]
     X:    -0.0003      Y:    -0.0002      Z:     0.0051     Total:     0.0052

  Dipole Moment: [D]
     X:    -0.0007      Y:    -0.0006      Z:     0.0131     Total:     0.0131


*** tstop() called on node93.bme.utexas.edu at Thu Apr 23 17:22:46 2020
Module time:
	user time   =      22.89 seconds =       0.38 minutes
	system time =       0.64 seconds =       0.01 minutes
	total time  =          4 seconds =       0.07 minutes
Total time:
	user time   =     137.03 seconds =       2.28 minutes
	system time =       3.45 seconds =       0.06 minutes
	total time  =         21 seconds =       0.35 minutes
  Constructing Basis Sets for SAPT...

   => Loading Basis Set <=

    Name: (AUG-CC-PVDZ AUX)
    Role: RIFIT
    Keyword: DF_BASIS_SAPT
    atoms 1, 9                      entry N          line   158 file /home/liuchw/anaconda3/envs/psi4env/share/psi4/basis/aug-cc-pvdz-ri.gbs 
    atoms 2, 6, 8, 10, 14-15, 17-18 entry H          line    30 file /home/liuchw/anaconda3/envs/psi4env/share/psi4/basis/aug-cc-pvdz-ri.gbs 
    atoms 3, 5, 7, 11, 13, 16       entry C          line   112 file /home/liuchw/anaconda3/envs/psi4env/share/psi4/basis/aug-cc-pvdz-ri.gbs 
    atoms 4, 12                     entry O          line   204 file /home/liuchw/anaconda3/envs/psi4env/share/psi4/basis/aug-cc-pvdz-ri.gbs 


  //>>>>>>>>>>>>>>>>>>>>>>>>>>>>>>>>>>>//
  //               SAPT2+              //
  //<<<<<<<<<<<<<<<<<<<<<<<<<<<<<<<<<<<//


*** tstart() called on node93.bme.utexas.edu
*** at Thu Apr 23 17:22:46 2020

        SAPT2+  
    Ed Hohenstein
     6 June 2009

      Orbital Information
  --------------------------
    NSO        =       302
    NMO        =       302
    NRI        =       904
    NOCC A     =        29
    NOCC B     =         8
    FOCC A     =         8
    FOCC B     =         2
    NVIR A     =       273
    NVIR B     =       294

    Estimated memory usage: 2369.7 MB

    Natural Orbital Cutoff:   1.000E-06
    Disp(T3) Truncation:            Yes
    CCD (vv|vv) Truncation:         Yes
    MBPT T2 Truncation:             Yes

    Monomer A: 91 virtual orbitals dropped
    Monomer B: 224 virtual orbitals dropped

    Elst10,r            =    -0.000575451130 [Eh]
    Exch10 (S^2)        =     0.000036580497 [Eh]
    Exch10              =     0.000036582648 [Eh]
    Ind20,r (A<-B)      =    -0.000010681706 [Eh]
    Ind20,r (B<-A)      =    -0.000047012261 [Eh]
    Ind20,r             =    -0.000057693967 [Eh]
    Exch-Ind20,r (A<-B) =     0.000001035214 [Eh]
    Exch-Ind20,r (B<-A) =     0.000018424283 [Eh]
    Exch-Ind20,r        =     0.000019459496 [Eh]
    Disp20              =    -0.000783519538 [Eh]
    Disp20 (NO)         =    -0.000751734299 [Eh]
    Exch-Disp20         =     0.000009330884 [Eh]
    Elst12,r            =     0.000192610917 [Eh]
    Exch11              =     0.000000447016 [Eh]
    Exch12              =    -0.000000030280 [Eh]
    Ind22               =     0.000013499820 [Eh]
    Disp21              =     0.000183879755 [Eh]
    Disp22 (SDQ)        =     0.000014681457 [Eh]

    (i =   1 of   6)         22 seconds
    (i =   2 of   6)         43 seconds
    (i =   3 of   6)         65 seconds
    (i =   4 of   6)         87 seconds
    (i =   5 of   6)        109 seconds
    (i =   6 of   6)        131 seconds

    Disp220 (T)         =    -0.000088184450 [Eh]

    (i =   1 of  21)          1 seconds
    (i =   2 of  21)          2 seconds
    (i =   3 of  21)          3 seconds
    (i =   4 of  21)          4 seconds
    (i =   5 of  21)          5 seconds
    (i =   6 of  21)          6 seconds
    (i =   7 of  21)          7 seconds
    (i =   8 of  21)          8 seconds
    (i =   9 of  21)          9 seconds
    (i =  10 of  21)         10 seconds
    (i =  11 of  21)         11 seconds
    (i =  12 of  21)         11 seconds
    (i =  13 of  21)         12 seconds
    (i =  14 of  21)         13 seconds
    (i =  15 of  21)         14 seconds
    (i =  16 of  21)         15 seconds
    (i =  17 of  21)         16 seconds
    (i =  18 of  21)         17 seconds
    (i =  19 of  21)         18 seconds
    (i =  20 of  21)         19 seconds
    (i =  21 of  21)         20 seconds

    Disp202 (T)         =    -0.000055075391 [Eh]

    Disp22 (T)          =    -0.000143259841 [Eh]

    Est. Disp220 (T)    =    -0.000091913113 [Eh]
    Est. Disp202 (T)    =    -0.000057404119 [Eh]

    Est. Disp22 (T)     =    -0.000149317232 [Eh]

    SAPT Results 
  --------------------------------------------------------------------------------------------------------
    Electrostatics                 -0.38284021 [mEh]      -0.24023586 [kcal/mol]      -1.00514684 [kJ/mol]
      Elst10,r                     -0.57545113 [mEh]      -0.36110104 [kcal/mol]      -1.51084673 [kJ/mol]
      Elst12,r                      0.19261092 [mEh]       0.12086518 [kcal/mol]       0.50569989 [kJ/mol]

    Exchange                        0.03699938 [mEh]       0.02321746 [kcal/mol]       0.09714187 [kJ/mol]
      Exch10                        0.03658265 [mEh]       0.02295596 [kcal/mol]       0.09604773 [kJ/mol]
      Exch10(S^2)                   0.03658050 [mEh]       0.02295461 [kcal/mol]       0.09604208 [kJ/mol]
      Exch11(S^2)                   0.00044702 [mEh]       0.00028051 [kcal/mol]       0.00117364 [kJ/mol]
      Exch12(S^2)                  -0.00003028 [mEh]      -0.00001900 [kcal/mol]      -0.00007950 [kJ/mol]

    Induction                      -0.03143769 [mEh]      -0.01972745 [kcal/mol]      -0.08253964 [kJ/mol]
      Ind20,r                      -0.05769397 [mEh]      -0.03620351 [kcal/mol]      -0.15147549 [kJ/mol]
      Ind22                         0.01349982 [mEh]       0.00847126 [kcal/mol]       0.03544377 [kJ/mol]
      Exch-Ind20,r                  0.01945950 [mEh]       0.01221102 [kcal/mol]       0.05109090 [kJ/mol]
      Exch-Ind22                   -0.00455333 [mEh]      -0.00285726 [kcal/mol]      -0.01195477 [kJ/mol]
      delta HF,r (2)               -0.00214971 [mEh]      -0.00134896 [kcal/mol]      -0.00564405 [kJ/mol]

    Dispersion                     -0.72494467 [mEh]      -0.45490965 [kcal/mol]      -1.90334198 [kJ/mol]
      Disp20                       -0.78351954 [mEh]      -0.49166593 [kcal/mol]      -2.05713026 [kJ/mol]
      Disp21                        0.18387975 [mEh]       0.11538629 [kcal/mol]       0.48277623 [kJ/mol]
      Disp22 (SDQ)                  0.01468146 [mEh]       0.00921275 [kcal/mol]       0.03854616 [kJ/mol]
      Disp22 (T)                   -0.14325984 [mEh]      -0.08989691 [kcal/mol]      -0.37612866 [kJ/mol]
      Est. Disp22 (T)              -0.14931723 [mEh]      -0.09369798 [kcal/mol]      -0.39203234 [kJ/mol]
      Exch-Disp20                   0.00933088 [mEh]       0.00585522 [kcal/mol]       0.02449823 [kJ/mol]

  Total HF                         -0.57925266 [mEh]      -0.36348653 [kcal/mol]      -1.52082765 [kJ/mol]
  Total SAPT0                      -1.35344131 [mEh]      -0.84929725 [kcal/mol]      -3.55345968 [kJ/mol]
  Total SAPT2                      -1.15146717 [mEh]      -0.72255656 [kcal/mol]      -3.02317664 [kJ/mol]
  Total SAPT2+                     -1.10222319 [mEh]      -0.69165549 [kcal/mol]      -2.89388659 [kJ/mol]

  Special recipe for scaled SAPT0 (see Manual):
    Electrostatics sSAPT0          -0.57545113 [mEh]      -0.36110104 [kcal/mol]      -1.51084673 [kJ/mol]
    Exchange sSAPT0                 0.03658265 [mEh]       0.02295596 [kcal/mol]       0.09604773 [kJ/mol]
    Induction sSAPT0               -0.04038074 [mEh]      -0.02533930 [kcal/mol]      -0.10601962 [kJ/mol]
    Dispersion sSAPT0              -0.77418701 [mEh]      -0.48580968 [kcal/mol]      -2.03262771 [kJ/mol]
  Total sSAPT0                     -1.35343623 [mEh]      -0.84929406 [kcal/mol]      -3.55344634 [kJ/mol]
  --------------------------------------------------------------------------------------------------------

*** tstop() called on node93.bme.utexas.edu at Thu Apr 23 17:27:18 2020
Module time:
	user time   =    2021.38 seconds =      33.69 minutes
	system time =      39.86 seconds =       0.66 minutes
	total time  =        272 seconds =       4.53 minutes
Total time:
	user time   =    2159.51 seconds =      35.99 minutes
	system time =      43.36 seconds =       0.72 minutes
	total time  =        293 seconds =       4.88 minutes

    Psi4 stopped on: Thursday, 23 April 2020 05:27PM
    Psi4 wall time for execution: 0:04:53.33

*** Psi4 exiting successfully. Buy a developer a beer!
