
    -----------------------------------------------------------------------
          Psi4: An Open-Source Ab Initio Electronic Structure Package
                               Psi4 1.4a2.dev224 

                         Git: Rev {master} e453b16 


    R. M. Parrish, L. A. Burns, D. G. A. Smith, A. C. Simmonett,
    A. E. DePrince III, E. G. Hohenstein, U. Bozkaya, A. Yu. Sokolov,
    R. Di Remigio, R. M. Richard, J. F. Gonthier, A. M. James,
    H. R. McAlexander, A. Kumar, M. Saitow, X. Wang, B. P. Pritchard,
    P. Verma, H. F. Schaefer III, K. Patkowski, R. A. King, E. F. Valeev,
    F. A. Evangelista, J. M. Turney, T. D. Crawford, and C. D. Sherrill,
    J. Chem. Theory Comput. 13(7) pp 3185--3197 (2017).
    (doi: 10.1021/acs.jctc.7b00174)


                         Additional Contributions by
    P. Kraus, H. Kruse, M. H. Lechner, M. C. Schieber, R. A. Shaw,
    A. Alenaizan, R. Galvelis, Z. L. Glick, S. Lehtola, and J. P. Misiewicz

    -----------------------------------------------------------------------


    Psi4 started on: Thursday, 23 April 2020 05:20PM

    Process ID: 44203
    Host:       node97.bme.utexas.edu
    PSIDATADIR: /home/liuchw/anaconda3/envs/psi4env/share/psi4
    Memory:     500.0 MiB
    Threads:    8
    
  ==> Input File <==

--------------------------------------------------------------------------
#Generated by lconvert.py for sapt job

memory 20 GB

molecule  {
0 1
  N       1.381380   -0.000230    0.131460
  C       0.679350   -1.140240    0.092080
  H       1.258720   -2.054960    0.125880
  C      -0.709720   -1.193110    0.006660
  H      -1.214090   -2.148560   -0.025310
  C      -1.421610    0.000130   -0.040820
  H      -2.500700    0.000260   -0.109170
  C      -0.709400    1.193180    0.006520
  H      -1.213510    2.148750   -0.025530
  C       0.679650    1.139960    0.091890
  H       1.259260    2.054510    0.125500
--
0 1
  C       0.036500    0.666520    5.364150
  H       0.946970    1.226010    5.205030
  H      -0.873050    1.228930    5.521110
  C       0.036830   -0.666170    5.364280
  H       0.947570   -1.225250    5.205270
  H      -0.872460   -1.228990    5.521370
units angstrom
no_reorient
symmetry c1
}

set {
scf_type DF
basis aug-cc-pvdz
freeze_core True
guess SAD
}
energy('sapt2+')
--------------------------------------------------------------------------

  Memory set to  18.626 GiB by Python driver.

Scratch directory: /scratch/liuchw/

  //>>>>>>>>>>>>>>>>>>>>>>>>>>>>>>>>>>>//
  //              Dimer HF             //
  //<<<<<<<<<<<<<<<<<<<<<<<<<<<<<<<<<<<//


*** tstart() called on node97.bme.utexas.edu
*** at Thu Apr 23 17:20:35 2020

   => Loading Basis Set <=

    Name: AUG-CC-PVDZ
    Role: ORBITAL
    Keyword: BASIS
    atoms 1                            entry N          line   218 file /home/liuchw/anaconda3/envs/psi4env/share/psi4/basis/aug-cc-pvdz.gbs 
    atoms 2, 4, 6, 8, 10, 12, 15       entry C          line   182 file /home/liuchw/anaconda3/envs/psi4env/share/psi4/basis/aug-cc-pvdz.gbs 
    atoms 3, 5, 7, 9, 11, 13-14, 16-17 entry H          line    40 file /home/liuchw/anaconda3/envs/psi4env/share/psi4/basis/aug-cc-pvdz.gbs 


         ---------------------------------------------------------
                                   SCF
               by Justin Turney, Rob Parrish, Andy Simmonett
                          and Daniel G. A. Smith
                              RHF Reference
                        8 Threads,  19073 MiB Core
         ---------------------------------------------------------

  ==> Geometry <==

    Molecular point group: c1
    Full point group: C1

    Geometry (in Angstrom), charge = 0, multiplicity = 1:

       Center              X                  Y                   Z               Mass       
    ------------   -----------------  -----------------  -----------------  -----------------
         N            1.379850380606    -0.000236768906    -1.308398590525    14.003074004430
         C            0.677820380606    -1.140246768906    -1.347778590525    12.000000000000
         H            1.257190380606    -2.054966768906    -1.313978590525     1.007825032230
         C           -0.711249619394    -1.193116768906    -1.433198590525    12.000000000000
         H           -1.215619619394    -2.148566768906    -1.465168590525     1.007825032230
         C           -1.423139619394     0.000123231094    -1.480678590525    12.000000000000
         H           -2.502229619394     0.000253231094    -1.549028590525     1.007825032230
         C           -0.710929619394     1.193173231094    -1.433338590525    12.000000000000
         H           -1.215039619394     2.148743231094    -1.465388590525     1.007825032230
         C            0.678120380606     1.139953231094    -1.347968590525    12.000000000000
         H            1.257730380606     2.054503231094    -1.314358590525     1.007825032230
         C            0.034970380606     0.666513231094     3.924291409475    12.000000000000
         H            0.945440380606     1.226003231094     3.765171409475     1.007825032230
         H           -0.874579619394     1.228923231094     4.081251409475     1.007825032230
         C            0.035300380606    -0.666176768906     3.924421409475    12.000000000000
         H            0.946040380606    -1.225256768906     3.765411409475     1.007825032230
         H           -0.873989619394    -1.228996768906     4.081511409475     1.007825032230

  Running in c1 symmetry.

  Rotational constants: A =      0.08887  B =      0.02497  C =      0.02460 [cm^-1]
  Rotational constants: A =   2664.30670  B =    748.53306  C =    737.47069 [MHz]
  Nuclear repulsion =  303.182098680574825

  Charge       = 0
  Multiplicity = 1
  Electrons    = 58
  Nalpha       = 29
  Nbeta        = 29

  ==> Algorithm <==

  SCF Algorithm Type is DF.
  DIIS enabled.
  MOM disabled.
  Fractional occupation disabled.
  Guess Type is SAD.
  Energy threshold   = 1.00e-08
  Density threshold  = 1.00e-08
  Integral threshold = 0.00e+00

  ==> Primary Basis <==

  Basis Set: AUG-CC-PVDZ
    Blend: AUG-CC-PVDZ
    Number of shells: 117
    Number of basis function: 265
    Number of Cartesian functions: 281
    Spherical Harmonics?: true
    Max angular momentum: 2

   => Loading Basis Set <=

    Name: (AUG-CC-PVDZ AUX)
    Role: JKFIT
    Keyword: DF_BASIS_SCF
    atoms 1                            entry N          line   212 file /home/liuchw/anaconda3/envs/psi4env/share/psi4/basis/aug-cc-pvdz-jkfit.gbs 
    atoms 2, 4, 6, 8, 10, 12, 15       entry C          line   154 file /home/liuchw/anaconda3/envs/psi4env/share/psi4/basis/aug-cc-pvdz-jkfit.gbs 
    atoms 3, 5, 7, 9, 11, 13-14, 16-17 entry H          line    70 file /home/liuchw/anaconda3/envs/psi4env/share/psi4/basis/aug-cc-pvdz-jkfit.gbs 

  ==> Pre-Iterations <==

   -------------------------------------------------------
    Irrep   Nso     Nmo     Nalpha   Nbeta   Ndocc  Nsocc
   -------------------------------------------------------
     A        265     265       0       0       0       0
   -------------------------------------------------------
    Total     265     265      29      29      29       0
   -------------------------------------------------------

  ==> Integral Setup <==

  ==> DiskDFJK: Density-Fitted J/K Matrices <==

    J tasked:                  Yes
    K tasked:                  Yes
    wK tasked:                  No
    OpenMP threads:              8
    Integrals threads:           8
    Memory [MiB]:            14305
    Algorithm:                Core
    Integral Cache:           SAVE
    Schwarz Cutoff:          1E-12
    Fitting Condition:       1E-10

   => Auxiliary Basis Set <=

  Basis Set: (AUG-CC-PVDZ AUX)
    Blend: AUG-CC-PVDZ-JKFIT
    Number of shells: 332
    Number of basis function: 976
    Number of Cartesian functions: 1123
    Spherical Harmonics?: true
    Max angular momentum: 3

  Minimum eigenvalue in the overlap matrix is 1.1126022638E-05.
  Using Symmetric Orthogonalization.

  SCF Guess: Superposition of Atomic Densities via on-the-fly atomic UHF.

  ==> Iterations <==

                           Total Energy        Delta E     RMS |[F,P]|

   @DF-RHF iter SAD:  -323.37982994618847   -3.23380e+02   0.00000e+00 
   @DF-RHF iter   1:  -324.54785983634258   -1.16803e+00   2.20153e-03 DIIS
   @DF-RHF iter   2:  -324.73208643602220   -1.84227e-01   9.56653e-04 DIIS
   @DF-RHF iter   3:  -324.76535499268903   -3.32686e-02   1.78711e-04 DIIS
   @DF-RHF iter   4:  -324.76717303329065   -1.81804e-03   5.80360e-05 DIIS
   @DF-RHF iter   5:  -324.76729366769536   -1.20634e-04   1.46815e-05 DIIS
   @DF-RHF iter   6:  -324.76730390673964   -1.02390e-05   4.41813e-06 DIIS
   @DF-RHF iter   7:  -324.76730489649970   -9.89760e-07   1.26556e-06 DIIS
   @DF-RHF iter   8:  -324.76730501484371   -1.18344e-07   5.21399e-07 DIIS
   @DF-RHF iter   9:  -324.76730504190920   -2.70655e-08   2.20118e-07 DIIS
   @DF-RHF iter  10:  -324.76730504796376   -6.05456e-09   8.05999e-08 DIIS
   @DF-RHF iter  11:  -324.76730504933926   -1.37550e-09   2.93492e-08 DIIS
   @DF-RHF iter  12:  -324.76730504951814   -1.78886e-10   8.58977e-09 DIIS
  Energy and wave function converged.


  ==> Post-Iterations <==

    Orbital Energies [Eh]
    ---------------------

    Doubly Occupied:                                                      

       1A    -15.574168     2A    -11.280370     3A    -11.280351  
       4A    -11.264971     5A    -11.247102     6A    -11.247050  
       7A    -11.235538     8A    -11.233861     9A     -1.259167  
      10A     -1.091706    11A     -1.034864    12A     -1.033485  
      13A     -0.859917    14A     -0.856769    15A     -0.790959  
      16A     -0.721607    17A     -0.660368    18A     -0.653698  
      19A     -0.641840    20A     -0.597345    21A     -0.583855  
      22A     -0.576573    23A     -0.539590    24A     -0.518675  
      25A     -0.504920    26A     -0.418210    27A     -0.382416  
      28A     -0.373069    29A     -0.345963  

    Virtual:                                                              

      30A      0.031225    31A      0.038549    32A      0.043513  
      33A      0.049696    34A      0.056520    35A      0.059172  
      36A      0.059226    37A      0.067519    38A      0.079056  
      39A      0.090779    40A      0.107492    41A      0.109608  
      42A      0.113287    43A      0.119934    44A      0.127617  
      45A      0.129520    46A      0.135226    47A      0.142187  
      48A      0.144680    49A      0.146846    50A      0.153102  
      51A      0.156421    52A      0.157403    53A      0.162004  
      54A      0.170984    55A      0.179372    56A      0.183903  
      57A      0.186361    58A      0.188232    59A      0.193096  
      60A      0.200578    61A      0.207201    62A      0.209574  
      63A      0.213514    64A      0.224422    65A      0.235224  
      66A      0.238236    67A      0.278265    68A      0.287231  
      69A      0.292158    70A      0.297686    71A      0.303416  
      72A      0.306266    73A      0.310108    74A      0.332564  
      75A      0.343820    76A      0.344892    77A      0.347662  
      78A      0.353966    79A      0.368543    80A      0.371277  
      81A      0.376736    82A      0.386562    83A      0.396773  
      84A      0.414905    85A      0.418044    86A      0.422069  
      87A      0.425737    88A      0.432759    89A      0.436178  
      90A      0.436760    91A      0.445038    92A      0.465158  
      93A      0.468524    94A      0.483367    95A      0.492510  
      96A      0.498731    97A      0.518422    98A      0.535639  
      99A      0.543964   100A      0.550917   101A      0.552191  
     102A      0.560927   103A      0.568196   104A      0.570735  
     105A      0.571276   106A      0.577196   107A      0.577560  
     108A      0.592511   109A      0.597812   110A      0.605690  
     111A      0.609222   112A      0.614491   113A      0.621530  
     114A      0.630280   115A      0.634057   116A      0.643773  
     117A      0.645065   118A      0.668655   119A      0.676298  
     120A      0.677538   121A      0.690509   122A      0.690908  
     123A      0.695067   124A      0.695806   125A      0.706844  
     126A      0.713334   127A      0.727778   128A      0.728024  
     129A      0.735996   130A      0.741312   131A      0.741348  
     132A      0.746809   133A      0.768129   134A      0.775528  
     135A      0.778923   136A      0.810952   137A      0.818891  
     138A      0.821435   139A      0.854561   140A      0.855199  
     141A      0.862137   142A      0.865845   143A      0.890958  
     144A      0.898617   145A      0.900687   146A      0.908097  
     147A      0.911965   148A      0.921782   149A      0.928200  
     150A      0.958814   151A      0.963804   152A      0.973508  
     153A      0.987837   154A      1.002694   155A      1.022727  
     156A      1.032619   157A      1.035627   158A      1.074090  
     159A      1.092849   160A      1.105520   161A      1.108703  
     162A      1.141726   163A      1.145307   164A      1.196320  
     165A      1.200857   166A      1.242822   167A      1.252435  
     168A      1.268914   169A      1.291051   170A      1.309695  
     171A      1.356619   172A      1.398731   173A      1.411884  
     174A      1.454065   175A      1.459609   176A      1.464496  
     177A      1.526671   178A      1.538774   179A      1.543868  
     180A      1.554559   181A      1.568944   182A      1.570993  
     183A      1.593172   184A      1.610451   185A      1.620071  
     186A      1.620310   187A      1.666345   188A      1.668673  
     189A      1.682394   190A      1.695158   191A      1.697966  
     192A      1.718322   193A      1.751531   194A      1.753744  
     195A      1.776972   196A      1.778166   197A      1.788786  
     198A      1.798675   199A      1.806495   200A      1.833807  
     201A      1.855519   202A      1.858502   203A      1.900587  
     204A      1.916856   205A      1.924306   206A      1.953159  
     207A      1.956695   208A      1.962670   209A      1.968333  
     210A      2.028319   211A      2.047833   212A      2.056944  
     213A      2.072721   214A      2.075397   215A      2.113420  
     216A      2.117055   217A      2.129129   218A      2.129454  
     219A      2.131166   220A      2.153066   221A      2.166771  
     222A      2.175908   223A      2.182739   224A      2.202656  
     225A      2.206172   226A      2.240259   227A      2.268086  
     228A      2.288471   229A      2.306578   230A      2.362644  
     231A      2.364560   232A      2.392572   233A      2.438131  
     234A      2.451397   235A      2.473120   236A      2.483863  
     237A      2.497962   238A      2.554645   239A      2.623469  
     240A      2.641947   241A      2.649677   242A      2.686675  
     243A      2.704420   244A      2.745391   245A      2.787688  
     246A      2.808002   247A      2.831366   248A      2.832496  
     249A      2.855825   250A      2.897415   251A      2.912487  
     252A      2.977419   253A      2.986500   254A      3.003097  
     255A      3.121544   256A      3.135879   257A      3.139436  
     258A      3.271683   259A      3.403059   260A      3.404253  
     261A      3.442151   262A      3.501021   263A      3.630707  
     264A      3.671148   265A      4.291413  

    Final Occupation by Irrep:
              A 
    DOCC [    29 ]

  @DF-RHF Final Energy:  -324.76730504951814

   => Energetics <=

    Nuclear Repulsion Energy =            303.1820986805748248
    One-Electron Energy =               -1038.2819994858289192
    Two-Electron Energy =                 410.3325957557358947
    Total Energy =                       -324.7673050495181428

Computation Completed


Properties will be evaluated at   0.000000,   0.000000,   0.000000 [a0]

Properties computed using the SCF density matrix

  Nuclear Dipole Moment: [e a0]
     X:    -2.1368      Y:     0.0006      Z:     8.0524

  Electronic Dipole Moment: [e a0]
     X:     1.2230      Y:    -0.0005      Z:    -8.1100

  Dipole Moment: [e a0]
     X:    -0.9138      Y:     0.0001      Z:    -0.0576     Total:     0.9156

  Dipole Moment: [D]
     X:    -2.3226      Y:     0.0003      Z:    -0.1464     Total:     2.3272


*** tstop() called on node97.bme.utexas.edu at Thu Apr 23 17:20:42 2020
Module time:
	user time   =      46.68 seconds =       0.78 minutes
	system time =       1.24 seconds =       0.02 minutes
	total time  =          7 seconds =       0.12 minutes
Total time:
	user time   =      46.68 seconds =       0.78 minutes
	system time =       1.24 seconds =       0.02 minutes
	total time  =          7 seconds =       0.12 minutes

  //>>>>>>>>>>>>>>>>>>>>>>>>>>>>>>>>>>>//
  //            Monomer A HF           //
  //<<<<<<<<<<<<<<<<<<<<<<<<<<<<<<<<<<<//


*** tstart() called on node97.bme.utexas.edu
*** at Thu Apr 23 17:20:42 2020

   => Loading Basis Set <=

    Name: AUG-CC-PVDZ
    Role: ORBITAL
    Keyword: BASIS
    atoms 1                            entry N          line   218 file /home/liuchw/anaconda3/envs/psi4env/share/psi4/basis/aug-cc-pvdz.gbs 
    atoms 2, 4, 6, 8, 10, 12, 15       entry C          line   182 file /home/liuchw/anaconda3/envs/psi4env/share/psi4/basis/aug-cc-pvdz.gbs 
    atoms 3, 5, 7, 9, 11, 13-14, 16-17 entry H          line    40 file /home/liuchw/anaconda3/envs/psi4env/share/psi4/basis/aug-cc-pvdz.gbs 


         ---------------------------------------------------------
                                   SCF
               by Justin Turney, Rob Parrish, Andy Simmonett
                          and Daniel G. A. Smith
                              RHF Reference
                        8 Threads,  19073 MiB Core
         ---------------------------------------------------------

  ==> Geometry <==

    Molecular point group: c1
    Full point group: C1

    Geometry (in Angstrom), charge = 0, multiplicity = 1:

       Center              X                  Y                   Z               Mass       
    ------------   -----------------  -----------------  -----------------  -----------------
         N            1.379850380606    -0.000236768906    -1.308398590525    14.003074004430
         C            0.677820380606    -1.140246768906    -1.347778590525    12.000000000000
         H            1.257190380606    -2.054966768906    -1.313978590525     1.007825032230
         C           -0.711249619394    -1.193116768906    -1.433198590525    12.000000000000
         H           -1.215619619394    -2.148566768906    -1.465168590525     1.007825032230
         C           -1.423139619394     0.000123231094    -1.480678590525    12.000000000000
         H           -2.502229619394     0.000253231094    -1.549028590525     1.007825032230
         C           -0.710929619394     1.193173231094    -1.433338590525    12.000000000000
         H           -1.215039619394     2.148743231094    -1.465388590525     1.007825032230
         C            0.678120380606     1.139953231094    -1.347968590525    12.000000000000
         H            1.257730380606     2.054503231094    -1.314358590525     1.007825032230
      Gh(C)           0.034970380606     0.666513231094     3.924291409475    12.000000000000
      Gh(H)           0.945440380606     1.226003231094     3.765171409475     1.007825032230
      Gh(H)          -0.874579619394     1.228923231094     4.081251409475     1.007825032230
      Gh(C)           0.035300380606    -0.666176768906     3.924421409475    12.000000000000
      Gh(H)           0.946040380606    -1.225256768906     3.765411409475     1.007825032230
      Gh(H)          -0.873989619394    -1.228996768906     4.081511409475     1.007825032230

  Running in c1 symmetry.

  Rotational constants: A =      0.08887  B =      0.02497  C =      0.02460 [cm^-1]
  Rotational constants: A =   2664.30670  B =    748.53306  C =    737.47069 [MHz]
  Nuclear repulsion =  206.292363280122856

  Charge       = 0
  Multiplicity = 1
  Electrons    = 42
  Nalpha       = 21
  Nbeta        = 21

  ==> Algorithm <==

  SCF Algorithm Type is DF.
  DIIS enabled.
  MOM disabled.
  Fractional occupation disabled.
  Guess Type is SAD.
  Energy threshold   = 1.00e-08
  Density threshold  = 1.00e-08
  Integral threshold = 0.00e+00

  ==> Primary Basis <==

  Basis Set: AUG-CC-PVDZ
    Blend: AUG-CC-PVDZ
    Number of shells: 117
    Number of basis function: 265
    Number of Cartesian functions: 281
    Spherical Harmonics?: true
    Max angular momentum: 2

   => Loading Basis Set <=

    Name: (AUG-CC-PVDZ AUX)
    Role: JKFIT
    Keyword: DF_BASIS_SCF
    atoms 1                            entry N          line   212 file /home/liuchw/anaconda3/envs/psi4env/share/psi4/basis/aug-cc-pvdz-jkfit.gbs 
    atoms 2, 4, 6, 8, 10, 12, 15       entry C          line   154 file /home/liuchw/anaconda3/envs/psi4env/share/psi4/basis/aug-cc-pvdz-jkfit.gbs 
    atoms 3, 5, 7, 9, 11, 13-14, 16-17 entry H          line    70 file /home/liuchw/anaconda3/envs/psi4env/share/psi4/basis/aug-cc-pvdz-jkfit.gbs 

  ==> Pre-Iterations <==

   -------------------------------------------------------
    Irrep   Nso     Nmo     Nalpha   Nbeta   Ndocc  Nsocc
   -------------------------------------------------------
     A        265     265       0       0       0       0
   -------------------------------------------------------
    Total     265     265      21      21      21       0
   -------------------------------------------------------

  ==> Integral Setup <==

  ==> DiskDFJK: Density-Fitted J/K Matrices <==

    J tasked:                  Yes
    K tasked:                  Yes
    wK tasked:                  No
    OpenMP threads:              8
    Integrals threads:           8
    Memory [MiB]:            14305
    Algorithm:                Core
    Integral Cache:           LOAD
    Schwarz Cutoff:          1E-12
    Fitting Condition:       1E-10

   => Auxiliary Basis Set <=

  Basis Set: (AUG-CC-PVDZ AUX)
    Blend: AUG-CC-PVDZ-JKFIT
    Number of shells: 332
    Number of basis function: 976
    Number of Cartesian functions: 1123
    Spherical Harmonics?: true
    Max angular momentum: 3

  Minimum eigenvalue in the overlap matrix is 1.1126022638E-05.
  Using Symmetric Orthogonalization.

  SCF Guess: Superposition of Atomic Densities via on-the-fly atomic UHF.

  ==> Iterations <==

                           Total Energy        Delta E     RMS |[F,P]|

   @DF-RHF iter SAD:  -246.11597361631866   -2.46116e+02   0.00000e+00 
   @DF-RHF iter   1:  -246.58224475425851   -4.66271e-01   1.76178e-03 DIIS
   @DF-RHF iter   2:  -246.70028440627414   -1.18040e-01   7.96674e-04 DIIS
   @DF-RHF iter   3:  -246.72262778582899   -2.23434e-02   1.55352e-04 DIIS
   @DF-RHF iter   4:  -246.72392723029782   -1.29944e-03   4.74149e-05 DIIS
   @DF-RHF iter   5:  -246.72400599642626   -7.87661e-05   1.35704e-05 DIIS
   @DF-RHF iter   6:  -246.72401474895838   -8.75253e-06   3.31279e-06 DIIS
   @DF-RHF iter   7:  -246.72401541877861   -6.69820e-07   1.26083e-06 DIIS
   @DF-RHF iter   8:  -246.72401551978552   -1.01007e-07   5.02736e-07 DIIS
   @DF-RHF iter   9:  -246.72401554962445   -2.98389e-08   1.49899e-07 DIIS
   @DF-RHF iter  10:  -246.72401555325877   -3.63431e-09   5.55195e-08 DIIS
   @DF-RHF iter  11:  -246.72401555396397   -7.05199e-10   3.18685e-08 DIIS
   @DF-RHF iter  12:  -246.72401555411565   -1.51687e-10   8.26608e-09 DIIS
  Energy and wave function converged.


  ==> Post-Iterations <==

    Orbital Energies [Eh]
    ---------------------

    Doubly Occupied:                                                      

       1A    -15.575752     2A    -11.281919     3A    -11.281900  
       4A    -11.266620     5A    -11.248725     6A    -11.248673  
       7A     -1.260830     8A     -1.093389     9A     -1.036487  
      10A     -0.861504    11A     -0.858335    12A     -0.723149  
      13A     -0.661965    14A     -0.655178    15A     -0.598864  
      16A     -0.578137    17A     -0.541372    18A     -0.520173  
      19A     -0.419708    20A     -0.384165    21A     -0.347716  

    Virtual:                                                              

      22A      0.026098    23A      0.037947    24A      0.038504  
      25A      0.045062    26A      0.055928    27A      0.057811  
      28A      0.058210    29A      0.066567    30A      0.079129  
      31A      0.088402    32A      0.099313    33A      0.107578  
      34A      0.110637    35A      0.119915    36A      0.125018  
      37A      0.127208    38A      0.131495    39A      0.136341  
      40A      0.137043    41A      0.143806    42A      0.144717  
      43A      0.152219    44A      0.158393    45A      0.158683  
      46A      0.162823    47A      0.166616    48A      0.181051  
      49A      0.184556    50A      0.185652    51A      0.187572  
      52A      0.192847    53A      0.199181    54A      0.203236  
      55A      0.206262    56A      0.217309    57A      0.239496  
      58A      0.278874    59A      0.286458    60A      0.288658  
      61A      0.298406    62A      0.304959    63A      0.314178  
      64A      0.329482    65A      0.335026    66A      0.342396  
      67A      0.344453    68A      0.355762    69A      0.359712  
      70A      0.364961    71A      0.371058    72A      0.373958  
      73A      0.393408    74A      0.396758    75A      0.408361  
      76A      0.412169    77A      0.419425    78A      0.424825  
      79A      0.428593    80A      0.429819    81A      0.432863  
      82A      0.435192    83A      0.440626    84A      0.444639  
      85A      0.463309    86A      0.476579    87A      0.480526  
      88A      0.491994    89A      0.499368    90A      0.521918  
      91A      0.538893    92A      0.541319    93A      0.549963  
      94A      0.553308    95A      0.555313    96A      0.563436  
      97A      0.564113    98A      0.588035    99A      0.589126  
     100A      0.597460   101A      0.598819   102A      0.601673  
     103A      0.623249   104A      0.630617   105A      0.638224  
     106A      0.646443   107A      0.648461   108A      0.665069  
     109A      0.671775   110A      0.677618   111A      0.687594  
     112A      0.689357   113A      0.691647   114A      0.701391  
     115A      0.707015   116A      0.712073   117A      0.724909  
     118A      0.726863   119A      0.731167   120A      0.743961  
     121A      0.746393   122A      0.749198   123A      0.773202  
     124A      0.774920   125A      0.781674   126A      0.812724  
     127A      0.818885   128A      0.831934   129A      0.838099  
     130A      0.841178   131A      0.854360   132A      0.855973  
     133A      0.863567   134A      0.884799   135A      0.892095  
     136A      0.905674   137A      0.906602   138A      0.917311  
     139A      0.920712   140A      0.921770   141A      0.933992  
     142A      0.940059   143A      0.963278   144A      0.964783  
     145A      0.968384   146A      0.986224   147A      0.986372  
     148A      0.988467   149A      1.002963   150A      1.021800  
     151A      1.034335   152A      1.073317   153A      1.089302  
     154A      1.108124   155A      1.140637   156A      1.143906  
     157A      1.156492   158A      1.180901   159A      1.200305  
     160A      1.240943   161A      1.267603   162A      1.307574  
     163A      1.354987   164A      1.397154   165A      1.411507  
     166A      1.452723   167A      1.542001   168A      1.542431  
     169A      1.567522   170A      1.568740   171A      1.589644  
     172A      1.608975   173A      1.618166   174A      1.618913  
     175A      1.667801   176A      1.679253   177A      1.687351  
     178A      1.696502   179A      1.717300   180A      1.751019  
     181A      1.773024   182A      1.786044   183A      1.804548  
     184A      1.830535   185A      1.853663   186A      1.913840  
     187A      1.921382   188A      1.948298   189A      1.954409  
     190A      1.960276   191A      1.976879   192A      2.011914  
     193A      2.047986   194A      2.055317   195A      2.058571  
     196A      2.075067   197A      2.090727   198A      2.111155  
     199A      2.116768   200A      2.130998   201A      2.143244  
     202A      2.174745   203A      2.180637   204A      2.199496  
     205A      2.203550   206A      2.208943   207A      2.237867  
     208A      2.240979   209A      2.265526   210A      2.267298  
     211A      2.287040   212A      2.291351   213A      2.305037  
     214A      2.320167   215A      2.334771   216A      2.361394  
     217A      2.363489   218A      2.421639   219A      2.434871  
     220A      2.445246   221A      2.461189   222A      2.480888  
     223A      2.507171   224A      2.512131   225A      2.553112  
     226A      2.594080   227A      2.600237   228A      2.621348  
     229A      2.642047   230A      2.704009   231A      2.742905  
     232A      2.743671   233A      2.771636   234A      2.786380  
     235A      2.809938   236A      2.831187   237A      2.837102  
     238A      2.865918   239A      2.895848   240A      2.933931  
     241A      2.976334   242A      2.984953   243A      2.991059  
     244A      3.005101   245A      3.120032   246A      3.134438  
     247A      3.138040   248A      3.166392   249A      3.270196  
     250A      3.274224   251A      3.400917   252A      3.403466  
     253A      3.445655   254A      3.477994   255A      3.629242  
     256A      3.669666   257A      3.964811   258A      4.018397  
     259A      4.234543   260A      4.289902   261A      5.223065  
     262A      5.275978   263A      5.652717   264A     18.143617  
     265A     18.922518  

    Final Occupation by Irrep:
              A 
    DOCC [    21 ]

  @DF-RHF Final Energy:  -246.72401555411565

   => Energetics <=

    Nuclear Repulsion Energy =            206.2923632801228564
    One-Electron Energy =                -741.1436385524352772
    Two-Electron Energy =                 288.1272597181967967
    Total Energy =                       -246.7240155541156810

Computation Completed


Properties will be evaluated at   0.000000,   0.000000,   0.000000 [a0]

Properties computed using the SCF density matrix

  Nuclear Dipole Moment: [e a0]
     X:    -3.2036      Y:    -0.0045      Z:  -110.5953

  Electronic Dipole Moment: [e a0]
     X:     2.2825      Y:     0.0046      Z:   110.5383

  Dipole Moment: [e a0]
     X:    -0.9211      Y:     0.0001      Z:    -0.0569     Total:     0.9229

  Dipole Moment: [D]
     X:    -2.3413      Y:     0.0003      Z:    -0.1447     Total:     2.3458


*** tstop() called on node97.bme.utexas.edu at Thu Apr 23 17:20:47 2020
Module time:
	user time   =      26.93 seconds =       0.45 minutes
	system time =       0.84 seconds =       0.01 minutes
	total time  =          5 seconds =       0.08 minutes
Total time:
	user time   =      73.67 seconds =       1.23 minutes
	system time =       2.08 seconds =       0.03 minutes
	total time  =         12 seconds =       0.20 minutes

  //>>>>>>>>>>>>>>>>>>>>>>>>>>>>>>>>>>>//
  //            Monomer B HF           //
  //<<<<<<<<<<<<<<<<<<<<<<<<<<<<<<<<<<<//


*** tstart() called on node97.bme.utexas.edu
*** at Thu Apr 23 17:20:47 2020

   => Loading Basis Set <=

    Name: AUG-CC-PVDZ
    Role: ORBITAL
    Keyword: BASIS
    atoms 1                            entry N          line   218 file /home/liuchw/anaconda3/envs/psi4env/share/psi4/basis/aug-cc-pvdz.gbs 
    atoms 2, 4, 6, 8, 10, 12, 15       entry C          line   182 file /home/liuchw/anaconda3/envs/psi4env/share/psi4/basis/aug-cc-pvdz.gbs 
    atoms 3, 5, 7, 9, 11, 13-14, 16-17 entry H          line    40 file /home/liuchw/anaconda3/envs/psi4env/share/psi4/basis/aug-cc-pvdz.gbs 


         ---------------------------------------------------------
                                   SCF
               by Justin Turney, Rob Parrish, Andy Simmonett
                          and Daniel G. A. Smith
                              RHF Reference
                        8 Threads,  19073 MiB Core
         ---------------------------------------------------------

  ==> Geometry <==

    Molecular point group: c1
    Full point group: C1

    Geometry (in Angstrom), charge = 0, multiplicity = 1:

       Center              X                  Y                   Z               Mass       
    ------------   -----------------  -----------------  -----------------  -----------------
      Gh(N)           1.379850380606    -0.000236768906    -1.308398590525    14.003074004430
      Gh(C)           0.677820380606    -1.140246768906    -1.347778590525    12.000000000000
      Gh(H)           1.257190380606    -2.054966768906    -1.313978590525     1.007825032230
      Gh(C)          -0.711249619394    -1.193116768906    -1.433198590525    12.000000000000
      Gh(H)          -1.215619619394    -2.148566768906    -1.465168590525     1.007825032230
      Gh(C)          -1.423139619394     0.000123231094    -1.480678590525    12.000000000000
      Gh(H)          -2.502229619394     0.000253231094    -1.549028590525     1.007825032230
      Gh(C)          -0.710929619394     1.193173231094    -1.433338590525    12.000000000000
      Gh(H)          -1.215039619394     2.148743231094    -1.465388590525     1.007825032230
      Gh(C)           0.678120380606     1.139953231094    -1.347968590525    12.000000000000
      Gh(H)           1.257730380606     2.054503231094    -1.314358590525     1.007825032230
         C            0.034970380606     0.666513231094     3.924291409475    12.000000000000
         H            0.945440380606     1.226003231094     3.765171409475     1.007825032230
         H           -0.874579619394     1.228923231094     4.081251409475     1.007825032230
         C            0.035300380606    -0.666176768906     3.924421409475    12.000000000000
         H            0.946040380606    -1.225256768906     3.765411409475     1.007825032230
         H           -0.873989619394    -1.228996768906     4.081511409475     1.007825032230

  Running in c1 symmetry.

  Rotational constants: A =      0.08887  B =      0.02497  C =      0.02460 [cm^-1]
  Rotational constants: A =   2664.30670  B =    748.53306  C =    737.47069 [MHz]
  Nuclear repulsion =   33.423859889800703

  Charge       = 0
  Multiplicity = 1
  Electrons    = 16
  Nalpha       = 8
  Nbeta        = 8

  ==> Algorithm <==

  SCF Algorithm Type is DF.
  DIIS enabled.
  MOM disabled.
  Fractional occupation disabled.
  Guess Type is SAD.
  Energy threshold   = 1.00e-08
  Density threshold  = 1.00e-08
  Integral threshold = 0.00e+00

  ==> Primary Basis <==

  Basis Set: AUG-CC-PVDZ
    Blend: AUG-CC-PVDZ
    Number of shells: 117
    Number of basis function: 265
    Number of Cartesian functions: 281
    Spherical Harmonics?: true
    Max angular momentum: 2

   => Loading Basis Set <=

    Name: (AUG-CC-PVDZ AUX)
    Role: JKFIT
    Keyword: DF_BASIS_SCF
    atoms 1                            entry N          line   212 file /home/liuchw/anaconda3/envs/psi4env/share/psi4/basis/aug-cc-pvdz-jkfit.gbs 
    atoms 2, 4, 6, 8, 10, 12, 15       entry C          line   154 file /home/liuchw/anaconda3/envs/psi4env/share/psi4/basis/aug-cc-pvdz-jkfit.gbs 
    atoms 3, 5, 7, 9, 11, 13-14, 16-17 entry H          line    70 file /home/liuchw/anaconda3/envs/psi4env/share/psi4/basis/aug-cc-pvdz-jkfit.gbs 

  ==> Pre-Iterations <==

   -------------------------------------------------------
    Irrep   Nso     Nmo     Nalpha   Nbeta   Ndocc  Nsocc
   -------------------------------------------------------
     A        265     265       0       0       0       0
   -------------------------------------------------------
    Total     265     265       8       8       8       0
   -------------------------------------------------------

  ==> Integral Setup <==

  ==> DiskDFJK: Density-Fitted J/K Matrices <==

    J tasked:                  Yes
    K tasked:                  Yes
    wK tasked:                  No
    OpenMP threads:              8
    Integrals threads:           8
    Memory [MiB]:            14305
    Algorithm:                Core
    Integral Cache:           LOAD
    Schwarz Cutoff:          1E-12
    Fitting Condition:       1E-10

   => Auxiliary Basis Set <=

  Basis Set: (AUG-CC-PVDZ AUX)
    Blend: AUG-CC-PVDZ-JKFIT
    Number of shells: 332
    Number of basis function: 976
    Number of Cartesian functions: 1123
    Spherical Harmonics?: true
    Max angular momentum: 3

  Minimum eigenvalue in the overlap matrix is 1.1126022638E-05.
  Using Symmetric Orthogonalization.

  SCF Guess: Superposition of Atomic Densities via on-the-fly atomic UHF.

  ==> Iterations <==

                           Total Energy        Delta E     RMS |[F,P]|

   @DF-RHF iter SAD:   -77.25978799369628   -7.72598e+01   0.00000e+00 
   @DF-RHF iter   1:   -77.96626895509840   -7.06481e-01   1.31612e-03 DIIS
   @DF-RHF iter   2:   -78.03242075211769   -6.61518e-02   5.21300e-04 DIIS
   @DF-RHF iter   3:   -78.04303990476356   -1.06192e-02   8.29524e-05 DIIS
   @DF-RHF iter   4:   -78.04356895452617   -5.29050e-04   7.75981e-06 DIIS
   @DF-RHF iter   5:   -78.04357412830853   -5.17378e-06   8.51476e-07 DIIS
   @DF-RHF iter   6:   -78.04357419869518   -7.03866e-08   1.05226e-07 DIIS
   @DF-RHF iter   7:   -78.04357419964302   -9.47836e-10   1.59734e-08 DIIS
   @DF-RHF iter   8:   -78.04357419966641   -2.33911e-11   2.20633e-09 DIIS
  Energy and wave function converged.


  ==> Post-Iterations <==

    Orbital Energies [Eh]
    ---------------------

    Doubly Occupied:                                                      

       1A    -11.238845     2A    -11.237168     3A     -1.036857  
       4A     -0.794163     5A     -0.645143     6A     -0.587072  
       7A     -0.508129     8A     -0.376570  

    Virtual:                                                              

       9A      0.022539    10A      0.036330    11A      0.038052  
      12A      0.046760    13A      0.056339    14A      0.057642  
      15A      0.058639    16A      0.065503    17A      0.078777  
      18A      0.085201    19A      0.092432    20A      0.101626  
      21A      0.103377    22A      0.118702    23A      0.125189  
      24A      0.127501    25A      0.133410    26A      0.134398  
      27A      0.145072    28A      0.149019    29A      0.149071  
      30A      0.151542    31A      0.160864    32A      0.170456  
      33A      0.173700    34A      0.176931    35A      0.179359  
      36A      0.188314    37A      0.188415    38A      0.191084  
      39A      0.205961    40A      0.210488    41A      0.221775  
      42A      0.222191    43A      0.229456    44A      0.233064  
      45A      0.241713    46A      0.242525    47A      0.246129  
      48A      0.283977    49A      0.284961    50A      0.295701  
      51A      0.304679    52A      0.318893    53A      0.338513  
      54A      0.352757    55A      0.358006    56A      0.368226  
      57A      0.374627    58A      0.390716    59A      0.392231  
      60A      0.409623    61A      0.423953    62A      0.426419  
      63A      0.432017    64A      0.435645    65A      0.448521  
      66A      0.460024    67A      0.460669    68A      0.462032  
      69A      0.473655    70A      0.476732    71A      0.482428  
      72A      0.485054    73A      0.487034    74A      0.504654  
      75A      0.506495    76A      0.513623    77A      0.520426  
      78A      0.525608    79A      0.537774    80A      0.542728  
      81A      0.555155    82A      0.567713    83A      0.569073  
      84A      0.572363    85A      0.580494    86A      0.581576  
      87A      0.593185    88A      0.596791    89A      0.603617  
      90A      0.611262    91A      0.620618    92A      0.621683  
      93A      0.632385    94A      0.635654    95A      0.649365  
      96A      0.655133    97A      0.660595    98A      0.662035  
      99A      0.682014   100A      0.686951   101A      0.704106  
     102A      0.707866   103A      0.720537   104A      0.733518  
     105A      0.758896   106A      0.761301   107A      0.781453  
     108A      0.795867   109A      0.795903   110A      0.803023  
     111A      0.810586   112A      0.821859   113A      0.825405  
     114A      0.839434   115A      0.850609   116A      0.856181  
     117A      0.872323   118A      0.878909   119A      0.880402  
     120A      0.884077   121A      0.898060   122A      0.901415  
     123A      0.901599   124A      0.911775   125A      0.934550  
     126A      0.938607   127A      0.946222   128A      1.005166  
     129A      1.020760   130A      1.028255   131A      1.048536  
     132A      1.055426   133A      1.062863   134A      1.078842  
     135A      1.102501   136A      1.109160   137A      1.130823  
     138A      1.142231   139A      1.156160   140A      1.162576  
     141A      1.173604   142A      1.193862   143A      1.217740  
     144A      1.249168   145A      1.287939   146A      1.290645  
     147A      1.304043   148A      1.304838   149A      1.324906  
     150A      1.355581   151A      1.379680   152A      1.406769  
     153A      1.441682   154A      1.456173   155A      1.461576  
     156A      1.496226   157A      1.496448   158A      1.529197  
     159A      1.547322   160A      1.577646   161A      1.636351  
     162A      1.670610   163A      1.748502   164A      1.775611  
     165A      1.795919   166A      1.854793   167A      1.898924  
     168A      1.964042   169A      2.024531   170A      2.069584  
     171A      2.077829   172A      2.097304   173A      2.118974  
     174A      2.122484   175A      2.128411   176A      2.143763  
     177A      2.147685   178A      2.152955   179A      2.164139  
     180A      2.179789   181A      2.191011   182A      2.197708  
     183A      2.208919   184A      2.214643   185A      2.228111  
     186A      2.230556   187A      2.274941   188A      2.310865  
     189A      2.311164   190A      2.327464   191A      2.354897  
     192A      2.387102   193A      2.388864   194A      2.402195  
     195A      2.412356   196A      2.454680   197A      2.455637  
     198A      2.491039   199A      2.493289   200A      2.526060  
     201A      2.551965   202A      2.584210   203A      2.589808  
     204A      2.594778   205A      2.638586   206A      2.643397  
     207A      2.649635   208A      2.678345   209A      2.683608  
     210A      2.709839   211A      2.730151   212A      2.737951  
     213A      2.804946   214A      2.821169   215A      2.831033  
     216A      2.858326   217A      2.872623   218A      2.889827  
     219A      2.909851   220A      2.937196   221A      2.993917  
     222A      3.042414   223A      3.058844   224A      3.123262  
     225A      3.132425   226A      3.208180   227A      3.276890  
     228A      3.336110   229A      3.350781   230A      3.396893  
     231A      3.413655   232A      3.428351   233A      3.441321  
     234A      3.470847   235A      3.490261   236A      3.497793  
     237A      3.539091   238A      3.601965   239A      3.632167  
     240A      3.872571   241A      3.883791   242A      3.888843  
     243A      4.013977   244A      4.057304   245A      4.184290  
     246A      4.443805   247A      4.507979   248A      4.606224  
     249A      4.659605   250A      4.773013   251A      4.922591  
     252A      5.141166   253A      5.402079   254A      5.491454  
     255A      5.554333   256A      5.605184   257A      5.612931  
     258A      5.772938   259A      6.150904   260A     18.063722  
     261A     18.358792   262A     18.705772   263A     19.051447  
     264A     19.877850   265A     25.328826  

    Final Occupation by Irrep:
              A 
    DOCC [     8 ]

  @DF-RHF Final Energy:   -78.04357419966641

   => Energetics <=

    Nuclear Repulsion Energy =             33.4238598898007027
    One-Electron Energy =                -170.0869756193759770
    Two-Electron Energy =                  58.6195415299088722
    Total Energy =                        -78.0435741996664092

Computation Completed


Properties will be evaluated at   0.000000,   0.000000,   0.000000 [a0]

Properties computed using the SCF density matrix

  Nuclear Dipole Moment: [e a0]
     X:     1.0668      Y:     0.0051      Z:   118.6476

  Electronic Dipole Moment: [e a0]
     X:    -1.0677      Y:    -0.0051      Z:  -118.6483

  Dipole Moment: [e a0]
     X:    -0.0009      Y:     0.0000      Z:    -0.0007     Total:     0.0011

  Dipole Moment: [D]
     X:    -0.0022      Y:     0.0000      Z:    -0.0017     Total:     0.0028


*** tstop() called on node97.bme.utexas.edu at Thu Apr 23 17:20:50 2020
Module time:
	user time   =      17.34 seconds =       0.29 minutes
	system time =       0.55 seconds =       0.01 minutes
	total time  =          3 seconds =       0.05 minutes
Total time:
	user time   =      91.07 seconds =       1.52 minutes
	system time =       2.64 seconds =       0.04 minutes
	total time  =         15 seconds =       0.25 minutes
  Constructing Basis Sets for SAPT...

   => Loading Basis Set <=

    Name: (AUG-CC-PVDZ AUX)
    Role: RIFIT
    Keyword: DF_BASIS_SAPT
    atoms 1                            entry N          line   158 file /home/liuchw/anaconda3/envs/psi4env/share/psi4/basis/aug-cc-pvdz-ri.gbs 
    atoms 2, 4, 6, 8, 10, 12, 15       entry C          line   112 file /home/liuchw/anaconda3/envs/psi4env/share/psi4/basis/aug-cc-pvdz-ri.gbs 
    atoms 3, 5, 7, 9, 11, 13-14, 16-17 entry H          line    30 file /home/liuchw/anaconda3/envs/psi4env/share/psi4/basis/aug-cc-pvdz-ri.gbs 


  //>>>>>>>>>>>>>>>>>>>>>>>>>>>>>>>>>>>//
  //               SAPT2+              //
  //<<<<<<<<<<<<<<<<<<<<<<<<<<<<<<<<<<<//


*** tstart() called on node97.bme.utexas.edu
*** at Thu Apr 23 17:20:50 2020

        SAPT2+  
    Ed Hohenstein
     6 June 2009

      Orbital Information
  --------------------------
    NSO        =       265
    NMO        =       265
    NRI        =       783
    NOCC A     =        21
    NOCC B     =         8
    FOCC A     =         6
    FOCC B     =         2
    NVIR A     =       244
    NVIR B     =       257

    Estimated memory usage: 1112.8 MB

    Natural Orbital Cutoff:   1.000E-06
    Disp(T3) Truncation:            Yes
    CCD (vv|vv) Truncation:         Yes
    MBPT T2 Truncation:             Yes

    Monomer A: 91 virtual orbitals dropped
    Monomer B: 187 virtual orbitals dropped

    Elst10,r            =     0.000281505423 [Eh]
    Exch10 (S^2)        =     0.000025060787 [Eh]
    Exch10              =     0.000025061708 [Eh]
    Ind20,r (A<-B)      =    -0.000009674237 [Eh]
    Ind20,r (B<-A)      =    -0.000022867225 [Eh]
    Ind20,r             =    -0.000032541462 [Eh]
    Exch-Ind20,r (A<-B) =     0.000000945322 [Eh]
    Exch-Ind20,r (B<-A) =     0.000008888858 [Eh]
    Exch-Ind20,r        =     0.000009834180 [Eh]
    Disp20              =    -0.000674959308 [Eh]
    Disp20 (NO)         =    -0.000649069669 [Eh]
    Exch-Disp20         =     0.000008899905 [Eh]
    Elst12,r            =    -0.000122000213 [Eh]
    Exch11              =     0.000000400845 [Eh]
    Exch12              =     0.000002319928 [Eh]
    Ind22               =     0.000004373161 [Eh]
    Disp21              =     0.000179332132 [Eh]
    Disp22 (SDQ)        =     0.000037793884 [Eh]

    (i =   1 of   6)          7 seconds
    (i =   2 of   6)         15 seconds
    (i =   3 of   6)         22 seconds
    (i =   4 of   6)         30 seconds
    (i =   5 of   6)         37 seconds
    (i =   6 of   6)         44 seconds

    Disp220 (T)         =    -0.000074116219 [Eh]

    (i =   1 of  15)          1 seconds
    (i =   2 of  15)          2 seconds
    (i =   3 of  15)          3 seconds
    (i =   4 of  15)          3 seconds
    (i =   5 of  15)          4 seconds
    (i =   6 of  15)          5 seconds
    (i =   7 of  15)          6 seconds
    (i =   8 of  15)          6 seconds
    (i =   9 of  15)          7 seconds
    (i =  10 of  15)          8 seconds
    (i =  11 of  15)          9 seconds
    (i =  12 of  15)          9 seconds
    (i =  13 of  15)         10 seconds
    (i =  14 of  15)         11 seconds
    (i =  15 of  15)         12 seconds

    Disp202 (T)         =    -0.000050435350 [Eh]

    Disp22 (T)          =    -0.000124551569 [Eh]

    Est. Disp220 (T)    =    -0.000077072515 [Eh]
    Est. Disp202 (T)    =    -0.000052447080 [Eh]

    Est. Disp22 (T)     =    -0.000129519596 [Eh]

    SAPT Results 
  --------------------------------------------------------------------------------------------------------
    Electrostatics                  0.15950521 [mEh]       0.10009103 [kcal/mol]       0.41878087 [kJ/mol]
      Elst10,r                      0.28150542 [mEh]       0.17664732 [kcal/mol]       0.73909239 [kJ/mol]
      Elst12,r                     -0.12200021 [mEh]      -0.07655629 [kcal/mol]      -0.32031152 [kJ/mol]

    Exchange                        0.02778248 [mEh]       0.01743377 [kcal/mol]       0.07294290 [kJ/mol]
      Exch10                        0.02506171 [mEh]       0.01572646 [kcal/mol]       0.06579951 [kJ/mol]
      Exch10(S^2)                   0.02506079 [mEh]       0.01572588 [kcal/mol]       0.06579709 [kJ/mol]
      Exch11(S^2)                   0.00040085 [mEh]       0.00025153 [kcal/mol]       0.00105242 [kJ/mol]
      Exch12(S^2)                   0.00231993 [mEh]       0.00145578 [kcal/mol]       0.00609097 [kJ/mol]

    Induction                      -0.01881130 [mEh]      -0.01180427 [kcal/mol]      -0.04938905 [kJ/mol]
      Ind20,r                      -0.03254146 [mEh]      -0.02042008 [kcal/mol]      -0.08543760 [kJ/mol]
      Ind22                         0.00437316 [mEh]       0.00274420 [kcal/mol]       0.01148173 [kJ/mol]
      Exch-Ind20,r                  0.00983418 [mEh]       0.00617104 [kcal/mol]       0.02581964 [kJ/mol]
      Exch-Ind22                   -0.00132159 [mEh]      -0.00082931 [kcal/mol]      -0.00346983 [kJ/mol]
      delta HF,r (2)                0.00084442 [mEh]       0.00052988 [kcal/mol]       0.00221701 [kJ/mol]

    Dispersion                     -0.57845298 [mEh]      -0.36298473 [kcal/mol]      -1.51872810 [kJ/mol]
      Disp20                       -0.67495931 [mEh]      -0.42354336 [kcal/mol]      -1.77210542 [kJ/mol]
      Disp21                        0.17933213 [mEh]       0.11253261 [kcal/mol]       0.47083645 [kJ/mol]
      Disp22 (SDQ)                  0.03779388 [mEh]       0.02371602 [kcal/mol]       0.09922783 [kJ/mol]
      Disp22 (T)                   -0.12455157 [mEh]      -0.07815729 [kcal/mol]      -0.32701010 [kJ/mol]
      Est. Disp22 (T)              -0.12951960 [mEh]      -0.08127477 [kcal/mol]      -0.34005365 [kJ/mol]
      Exch-Disp20                   0.00889990 [mEh]       0.00558477 [kcal/mol]       0.02336670 [kJ/mol]

  Total HF                          0.28470426 [mEh]       0.17865462 [kcal/mol]       0.74749094 [kJ/mol]
  Total SAPT0                      -0.38135514 [mEh]      -0.23930396 [kcal/mol]      -1.00124778 [kJ/mol]
  Total SAPT2                      -0.49758301 [mEh]      -0.31223805 [kcal/mol]      -1.30640401 [kJ/mol]
  Total SAPT2+                     -0.40997659 [mEh]      -0.25726419 [kcal/mol]      -1.07639339 [kJ/mol]

  Special recipe for scaled SAPT0 (see Manual):
    Electrostatics sSAPT0           0.28150542 [mEh]       0.17664732 [kcal/mol]       0.73909239 [kJ/mol]
    Exchange sSAPT0                 0.02506171 [mEh]       0.01572646 [kcal/mol]       0.06579951 [kJ/mol]
    Induction sSAPT0               -0.02186178 [mEh]      -0.01371848 [kcal/mol]      -0.05739810 [kJ/mol]
    Dispersion sSAPT0              -0.66605842 [mEh]      -0.41795797 [kcal/mol]      -1.74873615 [kJ/mol]
  Total sSAPT0                     -0.38135307 [mEh]      -0.23930267 [kcal/mol]      -1.00124236 [kJ/mol]
  --------------------------------------------------------------------------------------------------------

*** tstop() called on node97.bme.utexas.edu at Thu Apr 23 17:22:48 2020
Module time:
	user time   =     838.38 seconds =      13.97 minutes
	system time =      29.10 seconds =       0.48 minutes
	total time  =        118 seconds =       1.97 minutes
Total time:
	user time   =     930.49 seconds =      15.51 minutes
	system time =      31.78 seconds =       0.53 minutes
	total time  =        133 seconds =       2.22 minutes

    Psi4 stopped on: Thursday, 23 April 2020 05:22PM
    Psi4 wall time for execution: 0:02:12.42

*** Psi4 exiting successfully. Buy a developer a beer!
