
    -----------------------------------------------------------------------
          Psi4: An Open-Source Ab Initio Electronic Structure Package
                               Psi4 1.4a2.dev224 

                         Git: Rev {master} e453b16 


    R. M. Parrish, L. A. Burns, D. G. A. Smith, A. C. Simmonett,
    A. E. DePrince III, E. G. Hohenstein, U. Bozkaya, A. Yu. Sokolov,
    R. Di Remigio, R. M. Richard, J. F. Gonthier, A. M. James,
    H. R. McAlexander, A. Kumar, M. Saitow, X. Wang, B. P. Pritchard,
    P. Verma, H. F. Schaefer III, K. Patkowski, R. A. King, E. F. Valeev,
    F. A. Evangelista, J. M. Turney, T. D. Crawford, and C. D. Sherrill,
    J. Chem. Theory Comput. 13(7) pp 3185--3197 (2017).
    (doi: 10.1021/acs.jctc.7b00174)


                         Additional Contributions by
    P. Kraus, H. Kruse, M. H. Lechner, M. C. Schieber, R. A. Shaw,
    A. Alenaizan, R. Galvelis, Z. L. Glick, S. Lehtola, and J. P. Misiewicz

    -----------------------------------------------------------------------


    Psi4 started on: Thursday, 23 April 2020 06:04PM

    Process ID: 39360
    Host:       node80.bme.utexas.edu
    PSIDATADIR: /home/liuchw/anaconda3/envs/psi4env/share/psi4
    Memory:     500.0 MiB
    Threads:    8
    
  ==> Input File <==

--------------------------------------------------------------------------
#Generated by lconvert.py for sapt job

memory 20 GB

molecule  {
0 1
  C      -2.533310   -0.294880    0.713150
  H      -2.563630   -0.977080   -0.136420
  H      -2.566980   -0.895880    1.621730
  H      -3.434430    0.315960    0.684100
  C      -1.271880    0.557660    0.674360
  H      -1.271030    1.256570    1.514320
  H      -1.266630    1.167900   -0.231830
  C      -0.000140   -0.278420    0.719600
  H      -0.000160   -0.887230    1.628640
  H      -0.000360   -0.980710   -0.119400
  C       1.271890    0.557380    0.674060
  H       1.270970    1.256630    1.513710
  H       1.266640    1.167180   -0.232390
  C       2.533400   -0.294940    0.713280
  H       2.563920   -0.977770   -0.135780
  H       3.434310    0.316250    0.683600
  H       2.567560   -0.895210    1.622330
--
0 1
  C       2.533550    0.274460    5.522380
  H       2.568140    0.874270    4.613060
  H       2.564060    0.957670    6.371130
  H       3.434240   -0.337040    5.552590
  C       1.271730   -0.577430    5.561690
  H       1.266280   -1.187150    6.468190
  H       1.270600   -1.276780    4.722110
  C      -0.000050    0.258670    5.516070
  H      -0.000200    0.960980    6.355060
  H       0.000030    0.867450    4.607000
  C      -1.271810   -0.577470    5.561340
  H      -1.266420   -1.187580    6.467590
  H      -1.270700   -1.276490    4.721480
  C      -2.533530    0.274580    5.522370
  H      -2.567720    0.875110    4.613490
  H      -3.434330   -0.336720    5.551880
  H      -2.564070    0.957160    6.371630
units angstrom
no_reorient
symmetry c1
}

set {
scf_type DF
basis aug-cc-pvdz
freeze_core True
guess SAD
}
energy('sapt2+')
--------------------------------------------------------------------------

  Memory set to  18.626 GiB by Python driver.

Scratch directory: /scratch/liuchw/

  //>>>>>>>>>>>>>>>>>>>>>>>>>>>>>>>>>>>//
  //              Dimer HF             //
  //<<<<<<<<<<<<<<<<<<<<<<<<<<<<<<<<<<<//


*** tstart() called on node80.bme.utexas.edu
*** at Thu Apr 23 18:04:10 2020

   => Loading Basis Set <=

    Name: AUG-CC-PVDZ
    Role: ORBITAL
    Keyword: BASIS
    atoms 1, 5, 8, 11, 14, 18, 22, 25, 28, 31                             entry C          line   182 file /home/liuchw/anaconda3/envs/psi4env/share/psi4/basis/aug-cc-pvdz.gbs 
    atoms 2-4, 6-7, 9-10, 12-13, 15-17, 19-21, 23-24, 26-27, 29-30, 32-34 entry H          line    40 file /home/liuchw/anaconda3/envs/psi4env/share/psi4/basis/aug-cc-pvdz.gbs 


         ---------------------------------------------------------
                                   SCF
               by Justin Turney, Rob Parrish, Andy Simmonett
                          and Daniel G. A. Smith
                              RHF Reference
                        8 Threads,  19073 MiB Core
         ---------------------------------------------------------

  ==> Geometry <==

    Molecular point group: c1
    Full point group: C1

    Geometry (in Angstrom), charge = 0, multiplicity = 1:

       Center              X                  Y                   Z               Mass       
    ------------   -----------------  -----------------  -----------------  -----------------
         C           -2.533298145351    -0.284829998261    -2.404679301033    12.000000000000
         H           -2.563618145351    -0.967029998261    -3.254249301033     1.007825032230
         H           -2.566968145351    -0.885829998261    -1.496099301033     1.007825032230
         H           -3.434418145351     0.326010001739    -2.433729301033     1.007825032230
         C           -1.271868145351     0.567710001739    -2.443469301033    12.000000000000
         H           -1.271018145351     1.266620001739    -1.603509301033     1.007825032230
         H           -1.266618145351     1.177950001739    -3.349659301033     1.007825032230
         C           -0.000128145351    -0.268369998261    -2.398229301033    12.000000000000
         H           -0.000148145351    -0.877179998261    -1.489189301033     1.007825032230
         H           -0.000348145351    -0.970659998261    -3.237229301033     1.007825032230
         C            1.271901854649     0.567430001739    -2.443769301033    12.000000000000
         H            1.270981854649     1.266680001739    -1.604119301033     1.007825032230
         H            1.266651854649     1.177230001739    -3.350219301033     1.007825032230
         C            2.533411854649    -0.284889998261    -2.404549301033    12.000000000000
         H            2.563931854649    -0.967719998261    -3.253609301033     1.007825032230
         H            3.434321854649     0.326300001739    -2.434229301033     1.007825032230
         H            2.567571854649    -0.885159998261    -1.495499301033     1.007825032230
         C            2.533561854649     0.284510001739     2.404550698967    12.000000000000
         H            2.568151854649     0.884320001739     1.495230698967     1.007825032230
         H            2.564071854649     0.967720001739     3.253300698967     1.007825032230
         H            3.434251854649    -0.326989998261     2.434760698967     1.007825032230
         C            1.271741854649    -0.567379998261     2.443860698967    12.000000000000
         H            1.266291854649    -1.177099998261     3.350360698967     1.007825032230
         H            1.270611854649    -1.266729998261     1.604280698967     1.007825032230
         C           -0.000038145351     0.268720001739     2.398240698967    12.000000000000
         H           -0.000188145351     0.971030001739     3.237230698967     1.007825032230
         H            0.000041854649     0.877500001739     1.489170698967     1.007825032230
         C           -1.271798145351    -0.567419998261     2.443510698967    12.000000000000
         H           -1.266408145351    -1.177529998261     3.349760698967     1.007825032230
         H           -1.270688145351    -1.266439998261     1.603650698967     1.007825032230
         C           -2.533518145351     0.284630001739     2.404540698967    12.000000000000
         H           -2.567708145351     0.885160001739     1.495660698967     1.007825032230
         H           -3.434318145351    -0.326669998261     2.434050698967     1.007825032230
         H           -2.564058145351     0.967210001739     3.253800698967     1.007825032230

  Running in c1 symmetry.

  Rotational constants: A =      0.03105  B =      0.01867  C =      0.01241 [cm^-1]
  Rotational constants: A =    930.97125  B =    559.70498  C =    371.94782 [MHz]
  Nuclear repulsion =  543.037227043994903

  Charge       = 0
  Multiplicity = 1
  Electrons    = 84
  Nalpha       = 42
  Nbeta        = 42

  ==> Algorithm <==

  SCF Algorithm Type is DF.
  DIIS enabled.
  MOM disabled.
  Fractional occupation disabled.
  Guess Type is SAD.
  Energy threshold   = 1.00e-08
  Density threshold  = 1.00e-08
  Integral threshold = 0.00e+00

  ==> Primary Basis <==

  Basis Set: AUG-CC-PVDZ
    Blend: AUG-CC-PVDZ
    Number of shells: 210
    Number of basis function: 446
    Number of Cartesian functions: 466
    Spherical Harmonics?: true
    Max angular momentum: 2

   => Loading Basis Set <=

    Name: (AUG-CC-PVDZ AUX)
    Role: JKFIT
    Keyword: DF_BASIS_SCF
    atoms 1, 5, 8, 11, 14, 18, 22, 25, 28, 31                             entry C          line   154 file /home/liuchw/anaconda3/envs/psi4env/share/psi4/basis/aug-cc-pvdz-jkfit.gbs 
    atoms 2-4, 6-7, 9-10, 12-13, 15-17, 19-21, 23-24, 26-27, 29-30, 32-34 entry H          line    70 file /home/liuchw/anaconda3/envs/psi4env/share/psi4/basis/aug-cc-pvdz-jkfit.gbs 

  ==> Pre-Iterations <==

   -------------------------------------------------------
    Irrep   Nso     Nmo     Nalpha   Nbeta   Ndocc  Nsocc
   -------------------------------------------------------
     A        446     446       0       0       0       0
   -------------------------------------------------------
    Total     446     446      42      42      42       0
   -------------------------------------------------------

  ==> Integral Setup <==

  ==> DiskDFJK: Density-Fitted J/K Matrices <==

    J tasked:                  Yes
    K tasked:                  Yes
    wK tasked:                  No
    OpenMP threads:              8
    Integrals threads:           8
    Memory [MiB]:            14305
    Algorithm:                Core
    Integral Cache:           SAVE
    Schwarz Cutoff:          1E-12
    Fitting Condition:       1E-10

   => Auxiliary Basis Set <=

  Basis Set: (AUG-CC-PVDZ AUX)
    Blend: AUG-CC-PVDZ-JKFIT
    Number of shells: 568
    Number of basis function: 1628
    Number of Cartesian functions: 1850
    Spherical Harmonics?: true
    Max angular momentum: 3

  Minimum eigenvalue in the overlap matrix is 8.1543789309E-06.
  Using Symmetric Orthogonalization.

  SCF Guess: Superposition of Atomic Densities via on-the-fly atomic UHF.

  ==> Iterations <==

                           Total Energy        Delta E     RMS |[F,P]|

   @DF-RHF iter SAD:  -391.79309113550551   -3.91793e+02   0.00000e+00 
   @DF-RHF iter   1:  -392.17330902596757   -3.80218e-01   2.03645e-03 DIIS
   @DF-RHF iter   2:  -392.60997767472463   -4.36669e-01   9.14907e-04 DIIS
   @DF-RHF iter   3:  -392.70172143012888   -9.17438e-02   1.63463e-04 DIIS
   @DF-RHF iter   4:  -392.70757090195048   -5.84947e-03   3.55122e-05 DIIS
   @DF-RHF iter   5:  -392.70776641273346   -1.95511e-04   9.90856e-06 DIIS
   @DF-RHF iter   6:  -392.70778473969284   -1.83270e-05   1.46075e-06 DIIS
   @DF-RHF iter   7:  -392.70778522522357   -4.85531e-07   3.06185e-07 DIIS
   @DF-RHF iter   8:  -392.70778524711318   -2.18896e-08   6.43053e-08 DIIS
   @DF-RHF iter   9:  -392.70778524796884   -8.55664e-10   1.91464e-08 DIIS
   @DF-RHF iter  10:  -392.70778524804552   -7.66818e-11   4.21919e-09 DIIS
  Energy and wave function converged.


  ==> Post-Iterations <==

    Orbital Energies [Eh]
    ---------------------

    Doubly Occupied:                                                      

       1A    -11.218896     2A    -11.218893     3A    -11.218834  
       4A    -11.218832     5A    -11.216305     6A    -11.216303  
       7A    -11.214348     8A    -11.214346     9A    -11.214342  
      10A    -11.214341    11A     -1.083469    12A     -1.082972  
      13A     -1.017388    14A     -1.016917    15A     -0.920770  
      16A     -0.920301    17A     -0.821088    18A     -0.821071  
      19A     -0.786452    20A     -0.785652    21A     -0.650037  
      22A     -0.645041    23A     -0.598787    24A     -0.598289  
      25A     -0.595050    26A     -0.590813    27A     -0.554134  
      28A     -0.553969    29A     -0.547245    30A     -0.547164  
      31A     -0.527069    32A     -0.524007    33A     -0.494652  
      34A     -0.493849    35A     -0.475952    36A     -0.474930  
      37A     -0.462949    38A     -0.460769    39A     -0.460251  
      40A     -0.456646    41A     -0.446801    42A     -0.446646  

    Virtual:                                                              

      43A      0.036821    44A      0.039694    45A      0.041034  
      46A      0.042718    47A      0.051510    48A      0.053952  
      49A      0.055494    50A      0.059410    51A      0.067527  
      52A      0.070965    53A      0.074078    54A      0.075849  
      55A      0.077495    56A      0.085776    57A      0.092370  
      58A      0.094277    59A      0.099492    60A      0.101032  
      61A      0.102401    62A      0.106984    63A      0.118218  
      64A      0.120681    65A      0.130592    66A      0.132094  
      67A      0.133572    68A      0.148478    69A      0.148858  
      70A      0.149280    71A      0.156940    72A      0.160473  
      73A      0.164644    74A      0.169586    75A      0.170459  
      76A      0.172428    77A      0.175617    78A      0.178533  
      79A      0.182267    80A      0.183018    81A      0.188059  
      82A      0.188238    83A      0.193802    84A      0.194941  
      85A      0.198735    86A      0.200898    87A      0.206078  
      88A      0.211183    89A      0.215149    90A      0.216745  
      91A      0.225209    92A      0.225390    93A      0.226489  
      94A      0.228502    95A      0.232167    96A      0.241068  
      97A      0.247283    98A      0.249122    99A      0.251212  
     100A      0.253017   101A      0.262308   102A      0.263695  
     103A      0.279310   104A      0.281728   105A      0.293317  
     106A      0.298326   107A      0.302960   108A      0.307580  
     109A      0.312458   110A      0.324617   111A      0.329361  
     112A      0.330316   113A      0.338940   114A      0.352605  
     115A      0.353979   116A      0.355456   117A      0.356779  
     118A      0.362623   119A      0.366599   120A      0.372120  
     121A      0.374723   122A      0.380732   123A      0.392110  
     124A      0.400013   125A      0.401687   126A      0.405794  
     127A      0.405906   128A      0.414163   129A      0.421912  
     130A      0.426241   131A      0.426807   132A      0.431633  
     133A      0.442683   134A      0.444222   135A      0.448361  
     136A      0.451064   137A      0.453776   138A      0.460032  
     139A      0.460851   140A      0.474222   141A      0.477223  
     142A      0.477933   143A      0.485583   144A      0.486923  
     145A      0.491345   146A      0.497762   147A      0.498587  
     148A      0.498634   149A      0.501252   150A      0.501483  
     151A      0.504859   152A      0.509831   153A      0.516844  
     154A      0.517741   155A      0.521379   156A      0.521928  
     157A      0.531735   158A      0.538766   159A      0.539497  
     160A      0.539947   161A      0.550278   162A      0.552907  
     163A      0.561368   164A      0.568353   165A      0.569796  
     166A      0.570875   167A      0.572364   168A      0.582240  
     169A      0.586203   170A      0.586673   171A      0.587956  
     172A      0.601581   173A      0.605526   174A      0.605558  
     175A      0.611448   176A      0.618402   177A      0.624673  
     178A      0.630949   179A      0.634506   180A      0.642875  
     181A      0.649093   182A      0.650282   183A      0.651698  
     184A      0.656464   185A      0.661217   186A      0.663304  
     187A      0.669681   188A      0.673056   189A      0.682252  
     190A      0.685427   191A      0.686686   192A      0.688024  
     193A      0.690674   194A      0.693064   195A      0.694069  
     196A      0.708894   197A      0.716289   198A      0.725863  
     199A      0.729003   200A      0.734263   201A      0.735406  
     202A      0.740826   203A      0.741266   204A      0.743528  
     205A      0.754680   206A      0.760282   207A      0.761593  
     208A      0.775320   209A      0.776772   210A      0.777182  
     211A      0.784865   212A      0.788921   213A      0.794616  
     214A      0.799426   215A      0.800232   216A      0.808314  
     217A      0.818240   218A      0.818628   219A      0.831765  
     220A      0.833222   221A      0.841352   222A      0.842818  
     223A      0.842896   224A      0.851516   225A      0.859801  
     226A      0.860831   227A      0.866216   228A      0.868674  
     229A      0.878304   230A      0.890819   231A      0.893945  
     232A      0.895976   233A      0.896613   234A      0.918914  
     235A      0.922516   236A      0.930896   237A      0.937517  
     238A      0.941766   239A      0.947139   240A      0.956424  
     241A      0.961613   242A      0.964869   243A      0.967252  
     244A      0.970926   245A      0.975222   246A      0.977126  
     247A      0.984841   248A      0.986739   249A      0.997222  
     250A      1.001608   251A      1.013163   252A      1.017369  
     253A      1.021687   254A      1.036318   255A      1.044829  
     256A      1.066922   257A      1.093259   258A      1.099666  
     259A      1.109703   260A      1.127961   261A      1.145958  
     262A      1.150597   263A      1.169445   264A      1.183408  
     265A      1.185211   266A      1.191087   267A      1.205415  
     268A      1.206405   269A      1.211191   270A      1.224255  
     271A      1.230441   272A      1.232040   273A      1.244085  
     274A      1.246318   275A      1.256533   276A      1.272975  
     277A      1.283770   278A      1.312224   279A      1.324726  
     280A      1.339063   281A      1.340469   282A      1.343792  
     283A      1.365566   284A      1.382855   285A      1.383835  
     286A      1.413741   287A      1.464430   288A      1.470646  
     289A      1.481380   290A      1.496896   291A      1.502818  
     292A      1.511228   293A      1.541812   294A      1.566750  
     295A      1.568895   296A      1.572981   297A      1.592363  
     298A      1.596557   299A      1.618017   300A      1.623108  
     301A      1.636082   302A      1.641095   303A      1.646797  
     304A      1.654417   305A      1.679782   306A      1.682984  
     307A      1.700593   308A      1.715672   309A      1.743841  
     310A      1.751276   311A      1.781983   312A      1.787514  
     313A      1.828125   314A      1.834177   315A      1.839782  
     316A      1.866183   317A      1.872081   318A      1.879860  
     319A      1.882419   320A      1.898165   321A      1.899017  
     322A      1.906169   323A      1.928104   324A      1.935638  
     325A      1.944903   326A      1.952675   327A      1.966887  
     328A      1.969924   329A      1.984979   330A      1.998403  
     331A      2.002119   332A      2.002520   333A      2.010705  
     334A      2.018055   335A      2.039201   336A      2.083227  
     337A      2.095724   338A      2.101321   339A      2.106150  
     340A      2.109127   341A      2.116271   342A      2.127237  
     343A      2.133745   344A      2.141830   345A      2.144378  
     346A      2.144544   347A      2.150482   348A      2.153256  
     349A      2.155223   350A      2.157405   351A      2.170505  
     352A      2.176114   353A      2.195351   354A      2.197783  
     355A      2.202377   356A      2.217132   357A      2.226189  
     358A      2.230042   359A      2.236316   360A      2.236793  
     361A      2.265721   362A      2.267482   363A      2.280214  
     364A      2.293063   365A      2.296137   366A      2.299125  
     367A      2.318547   368A      2.324557   369A      2.324862  
     370A      2.333099   371A      2.348204   372A      2.353079  
     373A      2.370200   374A      2.371529   375A      2.393759  
     376A      2.393904   377A      2.395974   378A      2.409989  
     379A      2.426072   380A      2.432706   381A      2.436845  
     382A      2.456485   383A      2.472562   384A      2.487293  
     385A      2.503011   386A      2.505489   387A      2.509305  
     388A      2.532268   389A      2.538929   390A      2.541568  
     391A      2.567824   392A      2.585657   393A      2.596665  
     394A      2.617282   395A      2.659679   396A      2.688400  
     397A      2.692717   398A      2.697653   399A      2.701088  
     400A      2.713919   401A      2.715553   402A      2.726084  
     403A      2.750342   404A      2.752184   405A      2.756696  
     406A      2.758414   407A      2.773731   408A      2.781197  
     409A      2.796012   410A      2.809368   411A      2.811528  
     412A      2.823851   413A      2.903414   414A      2.904703  
     415A      2.909224   416A      2.913815   417A      2.915391  
     418A      2.917804   419A      2.923854   420A      2.924177  
     421A      2.977939   422A      2.983981   423A      2.984330  
     424A      2.985772   425A      3.010598   426A      3.023269  
     427A      3.027186   428A      3.039246   429A      3.111494  
     430A      3.116794   431A      3.120060   432A      3.121155  
     433A      3.169068   434A      3.189890   435A      3.198046  
     436A      3.204200   437A      3.209302   438A      3.211057  
     439A      3.295210   440A      3.301385   441A      3.332928  
     442A      3.391792   443A      3.430707   444A      3.466648  
     445A      3.508749   446A      3.548096  

    Final Occupation by Irrep:
              A 
    DOCC [    42 ]

  @DF-RHF Final Energy:  -392.70778524804552

   => Energetics <=

    Nuclear Repulsion Energy =            543.0372270439949034
    One-Electron Energy =               -1605.4368839411474710
    Two-Electron Energy =                 669.6918716491069290
    Total Energy =                       -392.7077852480455249

Computation Completed


Properties will be evaluated at   0.000000,   0.000000,   0.000000 [a0]

Properties computed using the SCF density matrix

  Nuclear Dipole Moment: [e a0]
     X:     0.0004      Y:    -0.0012      Z:    -0.0001

  Electronic Dipole Moment: [e a0]
     X:    -0.0004      Y:     0.0012      Z:     0.0001

  Dipole Moment: [e a0]
     X:    -0.0000      Y:    -0.0000      Z:     0.0000     Total:     0.0000

  Dipole Moment: [D]
     X:    -0.0000      Y:    -0.0000      Z:     0.0000     Total:     0.0000


*** tstop() called on node80.bme.utexas.edu at Thu Apr 23 18:04:36 2020
Module time:
	user time   =     187.88 seconds =       3.13 minutes
	system time =       2.85 seconds =       0.05 minutes
	total time  =         26 seconds =       0.43 minutes
Total time:
	user time   =     187.88 seconds =       3.13 minutes
	system time =       2.85 seconds =       0.05 minutes
	total time  =         26 seconds =       0.43 minutes

  //>>>>>>>>>>>>>>>>>>>>>>>>>>>>>>>>>>>//
  //            Monomer A HF           //
  //<<<<<<<<<<<<<<<<<<<<<<<<<<<<<<<<<<<//


*** tstart() called on node80.bme.utexas.edu
*** at Thu Apr 23 18:04:36 2020

   => Loading Basis Set <=

    Name: AUG-CC-PVDZ
    Role: ORBITAL
    Keyword: BASIS
    atoms 1, 5, 8, 11, 14, 18, 22, 25, 28, 31                             entry C          line   182 file /home/liuchw/anaconda3/envs/psi4env/share/psi4/basis/aug-cc-pvdz.gbs 
    atoms 2-4, 6-7, 9-10, 12-13, 15-17, 19-21, 23-24, 26-27, 29-30, 32-34 entry H          line    40 file /home/liuchw/anaconda3/envs/psi4env/share/psi4/basis/aug-cc-pvdz.gbs 


         ---------------------------------------------------------
                                   SCF
               by Justin Turney, Rob Parrish, Andy Simmonett
                          and Daniel G. A. Smith
                              RHF Reference
                        8 Threads,  19073 MiB Core
         ---------------------------------------------------------

  ==> Geometry <==

    Molecular point group: c1
    Full point group: C1

    Geometry (in Angstrom), charge = 0, multiplicity = 1:

       Center              X                  Y                   Z               Mass       
    ------------   -----------------  -----------------  -----------------  -----------------
         C           -2.533298145351    -0.284829998261    -2.404679301033    12.000000000000
         H           -2.563618145351    -0.967029998261    -3.254249301033     1.007825032230
         H           -2.566968145351    -0.885829998261    -1.496099301033     1.007825032230
         H           -3.434418145351     0.326010001739    -2.433729301033     1.007825032230
         C           -1.271868145351     0.567710001739    -2.443469301033    12.000000000000
         H           -1.271018145351     1.266620001739    -1.603509301033     1.007825032230
         H           -1.266618145351     1.177950001739    -3.349659301033     1.007825032230
         C           -0.000128145351    -0.268369998261    -2.398229301033    12.000000000000
         H           -0.000148145351    -0.877179998261    -1.489189301033     1.007825032230
         H           -0.000348145351    -0.970659998261    -3.237229301033     1.007825032230
         C            1.271901854649     0.567430001739    -2.443769301033    12.000000000000
         H            1.270981854649     1.266680001739    -1.604119301033     1.007825032230
         H            1.266651854649     1.177230001739    -3.350219301033     1.007825032230
         C            2.533411854649    -0.284889998261    -2.404549301033    12.000000000000
         H            2.563931854649    -0.967719998261    -3.253609301033     1.007825032230
         H            3.434321854649     0.326300001739    -2.434229301033     1.007825032230
         H            2.567571854649    -0.885159998261    -1.495499301033     1.007825032230
      Gh(C)           2.533561854649     0.284510001739     2.404550698967    12.000000000000
      Gh(H)           2.568151854649     0.884320001739     1.495230698967     1.007825032230
      Gh(H)           2.564071854649     0.967720001739     3.253300698967     1.007825032230
      Gh(H)           3.434251854649    -0.326989998261     2.434760698967     1.007825032230
      Gh(C)           1.271741854649    -0.567379998261     2.443860698967    12.000000000000
      Gh(H)           1.266291854649    -1.177099998261     3.350360698967     1.007825032230
      Gh(H)           1.270611854649    -1.266729998261     1.604280698967     1.007825032230
      Gh(C)          -0.000038145351     0.268720001739     2.398240698967    12.000000000000
      Gh(H)          -0.000188145351     0.971030001739     3.237230698967     1.007825032230
      Gh(H)           0.000041854649     0.877500001739     1.489170698967     1.007825032230
      Gh(C)          -1.271798145351    -0.567419998261     2.443510698967    12.000000000000
      Gh(H)          -1.266408145351    -1.177529998261     3.349760698967     1.007825032230
      Gh(H)          -1.270688145351    -1.266439998261     1.603650698967     1.007825032230
      Gh(C)          -2.533518145351     0.284630001739     2.404540698967    12.000000000000
      Gh(H)          -2.567708145351     0.885160001739     1.495660698967     1.007825032230
      Gh(H)          -3.434318145351    -0.326669998261     2.434050698967     1.007825032230
      Gh(H)          -2.564058145351     0.967210001739     3.253800698967     1.007825032230

  Running in c1 symmetry.

  Rotational constants: A =      0.03105  B =      0.01867  C =      0.01241 [cm^-1]
  Rotational constants: A =    930.97125  B =    559.70498  C =    371.94782 [MHz]
  Nuclear repulsion =  185.636650239487523

  Charge       = 0
  Multiplicity = 1
  Electrons    = 42
  Nalpha       = 21
  Nbeta        = 21

  ==> Algorithm <==

  SCF Algorithm Type is DF.
  DIIS enabled.
  MOM disabled.
  Fractional occupation disabled.
  Guess Type is SAD.
  Energy threshold   = 1.00e-08
  Density threshold  = 1.00e-08
  Integral threshold = 0.00e+00

  ==> Primary Basis <==

  Basis Set: AUG-CC-PVDZ
    Blend: AUG-CC-PVDZ
    Number of shells: 210
    Number of basis function: 446
    Number of Cartesian functions: 466
    Spherical Harmonics?: true
    Max angular momentum: 2

   => Loading Basis Set <=

    Name: (AUG-CC-PVDZ AUX)
    Role: JKFIT
    Keyword: DF_BASIS_SCF
    atoms 1, 5, 8, 11, 14, 18, 22, 25, 28, 31                             entry C          line   154 file /home/liuchw/anaconda3/envs/psi4env/share/psi4/basis/aug-cc-pvdz-jkfit.gbs 
    atoms 2-4, 6-7, 9-10, 12-13, 15-17, 19-21, 23-24, 26-27, 29-30, 32-34 entry H          line    70 file /home/liuchw/anaconda3/envs/psi4env/share/psi4/basis/aug-cc-pvdz-jkfit.gbs 

  ==> Pre-Iterations <==

   -------------------------------------------------------
    Irrep   Nso     Nmo     Nalpha   Nbeta   Ndocc  Nsocc
   -------------------------------------------------------
     A        446     446       0       0       0       0
   -------------------------------------------------------
    Total     446     446      21      21      21       0
   -------------------------------------------------------

  ==> Integral Setup <==

  ==> DiskDFJK: Density-Fitted J/K Matrices <==

    J tasked:                  Yes
    K tasked:                  Yes
    wK tasked:                  No
    OpenMP threads:              8
    Integrals threads:           8
    Memory [MiB]:            14305
    Algorithm:                Core
    Integral Cache:           LOAD
    Schwarz Cutoff:          1E-12
    Fitting Condition:       1E-10

   => Auxiliary Basis Set <=

  Basis Set: (AUG-CC-PVDZ AUX)
    Blend: AUG-CC-PVDZ-JKFIT
    Number of shells: 568
    Number of basis function: 1628
    Number of Cartesian functions: 1850
    Spherical Harmonics?: true
    Max angular momentum: 3

  Minimum eigenvalue in the overlap matrix is 8.1543789309E-06.
  Using Symmetric Orthogonalization.

  SCF Guess: Superposition of Atomic Densities via on-the-fly atomic UHF.

  ==> Iterations <==

                           Total Energy        Delta E     RMS |[F,P]|

   @DF-RHF iter SAD:  -195.86354344299545   -1.95864e+02   0.00000e+00 
   @DF-RHF iter   1:  -196.08607511216229   -2.22532e-01   1.44322e-03 DIIS
   @DF-RHF iter   2:  -196.30519560492877   -2.19120e-01   6.46930e-04 DIIS
   @DF-RHF iter   3:  -196.35100437764785   -4.58088e-02   1.14508e-04 DIIS
   @DF-RHF iter   4:  -196.35390692577354   -2.90255e-03   2.41592e-05 DIIS
   @DF-RHF iter   5:  -196.35399857832027   -9.16525e-05   6.94313e-06 DIIS
   @DF-RHF iter   6:  -196.35400754263497   -8.96431e-06   1.01460e-06 DIIS
   @DF-RHF iter   7:  -196.35400777801945   -2.35384e-07   2.11372e-07 DIIS
   @DF-RHF iter   8:  -196.35400778885815   -1.08387e-08   4.04030e-08 DIIS
   @DF-RHF iter   9:  -196.35400778923989   -3.81732e-10   1.33826e-08 DIIS
   @DF-RHF iter  10:  -196.35400778927345   -3.35660e-11   3.19055e-09 DIIS
  Energy and wave function converged.


  ==> Post-Iterations <==

    Orbital Energies [Eh]
    ---------------------

    Doubly Occupied:                                                      

       1A    -11.218258     2A    -11.218198     3A    -11.215626  
       4A    -11.213947     5A    -11.213941     6A     -1.082582  
       7A     -1.016617     8A     -0.920018     9A     -0.820550  
      10A     -0.785390    11A     -0.646840    12A     -0.598012  
      13A     -0.592361    14A     -0.553473    15A     -0.546772  
      16A     -0.525008    17A     -0.493738    18A     -0.474867  
      19A     -0.460988    20A     -0.458001    21A     -0.446180  

    Virtual:                                                              

      22A      0.022333    23A      0.033510    24A      0.039069  
      25A      0.040251    26A      0.048921    27A      0.052394  
      28A      0.053392    29A      0.057517    30A      0.058878  
      31A      0.069459    32A      0.072662    33A      0.074542  
      34A      0.076610    35A      0.084583    36A      0.085554  
      37A      0.086270    38A      0.093804    39A      0.099764  
      40A      0.101093    41A      0.105737    42A      0.108263  
      43A      0.111564    44A      0.118667    45A      0.125672  
      46A      0.128315    47A      0.133982    48A      0.135085  
      49A      0.135748    50A      0.147279    51A      0.150888  
      52A      0.152797    53A      0.158558    54A      0.159496  
      55A      0.165201    56A      0.168189    57A      0.170379  
      58A      0.173042    59A      0.177435    60A      0.178343  
      61A      0.183366    62A      0.187473    63A      0.191520  
      64A      0.194388    65A      0.197251    66A      0.205105  
      67A      0.207232    68A      0.209652    69A      0.212458  
      70A      0.218433    71A      0.221433    72A      0.223957  
      73A      0.226295    74A      0.226383    75A      0.230372  
      76A      0.238462    77A      0.239811    78A      0.243788  
      79A      0.253768    80A      0.256507    81A      0.259806  
      82A      0.264697    83A      0.268818    84A      0.284923  
      85A      0.287957    86A      0.299026    87A      0.302262  
      88A      0.317869    89A      0.318575    90A      0.322782  
      91A      0.327222    92A      0.334244    93A      0.341309  
      94A      0.349128    95A      0.353994    96A      0.361098  
      97A      0.369912    98A      0.372002    99A      0.376442  
     100A      0.379048   101A      0.393224   102A      0.396619  
     103A      0.398647   104A      0.399260   105A      0.403165  
     106A      0.414946   107A      0.415910   108A      0.418992  
     109A      0.423652   110A      0.427508   111A      0.429249  
     112A      0.437385   113A      0.439145   114A      0.446507  
     115A      0.450242   116A      0.453776   117A      0.458944  
     118A      0.461793   119A      0.465870   120A      0.473136  
     121A      0.475500   122A      0.477582   123A      0.484227  
     124A      0.490020   125A      0.491680   126A      0.494609  
     127A      0.499877   128A      0.506017   129A      0.507007  
     130A      0.510602   131A      0.512348   132A      0.516630  
     133A      0.521090   134A      0.531146   135A      0.536432  
     136A      0.538598   137A      0.539477   138A      0.544625  
     139A      0.551082   140A      0.557308   141A      0.560597  
     142A      0.570701   143A      0.577472   144A      0.577576  
     145A      0.580043   146A      0.584749   147A      0.592410  
     148A      0.597284   149A      0.598789   150A      0.602150  
     151A      0.608100   152A      0.614145   153A      0.629103  
     154A      0.633547   155A      0.635175   156A      0.645260  
     157A      0.649902   158A      0.649937   159A      0.657422  
     160A      0.658118   161A      0.661843   162A      0.673738  
     163A      0.674602   164A      0.686899   165A      0.687087  
     166A      0.691080   167A      0.692249   168A      0.696723  
     169A      0.699358   170A      0.706019   171A      0.709398  
     172A      0.711191   173A      0.716662   174A      0.717821  
     175A      0.723680   176A      0.728925   177A      0.737424  
     178A      0.745253   179A      0.751536   180A      0.757208  
     181A      0.760809   182A      0.770575   183A      0.772079  
     184A      0.778243   185A      0.787195   186A      0.787975  
     187A      0.794135   188A      0.799422   189A      0.807226  
     190A      0.810988   191A      0.813869   192A      0.815121  
     193A      0.820996   194A      0.822324   195A      0.829346  
     196A      0.833719   197A      0.848460   198A      0.852812  
     199A      0.860104   200A      0.865679   201A      0.866803  
     202A      0.870257   203A      0.881185   204A      0.884317  
     205A      0.885536   206A      0.887376   207A      0.893405  
     208A      0.899161   209A      0.901493   210A      0.910241  
     211A      0.916743   212A      0.920206   213A      0.931455  
     214A      0.935023   215A      0.946493   216A      0.950776  
     217A      0.956999   218A      0.961625   219A      0.965190  
     220A      0.974345   221A      0.976329   222A      0.978524  
     223A      0.982753   224A      0.988255   225A      0.995794  
     226A      0.996544   227A      1.004760   228A      1.006627  
     229A      1.013672   230A      1.019155   231A      1.021340  
     232A      1.037149   233A      1.043766   234A      1.069215  
     235A      1.073183   236A      1.074793   237A      1.084408  
     238A      1.091585   239A      1.106718   240A      1.112774  
     241A      1.119481   242A      1.123504   243A      1.135277  
     244A      1.145523   245A      1.152180   246A      1.156104  
     247A      1.188397   248A      1.191060   249A      1.200940  
     250A      1.212187   251A      1.213059   252A      1.219691  
     253A      1.240787   254A      1.242001   255A      1.247037  
     256A      1.258879   257A      1.264199   258A      1.266322  
     259A      1.301478   260A      1.311810   261A      1.316959  
     262A      1.333956   263A      1.345634   264A      1.358785  
     265A      1.396548   266A      1.428370   267A      1.432815  
     268A      1.466563   269A      1.472651   270A      1.491581  
     271A      1.512572   272A      1.554741   273A      1.570036  
     274A      1.611669   275A      1.611742   276A      1.640873  
     277A      1.651234   278A      1.673382   279A      1.704759  
     280A      1.748377   281A      1.785531   282A      1.830067  
     283A      1.856290   284A      1.877331   285A      1.881559  
     286A      1.895044   287A      1.934991   288A      1.938643  
     289A      1.938985   290A      1.960393   291A      1.965942  
     292A      1.993990   293A      1.998205   294A      2.017598  
     295A      2.028041   296A      2.034710   297A      2.076621  
     298A      2.090479   299A      2.097543   300A      2.099847  
     301A      2.114326   302A      2.115795   303A      2.120733  
     304A      2.121356   305A      2.131087   306A      2.135723  
     307A      2.140317   308A      2.149963   309A      2.157219  
     310A      2.165466   311A      2.169365   312A      2.187543  
     313A      2.210865   314A      2.219603   315A      2.232737  
     316A      2.240133   317A      2.249233   318A      2.263213  
     319A      2.284451   320A      2.291894   321A      2.295186  
     322A      2.309111   323A      2.309668   324A      2.317119  
     325A      2.333358   326A      2.338671   327A      2.345529  
     328A      2.352406   329A      2.357189   330A      2.360371  
     331A      2.362806   332A      2.377299   333A      2.379704  
     334A      2.385904   335A      2.405914   336A      2.411063  
     337A      2.411779   338A      2.414700   339A      2.421929  
     340A      2.430919   341A      2.436016   342A      2.440685  
     343A      2.445952   344A      2.453104   345A      2.456882  
     346A      2.468243   347A      2.477788   348A      2.479308  
     349A      2.488677   350A      2.491160   351A      2.514572  
     352A      2.517779   353A      2.522183   354A      2.541023  
     355A      2.541147   356A      2.558373   357A      2.562470  
     358A      2.572213   359A      2.580350   360A      2.594239  
     361A      2.601288   362A      2.614793   363A      2.625690  
     364A      2.633737   365A      2.665534   366A      2.686216  
     367A      2.698847   368A      2.700755   369A      2.722617  
     370A      2.722864   371A      2.734193   372A      2.744330  
     373A      2.754139   374A      2.778403   375A      2.790266  
     376A      2.801773   377A      2.817977   378A      2.824432  
     379A      2.857826   380A      2.872479   381A      2.879379  
     382A      2.907829   383A      2.909421   384A      2.912848  
     385A      2.919604   386A      2.923125   387A      2.980314  
     388A      2.980629   389A      2.984216   390A      2.990179  
     391A      3.026185   392A      3.030906   393A      3.069751  
     394A      3.090318   395A      3.105821   396A      3.113531  
     397A      3.118428   398A      3.129270   399A      3.159869  
     400A      3.197511   401A      3.202640   402A      3.206323  
     403A      3.225994   404A      3.241522   405A      3.255892  
     406A      3.314599   407A      3.325114   408A      3.356769  
     409A      3.383247   410A      3.407387   411A      3.440615  
     412A      3.446898   413A      3.455012   414A      3.457556  
     415A      3.463037   416A      3.479922   417A      3.524705  
     418A      3.575147   419A      3.586592   420A      3.666428  
     421A      3.722283   422A      3.734790   423A      3.765835  
     424A      3.829259   425A      3.964036   426A      4.105864  
     427A      4.308739   428A      4.417861   429A      4.510714  
     430A      4.515125   431A      4.787544   432A      4.826877  
     433A      4.876174   434A      4.933797   435A      4.986743  
     436A      5.027332   437A      5.116712   438A      5.179943  
     439A      5.244512   440A      5.270606   441A      5.375162  
     442A     18.256882   443A     18.447952   444A     18.682706  
     445A     19.006123   446A     19.185561  

    Final Occupation by Irrep:
              A 
    DOCC [    21 ]

  @DF-RHF Final Energy:  -196.35400778927345

   => Energetics <=

    Nuclear Repulsion Energy =            185.6366502394875226
    One-Electron Energy =                -630.9785842130738729
    Two-Electron Energy =                 248.9879261843129257
    Total Energy =                       -196.3540077892734530

Computation Completed


Properties will be evaluated at   0.000000,   0.000000,   0.000000 [a0]

Properties computed using the SCF density matrix

  Nuclear Dipole Moment: [e a0]
     X:     0.0008      Y:     3.3439      Z:  -191.9386

  Electronic Dipole Moment: [e a0]
     X:    -0.0008      Y:    -3.3099      Z:   191.9367

  Dipole Moment: [e a0]
     X:     0.0000      Y:     0.0340      Z:    -0.0019     Total:     0.0340

  Dipole Moment: [D]
     X:     0.0000      Y:     0.0864      Z:    -0.0048     Total:     0.0865


*** tstop() called on node80.bme.utexas.edu at Thu Apr 23 18:04:49 2020
Module time:
	user time   =      81.16 seconds =       1.35 minutes
	system time =       1.54 seconds =       0.03 minutes
	total time  =         13 seconds =       0.22 minutes
Total time:
	user time   =     269.10 seconds =       4.49 minutes
	system time =       4.39 seconds =       0.07 minutes
	total time  =         39 seconds =       0.65 minutes

  //>>>>>>>>>>>>>>>>>>>>>>>>>>>>>>>>>>>//
  //            Monomer B HF           //
  //<<<<<<<<<<<<<<<<<<<<<<<<<<<<<<<<<<<//


*** tstart() called on node80.bme.utexas.edu
*** at Thu Apr 23 18:04:49 2020

   => Loading Basis Set <=

    Name: AUG-CC-PVDZ
    Role: ORBITAL
    Keyword: BASIS
    atoms 1, 5, 8, 11, 14, 18, 22, 25, 28, 31                             entry C          line   182 file /home/liuchw/anaconda3/envs/psi4env/share/psi4/basis/aug-cc-pvdz.gbs 
    atoms 2-4, 6-7, 9-10, 12-13, 15-17, 19-21, 23-24, 26-27, 29-30, 32-34 entry H          line    40 file /home/liuchw/anaconda3/envs/psi4env/share/psi4/basis/aug-cc-pvdz.gbs 


         ---------------------------------------------------------
                                   SCF
               by Justin Turney, Rob Parrish, Andy Simmonett
                          and Daniel G. A. Smith
                              RHF Reference
                        8 Threads,  19073 MiB Core
         ---------------------------------------------------------

  ==> Geometry <==

    Molecular point group: c1
    Full point group: C1

    Geometry (in Angstrom), charge = 0, multiplicity = 1:

       Center              X                  Y                   Z               Mass       
    ------------   -----------------  -----------------  -----------------  -----------------
      Gh(C)          -2.533298145351    -0.284829998261    -2.404679301033    12.000000000000
      Gh(H)          -2.563618145351    -0.967029998261    -3.254249301033     1.007825032230
      Gh(H)          -2.566968145351    -0.885829998261    -1.496099301033     1.007825032230
      Gh(H)          -3.434418145351     0.326010001739    -2.433729301033     1.007825032230
      Gh(C)          -1.271868145351     0.567710001739    -2.443469301033    12.000000000000
      Gh(H)          -1.271018145351     1.266620001739    -1.603509301033     1.007825032230
      Gh(H)          -1.266618145351     1.177950001739    -3.349659301033     1.007825032230
      Gh(C)          -0.000128145351    -0.268369998261    -2.398229301033    12.000000000000
      Gh(H)          -0.000148145351    -0.877179998261    -1.489189301033     1.007825032230
      Gh(H)          -0.000348145351    -0.970659998261    -3.237229301033     1.007825032230
      Gh(C)           1.271901854649     0.567430001739    -2.443769301033    12.000000000000
      Gh(H)           1.270981854649     1.266680001739    -1.604119301033     1.007825032230
      Gh(H)           1.266651854649     1.177230001739    -3.350219301033     1.007825032230
      Gh(C)           2.533411854649    -0.284889998261    -2.404549301033    12.000000000000
      Gh(H)           2.563931854649    -0.967719998261    -3.253609301033     1.007825032230
      Gh(H)           3.434321854649     0.326300001739    -2.434229301033     1.007825032230
      Gh(H)           2.567571854649    -0.885159998261    -1.495499301033     1.007825032230
         C            2.533561854649     0.284510001739     2.404550698967    12.000000000000
         H            2.568151854649     0.884320001739     1.495230698967     1.007825032230
         H            2.564071854649     0.967720001739     3.253300698967     1.007825032230
         H            3.434251854649    -0.326989998261     2.434760698967     1.007825032230
         C            1.271741854649    -0.567379998261     2.443860698967    12.000000000000
         H            1.266291854649    -1.177099998261     3.350360698967     1.007825032230
         H            1.270611854649    -1.266729998261     1.604280698967     1.007825032230
         C           -0.000038145351     0.268720001739     2.398240698967    12.000000000000
         H           -0.000188145351     0.971030001739     3.237230698967     1.007825032230
         H            0.000041854649     0.877500001739     1.489170698967     1.007825032230
         C           -1.271798145351    -0.567419998261     2.443510698967    12.000000000000
         H           -1.266408145351    -1.177529998261     3.349760698967     1.007825032230
         H           -1.270688145351    -1.266439998261     1.603650698967     1.007825032230
         C           -2.533518145351     0.284630001739     2.404540698967    12.000000000000
         H           -2.567708145351     0.885160001739     1.495660698967     1.007825032230
         H           -3.434318145351    -0.326669998261     2.434050698967     1.007825032230
         H           -2.564058145351     0.967210001739     3.253800698967     1.007825032230

  Running in c1 symmetry.

  Rotational constants: A =      0.03105  B =      0.01867  C =      0.01241 [cm^-1]
  Rotational constants: A =    930.97125  B =    559.70498  C =    371.94782 [MHz]
  Nuclear repulsion =  185.635528449245356

  Charge       = 0
  Multiplicity = 1
  Electrons    = 42
  Nalpha       = 21
  Nbeta        = 21

  ==> Algorithm <==

  SCF Algorithm Type is DF.
  DIIS enabled.
  MOM disabled.
  Fractional occupation disabled.
  Guess Type is SAD.
  Energy threshold   = 1.00e-08
  Density threshold  = 1.00e-08
  Integral threshold = 0.00e+00

  ==> Primary Basis <==

  Basis Set: AUG-CC-PVDZ
    Blend: AUG-CC-PVDZ
    Number of shells: 210
    Number of basis function: 446
    Number of Cartesian functions: 466
    Spherical Harmonics?: true
    Max angular momentum: 2

   => Loading Basis Set <=

    Name: (AUG-CC-PVDZ AUX)
    Role: JKFIT
    Keyword: DF_BASIS_SCF
    atoms 1, 5, 8, 11, 14, 18, 22, 25, 28, 31                             entry C          line   154 file /home/liuchw/anaconda3/envs/psi4env/share/psi4/basis/aug-cc-pvdz-jkfit.gbs 
    atoms 2-4, 6-7, 9-10, 12-13, 15-17, 19-21, 23-24, 26-27, 29-30, 32-34 entry H          line    70 file /home/liuchw/anaconda3/envs/psi4env/share/psi4/basis/aug-cc-pvdz-jkfit.gbs 

  ==> Pre-Iterations <==

   -------------------------------------------------------
    Irrep   Nso     Nmo     Nalpha   Nbeta   Ndocc  Nsocc
   -------------------------------------------------------
     A        446     446       0       0       0       0
   -------------------------------------------------------
    Total     446     446      21      21      21       0
   -------------------------------------------------------

  ==> Integral Setup <==

  ==> DiskDFJK: Density-Fitted J/K Matrices <==

    J tasked:                  Yes
    K tasked:                  Yes
    wK tasked:                  No
    OpenMP threads:              8
    Integrals threads:           8
    Memory [MiB]:            14305
    Algorithm:                Core
    Integral Cache:           LOAD
    Schwarz Cutoff:          1E-12
    Fitting Condition:       1E-10

   => Auxiliary Basis Set <=

  Basis Set: (AUG-CC-PVDZ AUX)
    Blend: AUG-CC-PVDZ-JKFIT
    Number of shells: 568
    Number of basis function: 1628
    Number of Cartesian functions: 1850
    Spherical Harmonics?: true
    Max angular momentum: 3

  Minimum eigenvalue in the overlap matrix is 8.1543789309E-06.
  Using Symmetric Orthogonalization.

  SCF Guess: Superposition of Atomic Densities via on-the-fly atomic UHF.

  ==> Iterations <==

                           Total Energy        Delta E     RMS |[F,P]|

   @DF-RHF iter SAD:  -195.86350816213843   -1.95864e+02   0.00000e+00 
   @DF-RHF iter   1:  -196.08607808268073   -2.22570e-01   1.44321e-03 DIIS
   @DF-RHF iter   2:  -196.30519852102103   -2.19120e-01   6.46918e-04 DIIS
   @DF-RHF iter   3:  -196.35100566811894   -4.58071e-02   1.14509e-04 DIIS
   @DF-RHF iter   4:  -196.35390820758727   -2.90254e-03   2.41613e-05 DIIS
   @DF-RHF iter   5:  -196.35399987157726   -9.16640e-05   6.94313e-06 DIIS
   @DF-RHF iter   6:  -196.35400883619980   -8.96462e-06   1.01460e-06 DIIS
   @DF-RHF iter   7:  -196.35400907157316   -2.35373e-07   2.11395e-07 DIIS
   @DF-RHF iter   8:  -196.35400908241496   -1.08418e-08   4.04259e-08 DIIS
   @DF-RHF iter   9:  -196.35400908279686   -3.81903e-10   1.33935e-08 DIIS
   @DF-RHF iter  10:  -196.35400908282926   -3.24007e-11   3.19030e-09 DIIS
  Energy and wave function converged.


  ==> Post-Iterations <==

    Orbital Energies [Eh]
    ---------------------

    Doubly Occupied:                                                      

       1A    -11.218256     2A    -11.218196     3A    -11.215629  
       4A    -11.213946     5A    -11.213942     6A     -1.082581  
       7A     -1.016610     8A     -0.920033     9A     -0.820540  
      10A     -0.785391    11A     -0.646840    12A     -0.597997  
      13A     -0.592358    14A     -0.553490    15A     -0.546777  
      16A     -0.525022    17A     -0.493728    18A     -0.474860  
      19A     -0.460986    20A     -0.458002    21A     -0.446179  

    Virtual:                                                              

      22A      0.022333    23A      0.033510    24A      0.039070  
      25A      0.040250    26A      0.048920    27A      0.052394  
      28A      0.053392    29A      0.057518    30A      0.058877  
      31A      0.069460    32A      0.072662    33A      0.074542  
      34A      0.076610    35A      0.084578    36A      0.085552  
      37A      0.086277    38A      0.093804    39A      0.099766  
      40A      0.101095    41A      0.105744    42A      0.108256  
      43A      0.111573    44A      0.118670    45A      0.125658  
      46A      0.128306    47A      0.133990    48A      0.135081  
      49A      0.135743    50A      0.147274    51A      0.150893  
      52A      0.152800    53A      0.158563    54A      0.159495  
      55A      0.165203    56A      0.168187    57A      0.170380  
      58A      0.173047    59A      0.177431    60A      0.178343  
      61A      0.183363    62A      0.187466    63A      0.191522  
      64A      0.194386    65A      0.197254    66A      0.205110  
      67A      0.207236    68A      0.209647    69A      0.212468  
      70A      0.218430    71A      0.221438    72A      0.223941  
      73A      0.226288    74A      0.226373    75A      0.230394  
      76A      0.238450    77A      0.239817    78A      0.243790  
      79A      0.253777    80A      0.256524    81A      0.259801  
      82A      0.264696    83A      0.268821    84A      0.284917  
      85A      0.287967    86A      0.299024    87A      0.302272  
      88A      0.317849    89A      0.318578    90A      0.322774  
      91A      0.327224    92A      0.334239    93A      0.341301  
      94A      0.349136    95A      0.353984    96A      0.361105  
      97A      0.369915    98A      0.372027    99A      0.376420  
     100A      0.379041   101A      0.393223   102A      0.396599  
     103A      0.398655   104A      0.399267   105A      0.403150  
     106A      0.414940   107A      0.415906   108A      0.418998  
     109A      0.423658   110A      0.427504   111A      0.429257  
     112A      0.437387   113A      0.439169   114A      0.446505  
     115A      0.450245   116A      0.453783   117A      0.458939  
     118A      0.461784   119A      0.465874   120A      0.473131  
     121A      0.475506   122A      0.477590   123A      0.484249  
     124A      0.490005   125A      0.491671   126A      0.494629  
     127A      0.499860   128A      0.506035   129A      0.506974  
     130A      0.510609   131A      0.512357   132A      0.516627  
     133A      0.521089   134A      0.531142   135A      0.536430  
     136A      0.538571   137A      0.539488   138A      0.544595  
     139A      0.551049   140A      0.557324   141A      0.560615  
     142A      0.570680   143A      0.577463   144A      0.577599  
     145A      0.580057   146A      0.584793   147A      0.592416  
     148A      0.597283   149A      0.598790   150A      0.602144  
     151A      0.608120   152A      0.614121   153A      0.629106  
     154A      0.633519   155A      0.635192   156A      0.645284  
     157A      0.649894   158A      0.649930   159A      0.657413  
     160A      0.658106   161A      0.661836   162A      0.673736  
     163A      0.674590   164A      0.686893   165A      0.687082  
     166A      0.691080   167A      0.692243   168A      0.696699  
     169A      0.699353   170A      0.706077   171A      0.709401  
     172A      0.711176   173A      0.716670   174A      0.717818  
     175A      0.723681   176A      0.728888   177A      0.737439  
     178A      0.745313   179A      0.751512   180A      0.757195  
     181A      0.760763   182A      0.770592   183A      0.772103  
     184A      0.778254   185A      0.787175   186A      0.787988  
     187A      0.794160   188A      0.799444   189A      0.807241  
     190A      0.811003   191A      0.813842   192A      0.815155  
     193A      0.820954   194A      0.822360   195A      0.829344  
     196A      0.833733   197A      0.848451   198A      0.852810  
     199A      0.860082   200A      0.865682   201A      0.866786  
     202A      0.870269   203A      0.881170   204A      0.884323  
     205A      0.885536   206A      0.887399   207A      0.893390  
     208A      0.899162   209A      0.901501   210A      0.910249  
     211A      0.916725   212A      0.920183   213A      0.931493  
     214A      0.935015   215A      0.946523   216A      0.950799  
     217A      0.957028   218A      0.961613   219A      0.965195  
     220A      0.974324   221A      0.976232   222A      0.978522  
     223A      0.982737   224A      0.988266   225A      0.995823  
     226A      0.996505   227A      1.004805   228A      1.006629  
     229A      1.013707   230A      1.019160   231A      1.021320  
     232A      1.037127   233A      1.043745   234A      1.069273  
     235A      1.073174   236A      1.074826   237A      1.084480  
     238A      1.091586   239A      1.106667   240A      1.112730  
     241A      1.119506   242A      1.123509   243A      1.135338  
     244A      1.145499   245A      1.152152   246A      1.156089  
     247A      1.188365   248A      1.191081   249A      1.200939  
     250A      1.212197   251A      1.213059   252A      1.219607  
     253A      1.240773   254A      1.241988   255A      1.247075  
     256A      1.258792   257A      1.264246   258A      1.266254  
     259A      1.301450   260A      1.311865   261A      1.316935  
     262A      1.333935   263A      1.345622   264A      1.358790  
     265A      1.396627   266A      1.428353   267A      1.432825  
     268A      1.466632   269A      1.472618   270A      1.491507  
     271A      1.512574   272A      1.554712   273A      1.570089  
     274A      1.611691   275A      1.611710   276A      1.640853  
     277A      1.651303   278A      1.673409   279A      1.704672  
     280A      1.748369   281A      1.785640   282A      1.830022  
     283A      1.856358   284A      1.877346   285A      1.881594  
     286A      1.895083   287A      1.934959   288A      1.938646  
     289A      1.938938   290A      1.960379   291A      1.965972  
     292A      1.993961   293A      1.998190   294A      2.017638  
     295A      2.028013   296A      2.034715   297A      2.076606  
     298A      2.090490   299A      2.097548   300A      2.099817  
     301A      2.114316   302A      2.115800   303A      2.120622  
     304A      2.121374   305A      2.131108   306A      2.135751  
     307A      2.140394   308A      2.149977   309A      2.157239  
     310A      2.165418   311A      2.169440   312A      2.187557  
     313A      2.210895   314A      2.219495   315A      2.232716  
     316A      2.240073   317A      2.249252   318A      2.263241  
     319A      2.284496   320A      2.291827   321A      2.295183  
     322A      2.309102   323A      2.309693   324A      2.317153  
     325A      2.333376   326A      2.338733   327A      2.345510  
     328A      2.352400   329A      2.357162   330A      2.360359  
     331A      2.362807   332A      2.377347   333A      2.379700  
     334A      2.385860   335A      2.405913   336A      2.411075  
     337A      2.411783   338A      2.414642   339A      2.421940  
     340A      2.430929   341A      2.436028   342A      2.440622  
     343A      2.445926   344A      2.453186   345A      2.456856  
     346A      2.468227   347A      2.477731   348A      2.479325  
     349A      2.488605   350A      2.491196   351A      2.514545  
     352A      2.517846   353A      2.522171   354A      2.541112  
     355A      2.541164   356A      2.558240   357A      2.562479  
     358A      2.572217   359A      2.580478   360A      2.594089  
     361A      2.601261   362A      2.614700   363A      2.625795  
     364A      2.633806   365A      2.665639   366A      2.686171  
     367A      2.698944   368A      2.700807   369A      2.722566  
     370A      2.722845   371A      2.734215   372A      2.744343  
     373A      2.754100   374A      2.778470   375A      2.790315  
     376A      2.801783   377A      2.817972   378A      2.824413  
     379A      2.857847   380A      2.872514   381A      2.879391  
     382A      2.907807   383A      2.909372   384A      2.912832  
     385A      2.919607   386A      2.923105   387A      2.980333  
     388A      2.980661   389A      2.984231   390A      2.990122  
     391A      3.026137   392A      3.030949   393A      3.069752  
     394A      3.090328   395A      3.105837   396A      3.113566  
     397A      3.118303   398A      3.129309   399A      3.159910  
     400A      3.197470   401A      3.202669   402A      3.206296  
     403A      3.225991   404A      3.241537   405A      3.255838  
     406A      3.314576   407A      3.325090   408A      3.356754  
     409A      3.383185   410A      3.407336   411A      3.440743  
     412A      3.446859   413A      3.454921   414A      3.457521  
     415A      3.463101   416A      3.479927   417A      3.524761  
     418A      3.575221   419A      3.586568   420A      3.666328  
     421A      3.722342   422A      3.734764   423A      3.765667  
     424A      3.829300   425A      3.964022   426A      4.105887  
     427A      4.308745   428A      4.418011   429A      4.510808  
     430A      4.515064   431A      4.787536   432A      4.826923  
     433A      4.876147   434A      4.933792   435A      4.986714  
     436A      5.027343   437A      5.116707   438A      5.179989  
     439A      5.244533   440A      5.270580   441A      5.375157  
     442A     18.256883   443A     18.447986   444A     18.682646  
     445A     19.006166   446A     19.185487  

    Final Occupation by Irrep:
              A 
    DOCC [    21 ]

  @DF-RHF Final Energy:  -196.35400908282926

   => Energetics <=

    Nuclear Repulsion Energy =            185.6355284492453563
    One-Electron Energy =                -630.9763538531749418
    Two-Electron Energy =                 248.9868163211002923
    Total Energy =                       -196.3540090828292648

Computation Completed


Properties will be evaluated at   0.000000,   0.000000,   0.000000 [a0]

Properties computed using the SCF density matrix

  Nuclear Dipole Moment: [e a0]
     X:    -0.0005      Y:    -3.3451      Z:   191.9385

  Electronic Dipole Moment: [e a0]
     X:     0.0005      Y:     3.3111      Z:  -191.9366

  Dipole Moment: [e a0]
     X:    -0.0000      Y:    -0.0340      Z:     0.0019     Total:     0.0340

  Dipole Moment: [D]
     X:    -0.0000      Y:    -0.0864      Z:     0.0048     Total:     0.0865


*** tstop() called on node80.bme.utexas.edu at Thu Apr 23 18:05:01 2020
Module time:
	user time   =      81.39 seconds =       1.36 minutes
	system time =       1.55 seconds =       0.03 minutes
	total time  =         12 seconds =       0.20 minutes
Total time:
	user time   =     350.57 seconds =       5.84 minutes
	system time =       5.95 seconds =       0.10 minutes
	total time  =         51 seconds =       0.85 minutes
  Constructing Basis Sets for SAPT...

   => Loading Basis Set <=

    Name: (AUG-CC-PVDZ AUX)
    Role: RIFIT
    Keyword: DF_BASIS_SAPT
    atoms 1, 5, 8, 11, 14, 18, 22, 25, 28, 31                             entry C          line   112 file /home/liuchw/anaconda3/envs/psi4env/share/psi4/basis/aug-cc-pvdz-ri.gbs 
    atoms 2-4, 6-7, 9-10, 12-13, 15-17, 19-21, 23-24, 26-27, 29-30, 32-34 entry H          line    30 file /home/liuchw/anaconda3/envs/psi4env/share/psi4/basis/aug-cc-pvdz-ri.gbs 


  //>>>>>>>>>>>>>>>>>>>>>>>>>>>>>>>>>>>//
  //               SAPT2+              //
  //<<<<<<<<<<<<<<<<<<<<<<<<<<<<<<<<<<<//


*** tstart() called on node80.bme.utexas.edu
*** at Thu Apr 23 18:05:02 2020

        SAPT2+  
    Ed Hohenstein
     6 June 2009

      Orbital Information
  --------------------------
    NSO        =       446
    NMO        =       446
    NRI        =      1272
    NOCC A     =        21
    NOCC B     =        21
    FOCC A     =         5
    FOCC B     =         5
    NVIR A     =       425
    NVIR B     =       425

    Estimated memory usage: 3749.8 MB

    Natural Orbital Cutoff:   1.000E-06
    Disp(T3) Truncation:            Yes
    CCD (vv|vv) Truncation:         Yes
    MBPT T2 Truncation:             Yes

    Monomer A: 235 virtual orbitals dropped
    Monomer B: 235 virtual orbitals dropped

    Elst10,r            =    -0.000070159247 [Eh]
    Exch10 (S^2)        =     0.000332627800 [Eh]
    Exch10              =     0.000332633147 [Eh]
    Ind20,r (A<-B)      =    -0.000019031422 [Eh]
    Ind20,r (B<-A)      =    -0.000019038574 [Eh]
    Ind20,r             =    -0.000038069996 [Eh]
    Exch-Ind20,r (A<-B) =     0.000014523632 [Eh]
    Exch-Ind20,r (B<-A) =     0.000014530903 [Eh]
    Exch-Ind20,r        =     0.000029054535 [Eh]
    Disp20              =    -0.002905838569 [Eh]
    Disp20 (NO)         =    -0.002786095806 [Eh]
    Exch-Disp20         =     0.000053356216 [Eh]
    Elst12,r            =    -0.000041535573 [Eh]
    Exch11              =     0.000002280761 [Eh]
    Exch12              =     0.000069148087 [Eh]
    Ind22               =    -0.000010455173 [Eh]
    Disp21              =     0.000345447200 [Eh]
    Disp22 (SDQ)        =     0.000030226752 [Eh]

    (i =   1 of  16)         49 seconds
    (i =   2 of  16)         97 seconds
    (i =   3 of  16)        145 seconds
    (i =   4 of  16)        194 seconds
    (i =   5 of  16)        242 seconds
    (i =   6 of  16)        290 seconds
    (i =   7 of  16)        338 seconds
    (i =   8 of  16)        387 seconds
    (i =   9 of  16)        435 seconds
    (i =  10 of  16)        484 seconds
    (i =  11 of  16)        532 seconds
    (i =  12 of  16)        580 seconds
    (i =  13 of  16)        629 seconds
    (i =  14 of  16)        677 seconds
    (i =  15 of  16)        725 seconds
    (i =  16 of  16)        774 seconds

    Disp220 (T)         =    -0.000200764141 [Eh]

    (i =   1 of  16)         48 seconds
    (i =   2 of  16)         97 seconds
    (i =   3 of  16)        145 seconds
    (i =   4 of  16)        193 seconds
    (i =   5 of  16)        242 seconds
    (i =   6 of  16)        290 seconds
    (i =   7 of  16)        338 seconds
    (i =   8 of  16)        386 seconds
    (i =   9 of  16)        435 seconds
    (i =  10 of  16)        483 seconds
    (i =  11 of  16)        531 seconds
    (i =  12 of  16)        580 seconds
    (i =  13 of  16)        628 seconds
    (i =  14 of  16)        676 seconds
    (i =  15 of  16)        724 seconds
    (i =  16 of  16)        773 seconds

    Disp202 (T)         =    -0.000200762327 [Eh]

    Disp22 (T)          =    -0.000401526469 [Eh]

    Est. Disp220 (T)    =    -0.000209392722 [Eh]
    Est. Disp202 (T)    =    -0.000209390830 [Eh]

    Est. Disp22 (T)     =    -0.000418783553 [Eh]

    SAPT Results 
  --------------------------------------------------------------------------------------------------------
    Electrostatics                 -0.11169482 [mEh]      -0.07008956 [kcal/mol]      -0.29325471 [kJ/mol]
      Elst10,r                     -0.07015925 [mEh]      -0.04402559 [kcal/mol]      -0.18420308 [kJ/mol]
      Elst12,r                     -0.04153557 [mEh]      -0.02606397 [kcal/mol]      -0.10905163 [kJ/mol]

    Exchange                        0.40406199 [mEh]       0.25355273 [kcal/mol]       1.06086462 [kJ/mol]
      Exch10                        0.33263315 [mEh]       0.20873045 [kcal/mol]       0.87332821 [kJ/mol]
      Exch10(S^2)                   0.33262780 [mEh]       0.20872710 [kcal/mol]       0.87331417 [kJ/mol]
      Exch11(S^2)                   0.00228076 [mEh]       0.00143120 [kcal/mol]       0.00598814 [kJ/mol]
      Exch12(S^2)                   0.06914809 [mEh]       0.04339108 [kcal/mol]       0.18154828 [kJ/mol]

    Induction                      -0.03332576 [mEh]      -0.02091223 [kcal/mol]      -0.08749677 [kJ/mol]
      Ind20,r                      -0.03807000 [mEh]      -0.02388928 [kcal/mol]      -0.09995276 [kJ/mol]
      Ind22                        -0.01045517 [mEh]      -0.00656072 [kcal/mol]      -0.02745005 [kJ/mol]
      Exch-Ind20,r                  0.02905454 [mEh]       0.01823200 [kcal/mol]       0.07628267 [kJ/mol]
      Exch-Ind22                    0.00797925 [mEh]       0.00500706 [kcal/mol]       0.02094953 [kJ/mol]
      delta HF,r (2)               -0.02183438 [mEh]      -0.01370128 [kcal/mol]      -0.05732616 [kJ/mol]

    Dispersion                     -2.89559195 [mEh]      -1.81701138 [kcal/mol]      -7.60237563 [kJ/mol]
      Disp20                       -2.90583857 [mEh]      -1.82344123 [kcal/mol]      -7.62927811 [kJ/mol]
      Disp21                        0.34544720 [mEh]       0.21677139 [kcal/mol]       0.90697150 [kJ/mol]
      Disp22 (SDQ)                  0.03022675 [mEh]       0.01896757 [kcal/mol]       0.07936033 [kJ/mol]
      Disp22 (T)                   -0.40152647 [mEh]      -0.25196166 [kcal/mol]      -1.05420760 [kJ/mol]
      Est. Disp22 (T)              -0.41878355 [mEh]      -0.26279065 [kcal/mol]      -1.09951607 [kJ/mol]
      Exch-Disp20                   0.05335622 [mEh]       0.03348153 [kcal/mol]       0.14008673 [kJ/mol]

  Total HF                          0.23162406 [mEh]       0.14534629 [kcal/mol]       0.60812888 [kJ/mol]
  Total SAPT0                      -2.62085830 [mEh]      -1.64461341 [kcal/mol]      -6.88106251 [kJ/mol]
  Total SAPT2                      -2.59344094 [mEh]      -1.62740876 [kcal/mol]      -6.80907825 [kJ/mol]
  Total SAPT2+                     -2.63655054 [mEh]      -1.65446044 [kcal/mol]      -6.92226249 [kJ/mol]

  Special recipe for scaled SAPT0 (see Manual):
    Electrostatics sSAPT0          -0.07015925 [mEh]      -0.04402559 [kcal/mol]      -0.18420308 [kJ/mol]
    Exchange sSAPT0                 0.33263315 [mEh]       0.20873045 [kcal/mol]       0.87332821 [kJ/mol]
    Induction sSAPT0               -0.03084844 [mEh]      -0.01935769 [kcal/mol]      -0.08099257 [kJ/mol]
    Dispersion sSAPT0              -2.85247978 [mEh]      -1.78995809 [kcal/mol]      -7.48918463 [kJ/mol]
  Total sSAPT0                     -2.62085432 [mEh]      -1.64461092 [kcal/mol]      -6.88105207 [kJ/mol]
  --------------------------------------------------------------------------------------------------------

*** tstop() called on node80.bme.utexas.edu at Thu Apr 23 18:38:53 2020
Module time:
	user time   =   14794.15 seconds =     246.57 minutes
	system time =     220.75 seconds =       3.68 minutes
	total time  =       2031 seconds =      33.85 minutes
Total time:
	user time   =   15146.19 seconds =     252.44 minutes
	system time =     226.74 seconds =       3.78 minutes
	total time  =       2083 seconds =      34.72 minutes

    Psi4 stopped on: Thursday, 23 April 2020 06:38PM
    Psi4 wall time for execution: 0:34:42.96

*** Psi4 exiting successfully. Buy a developer a beer!
