
    -----------------------------------------------------------------------
          Psi4: An Open-Source Ab Initio Electronic Structure Package
                               Psi4 1.4a2.dev224 

                         Git: Rev {master} e453b16 


    R. M. Parrish, L. A. Burns, D. G. A. Smith, A. C. Simmonett,
    A. E. DePrince III, E. G. Hohenstein, U. Bozkaya, A. Yu. Sokolov,
    R. Di Remigio, R. M. Richard, J. F. Gonthier, A. M. James,
    H. R. McAlexander, A. Kumar, M. Saitow, X. Wang, B. P. Pritchard,
    P. Verma, H. F. Schaefer III, K. Patkowski, R. A. King, E. F. Valeev,
    F. A. Evangelista, J. M. Turney, T. D. Crawford, and C. D. Sherrill,
    J. Chem. Theory Comput. 13(7) pp 3185--3197 (2017).
    (doi: 10.1021/acs.jctc.7b00174)


                         Additional Contributions by
    P. Kraus, H. Kruse, M. H. Lechner, M. C. Schieber, R. A. Shaw,
    A. Alenaizan, R. Galvelis, Z. L. Glick, S. Lehtola, and J. P. Misiewicz

    -----------------------------------------------------------------------


    Psi4 started on: Thursday, 23 April 2020 06:06PM

    Process ID: 75577
    Host:       node100.bme.utexas.edu
    PSIDATADIR: /home/liuchw/anaconda3/envs/psi4env/share/psi4
    Memory:     500.0 MiB
    Threads:    8
    
  ==> Input File <==

--------------------------------------------------------------------------
#Generated by lconvert.py for sapt job

memory 20 GB

molecule  {
0 1
  C      -2.533310   -0.294880    0.713150
  H      -2.563630   -0.977080   -0.136420
  H      -2.566980   -0.895880    1.621730
  H      -3.434430    0.315960    0.684100
  C      -1.271880    0.557660    0.674360
  H      -1.271030    1.256570    1.514320
  H      -1.266630    1.167900   -0.231830
  C      -0.000140   -0.278420    0.719600
  H      -0.000160   -0.887230    1.628640
  H      -0.000360   -0.980710   -0.119400
  C       1.271890    0.557380    0.674060
  H       1.270970    1.256630    1.513710
  H       1.266640    1.167180   -0.232390
  C       2.533400   -0.294940    0.713280
  H       2.563920   -0.977770   -0.135780
  H       3.434310    0.316250    0.683600
  H       2.567560   -0.895210    1.622330
--
0 1
  C       2.533550    0.252990    6.576220
  H       2.568140    0.852800    5.666890
  H       2.564060    0.936200    7.424960
  H       3.434230   -0.358510    6.606430
  C       1.271720   -0.598890    6.615520
  H       1.266280   -1.208620    7.522020
  H       1.270590   -1.298250    5.775940
  C      -0.000050    0.237200    6.569910
  H      -0.000200    0.939510    7.408890
  H       0.000030    0.845980    5.660840
  C      -1.271810   -0.598940    6.615180
  H      -1.266430   -1.209050    7.521430
  H      -1.270700   -1.297960    5.775310
  C      -2.533530    0.253110    6.576200
  H      -2.567720    0.853640    5.667320
  H      -3.434330   -0.358190    6.605710
  H      -2.564070    0.935700    7.425460
units angstrom
no_reorient
symmetry c1
}

set {
scf_type DF
basis aug-cc-pvdz
freeze_core True
guess SAD
}
energy('sapt2+')
--------------------------------------------------------------------------

  Memory set to  18.626 GiB by Python driver.

Scratch directory: /scratch/liuchw/

  //>>>>>>>>>>>>>>>>>>>>>>>>>>>>>>>>>>>//
  //              Dimer HF             //
  //<<<<<<<<<<<<<<<<<<<<<<<<<<<<<<<<<<<//


*** tstart() called on node100.bme.utexas.edu
*** at Thu Apr 23 18:06:35 2020

   => Loading Basis Set <=

    Name: AUG-CC-PVDZ
    Role: ORBITAL
    Keyword: BASIS
    atoms 1, 5, 8, 11, 14, 18, 22, 25, 28, 31                             entry C          line   182 file /home/liuchw/anaconda3/envs/psi4env/share/psi4/basis/aug-cc-pvdz.gbs 
    atoms 2-4, 6-7, 9-10, 12-13, 15-17, 19-21, 23-24, 26-27, 29-30, 32-34 entry H          line    40 file /home/liuchw/anaconda3/envs/psi4env/share/psi4/basis/aug-cc-pvdz.gbs 


         ---------------------------------------------------------
                                   SCF
               by Justin Turney, Rob Parrish, Andy Simmonett
                          and Daniel G. A. Smith
                              RHF Reference
                        8 Threads,  19073 MiB Core
         ---------------------------------------------------------

  ==> Geometry <==

    Molecular point group: c1
    Full point group: C1

    Geometry (in Angstrom), charge = 0, multiplicity = 1:

       Center              X                  Y                   Z               Mass       
    ------------   -----------------  -----------------  -----------------  -----------------
         C           -2.533297103413    -0.274095900405    -2.931597007467    12.000000000000
         H           -2.563617103413    -0.956295900405    -3.781167007467     1.007825032230
         H           -2.566967103413    -0.875095900405    -2.023017007467     1.007825032230
         H           -3.434417103413     0.336744099595    -2.960647007467     1.007825032230
         C           -1.271867103413     0.578444099595    -2.970387007467    12.000000000000
         H           -1.271017103413     1.277354099595    -2.130427007467     1.007825032230
         H           -1.266617103413     1.188684099595    -3.876577007467     1.007825032230
         C           -0.000127103413    -0.257635900405    -2.925147007467    12.000000000000
         H           -0.000147103413    -0.866445900405    -2.016107007467     1.007825032230
         H           -0.000347103413    -0.959925900405    -3.764147007467     1.007825032230
         C            1.271902896587     0.578164099595    -2.970687007467    12.000000000000
         H            1.270982896587     1.277414099595    -2.131037007467     1.007825032230
         H            1.266652896587     1.187964099595    -3.877137007467     1.007825032230
         C            2.533412896587    -0.274155900405    -2.931467007467    12.000000000000
         H            2.563932896587    -0.956985900405    -3.780527007467     1.007825032230
         H            3.434322896587     0.337034099595    -2.961147007467     1.007825032230
         H            2.567572896587    -0.874425900405    -2.022417007467     1.007825032230
         C            2.533562896587     0.273774099595     2.931472992533    12.000000000000
         H            2.568152896587     0.873584099595     2.022142992533     1.007825032230
         H            2.564072896587     0.956984099595     3.780212992533     1.007825032230
         H            3.434242896587    -0.337725900405     2.961682992533     1.007825032230
         C            1.271732896587    -0.578105900405     2.970772992533    12.000000000000
         H            1.266292896587    -1.187835900405     3.877272992533     1.007825032230
         H            1.270602896587    -1.277465900405     2.131192992533     1.007825032230
         C           -0.000037103413     0.257984099595     2.925162992533    12.000000000000
         H           -0.000187103413     0.960294099595     3.764142992533     1.007825032230
         H            0.000042896587     0.866764099595     2.016092992533     1.007825032230
         C           -1.271797103413    -0.578155900405     2.970432992533    12.000000000000
         H           -1.266417103413    -1.188265900405     3.876682992533     1.007825032230
         H           -1.270687103413    -1.277175900405     2.130562992533     1.007825032230
         C           -2.533517103413     0.273894099595     2.931452992533    12.000000000000
         H           -2.567707103413     0.874424099595     2.022572992533     1.007825032230
         H           -3.434317103413    -0.337405900405     2.960962992533     1.007825032230
         H           -2.564057103413     0.956484099595     3.780712992533     1.007825032230

  Running in c1 symmetry.

  Rotational constants: A =      0.03105  B =      0.01286  C =      0.00954 [cm^-1]
  Rotational constants: A =    930.96945  B =    385.59621  C =    286.10039 [MHz]
  Nuclear repulsion =  516.830988651464963

  Charge       = 0
  Multiplicity = 1
  Electrons    = 84
  Nalpha       = 42
  Nbeta        = 42

  ==> Algorithm <==

  SCF Algorithm Type is DF.
  DIIS enabled.
  MOM disabled.
  Fractional occupation disabled.
  Guess Type is SAD.
  Energy threshold   = 1.00e-08
  Density threshold  = 1.00e-08
  Integral threshold = 0.00e+00

  ==> Primary Basis <==

  Basis Set: AUG-CC-PVDZ
    Blend: AUG-CC-PVDZ
    Number of shells: 210
    Number of basis function: 446
    Number of Cartesian functions: 466
    Spherical Harmonics?: true
    Max angular momentum: 2

   => Loading Basis Set <=

    Name: (AUG-CC-PVDZ AUX)
    Role: JKFIT
    Keyword: DF_BASIS_SCF
    atoms 1, 5, 8, 11, 14, 18, 22, 25, 28, 31                             entry C          line   154 file /home/liuchw/anaconda3/envs/psi4env/share/psi4/basis/aug-cc-pvdz-jkfit.gbs 
    atoms 2-4, 6-7, 9-10, 12-13, 15-17, 19-21, 23-24, 26-27, 29-30, 32-34 entry H          line    70 file /home/liuchw/anaconda3/envs/psi4env/share/psi4/basis/aug-cc-pvdz-jkfit.gbs 

  ==> Pre-Iterations <==

   -------------------------------------------------------
    Irrep   Nso     Nmo     Nalpha   Nbeta   Ndocc  Nsocc
   -------------------------------------------------------
     A        446     446       0       0       0       0
   -------------------------------------------------------
    Total     446     446      42      42      42       0
   -------------------------------------------------------

  ==> Integral Setup <==

  ==> DiskDFJK: Density-Fitted J/K Matrices <==

    J tasked:                  Yes
    K tasked:                  Yes
    wK tasked:                  No
    OpenMP threads:              8
    Integrals threads:           8
    Memory [MiB]:            14305
    Algorithm:                Core
    Integral Cache:           SAVE
    Schwarz Cutoff:          1E-12
    Fitting Condition:       1E-10

   => Auxiliary Basis Set <=

  Basis Set: (AUG-CC-PVDZ AUX)
    Blend: AUG-CC-PVDZ-JKFIT
    Number of shells: 568
    Number of basis function: 1628
    Number of Cartesian functions: 1850
    Spherical Harmonics?: true
    Max angular momentum: 3

  Minimum eigenvalue in the overlap matrix is 9.8680970927E-06.
  Using Symmetric Orthogonalization.

  SCF Guess: Superposition of Atomic Densities via on-the-fly atomic UHF.

  ==> Iterations <==

                           Total Energy        Delta E     RMS |[F,P]|

   @DF-RHF iter SAD:  -391.73761487402055   -3.91738e+02   0.00000e+00 
   @DF-RHF iter   1:  -392.17197386069222   -4.34359e-01   2.04016e-03 DIIS
   @DF-RHF iter   2:  -392.60975393222827   -4.37780e-01   9.16159e-04 DIIS
   @DF-RHF iter   3:  -392.70166477387545   -9.19108e-02   1.62494e-04 DIIS
   @DF-RHF iter   4:  -392.70748974042476   -5.82497e-03   3.47772e-05 DIIS
   @DF-RHF iter   5:  -392.70767860369097   -1.88863e-04   9.86632e-06 DIIS
   @DF-RHF iter   6:  -392.70769672005451   -1.81164e-05   1.44163e-06 DIIS
   @DF-RHF iter   7:  -392.70769719599764   -4.75943e-07   2.98272e-07 DIIS
   @DF-RHF iter   8:  -392.70769721737656   -2.13789e-08   5.94777e-08 DIIS
   @DF-RHF iter   9:  -392.70769721815515   -7.78584e-10   1.93016e-08 DIIS
   @DF-RHF iter  10:  -392.70769721822580   -7.06564e-11   4.36002e-09 DIIS
  Energy and wave function converged.


  ==> Post-Iterations <==

    Orbital Energies [Eh]
    ---------------------

    Doubly Occupied:                                                      

       1A    -11.218728     2A    -11.218726     3A    -11.218666  
       4A    -11.218664     5A    -11.216159     6A    -11.216157  
       7A    -11.214341     8A    -11.214340     9A    -11.214337  
      10A    -11.214335    11A     -1.083065    12A     -1.083022  
      13A     -1.017043    14A     -1.016996    15A     -0.920447  
      16A     -0.920403    17A     -0.820955    18A     -0.820944  
      19A     -0.785900    20A     -0.785815    21A     -0.647661  
      22A     -0.646952    23A     -0.598441    24A     -0.598371  
      25A     -0.593087    26A     -0.592457    27A     -0.553915  
      28A     -0.553895    29A     -0.547138    30A     -0.547114  
      31A     -0.525649    32A     -0.525188    33A     -0.494214  
      34A     -0.494043    35A     -0.475361    36A     -0.475209  
      37A     -0.461732    38A     -0.461142    39A     -0.458833  
      40A     -0.458144    41A     -0.446607    42A     -0.446591  

    Virtual:                                                              

      43A      0.035926    44A      0.038992    45A      0.041615  
      46A      0.042862    47A      0.050266    48A      0.052590  
      49A      0.053745    50A      0.060157    51A      0.063223  
      52A      0.068879    53A      0.071583    54A      0.072798  
      55A      0.073707    56A      0.087206    57A      0.089783  
      58A      0.091630    59A      0.097009    60A      0.098395  
      61A      0.098869    62A      0.101632    63A      0.109051  
      64A      0.116438    65A      0.117708    66A      0.127724  
      67A      0.131455    68A      0.145594    69A      0.150209  
      70A      0.152272    71A      0.156207    72A      0.162099  
      73A      0.162171    74A      0.162904    75A      0.166758  
      76A      0.174248    77A      0.177651    78A      0.178529  
      79A      0.178719    80A      0.185532    81A      0.187859  
      82A      0.189053    83A      0.189206    84A      0.190149  
      85A      0.191839    86A      0.192944    87A      0.201552  
      88A      0.202065    89A      0.212460    90A      0.215708  
      91A      0.216243    92A      0.217433    93A      0.220070  
      94A      0.228124    95A      0.233581    96A      0.234411  
      97A      0.239324    98A      0.246182    99A      0.248480  
     100A      0.249885   101A      0.252210   102A      0.257124  
     103A      0.274212   104A      0.283038   105A      0.284857  
     106A      0.293757   107A      0.301141   108A      0.304794  
     109A      0.310163   110A      0.315540   111A      0.317461  
     112A      0.322832   113A      0.328008   114A      0.338494  
     115A      0.342081   116A      0.353814   117A      0.357049  
     118A      0.360084   119A      0.360282   120A      0.368929  
     121A      0.370656   122A      0.376605   123A      0.377626  
     124A      0.382184   125A      0.385911   126A      0.393966  
     127A      0.403892   128A      0.409786   129A      0.413017  
     130A      0.422190   131A      0.424610   132A      0.435509  
     133A      0.436955   134A      0.448553   135A      0.448929  
     136A      0.451132   137A      0.455775   138A      0.462463  
     139A      0.464280   140A      0.468044   141A      0.468449  
     142A      0.474724   143A      0.475532   144A      0.476268  
     145A      0.485537   146A      0.488945   147A      0.491335  
     148A      0.497480   149A      0.503206   150A      0.504440  
     151A      0.506783   152A      0.511054   153A      0.512400  
     154A      0.514812   155A      0.517271   156A      0.521902  
     157A      0.522540   158A      0.527070   159A      0.530832  
     160A      0.534194   161A      0.538900   162A      0.541415  
     163A      0.544045   164A      0.554272   165A      0.556314  
     166A      0.556996   167A      0.563542   168A      0.566366  
     169A      0.574450   170A      0.583183   171A      0.584055  
     172A      0.584216   173A      0.586353   174A      0.592610  
     175A      0.602740   176A      0.604073   177A      0.615781  
     178A      0.620017   179A      0.620228   180A      0.628396  
     181A      0.633954   182A      0.635649   183A      0.648907  
     184A      0.650695   185A      0.651207   186A      0.652495  
     187A      0.660117   188A      0.660612   189A      0.661497  
     190A      0.662397   191A      0.664966   192A      0.669104  
     193A      0.671265   194A      0.684665   195A      0.685861  
     196A      0.686680   197A      0.687020   198A      0.691648  
     199A      0.706803   200A      0.709452   201A      0.713976  
     202A      0.715443   203A      0.717243   204A      0.721107  
     205A      0.725869   206A      0.730410   207A      0.745160  
     208A      0.748368   209A      0.753013   210A      0.767306  
     211A      0.770127   212A      0.771310   213A      0.775676  
     214A      0.778382   215A      0.785921   216A      0.787960  
     217A      0.790255   218A      0.803949   219A      0.811010  
     220A      0.812012   221A      0.813327   222A      0.825234  
     223A      0.833898   224A      0.836665   225A      0.842993  
     226A      0.848993   227A      0.849824   228A      0.854998  
     229A      0.856492   230A      0.860503   231A      0.864069  
     232A      0.867091   233A      0.869975   234A      0.873540  
     235A      0.878698   236A      0.902342   237A      0.902472  
     238A      0.919986   239A      0.921925   240A      0.926472  
     241A      0.928611   242A      0.930092   243A      0.934709  
     244A      0.948135   245A      0.952076   246A      0.959528  
     247A      0.964429   248A      0.965695   249A      0.978516  
     250A      0.981991   251A      0.982038   252A      0.987751  
     253A      0.990382   254A      0.997005   255A      1.002334  
     256A      1.002623   257A      1.075259   258A      1.091282  
     259A      1.108560   260A      1.113458   261A      1.118988  
     262A      1.145222   263A      1.147006   264A      1.163690  
     265A      1.180680   266A      1.184848   267A      1.192281  
     268A      1.192444   269A      1.194486   270A      1.202948  
     271A      1.202963   272A      1.220906   273A      1.221433  
     274A      1.235388   275A      1.255862   276A      1.260095  
     277A      1.274463   278A      1.276922   279A      1.312081  
     280A      1.318281   281A      1.332879   282A      1.334697  
     283A      1.337170   284A      1.347607   285A      1.360013  
     286A      1.363765   287A      1.379103   288A      1.384715  
     289A      1.447455   290A      1.460053   291A      1.493020  
     292A      1.499442   293A      1.506507   294A      1.537308  
     295A      1.558059   296A      1.567268   297A      1.570392  
     298A      1.572286   299A      1.590218   300A      1.596301  
     301A      1.604031   302A      1.630569   303A      1.631019  
     304A      1.646464   305A      1.658647   306A      1.664726  
     307A      1.699846   308A      1.700762   309A      1.701698  
     310A      1.720350   311A      1.771386   312A      1.778945  
     313A      1.802562   314A      1.823558   315A      1.838614  
     316A      1.840089   317A      1.852850   318A      1.864356  
     319A      1.867189   320A      1.876147   321A      1.879257  
     322A      1.885235   323A      1.894226   324A      1.914263  
     325A      1.916734   326A      1.931194   327A      1.932823  
     328A      1.947855   329A      1.965093   330A      1.966465  
     331A      1.978094   332A      1.982877   333A      2.000128  
     334A      2.004362   335A      2.010514   336A      2.011562  
     337A      2.096218   338A      2.096997   339A      2.105820  
     340A      2.109219   341A      2.111014   342A      2.113372  
     343A      2.117994   344A      2.121007   345A      2.124862  
     346A      2.129061   347A      2.139577   348A      2.142295  
     349A      2.149986   350A      2.151293   351A      2.152770  
     352A      2.153439   353A      2.155153   354A      2.162624  
     355A      2.200918   356A      2.208275   357A      2.208585  
     358A      2.213717   359A      2.221639   360A      2.227170  
     361A      2.259908   362A      2.262899   363A      2.272894  
     364A      2.284483   365A      2.288602   366A      2.290510  
     367A      2.312764   368A      2.316471   369A      2.316625  
     370A      2.321521   371A      2.335581   372A      2.339060  
     373A      2.348099   374A      2.348683   375A      2.348974  
     376A      2.368151   377A      2.381935   378A      2.396731  
     379A      2.423010   380A      2.423552   381A      2.425596  
     382A      2.429925   383A      2.452711   384A      2.454305  
     385A      2.477306   386A      2.480634   387A      2.482003  
     388A      2.509106   389A      2.533646   390A      2.536816  
     391A      2.552998   392A      2.553204   393A      2.588129  
     394A      2.594800   395A      2.667979   396A      2.672585  
     397A      2.678790   398A      2.689392   399A      2.691097  
     400A      2.693309   401A      2.700879   402A      2.711544  
     403A      2.739395   404A      2.740190   405A      2.741961  
     406A      2.744677   407A      2.770455   408A      2.773623  
     409A      2.779005   410A      2.792121   411A      2.804807  
     412A      2.807957   413A      2.889313   414A      2.897429  
     415A      2.899977   416A      2.901597   417A      2.903818  
     418A      2.907378   419A      2.908600   420A      2.911821  
     421A      2.964207   422A      2.968422   423A      2.973141  
     424A      2.973860   425A      2.998541   426A      3.003888  
     427A      3.017838   428A      3.019389   429A      3.111208  
     430A      3.111442   431A      3.113735   432A      3.118904  
     433A      3.151338   434A      3.155362   435A      3.182219  
     436A      3.189555   437A      3.195064   438A      3.197855  
     439A      3.279740   440A      3.288153   441A      3.299535  
     442A      3.316970   443A      3.390998   444A      3.405645  
     445A      3.478001   446A      3.487871  

    Final Occupation by Irrep:
              A 
    DOCC [    42 ]

  @DF-RHF Final Energy:  -392.70769721822580

   => Energetics <=

    Nuclear Repulsion Energy =            516.8309886514649634
    One-Electron Energy =               -1553.0357939148418609
    Two-Electron Energy =                 643.4971080451509806
    Total Energy =                       -392.7076972182258032

Computation Completed


Properties will be evaluated at   0.000000,   0.000000,   0.000000 [a0]

Properties computed using the SCF density matrix

  Nuclear Dipole Moment: [e a0]
     X:     0.0003      Y:    -0.0012      Z:    -0.0001

  Electronic Dipole Moment: [e a0]
     X:    -0.0003      Y:     0.0012      Z:     0.0001

  Dipole Moment: [e a0]
     X:     0.0000      Y:    -0.0000      Z:     0.0000     Total:     0.0000

  Dipole Moment: [D]
     X:     0.0000      Y:    -0.0000      Z:     0.0000     Total:     0.0001


*** tstop() called on node100.bme.utexas.edu at Thu Apr 23 18:07:03 2020
Module time:
	user time   =     196.53 seconds =       3.28 minutes
	system time =       3.64 seconds =       0.06 minutes
	total time  =         28 seconds =       0.47 minutes
Total time:
	user time   =     196.53 seconds =       3.28 minutes
	system time =       3.64 seconds =       0.06 minutes
	total time  =         28 seconds =       0.47 minutes

  //>>>>>>>>>>>>>>>>>>>>>>>>>>>>>>>>>>>//
  //            Monomer A HF           //
  //<<<<<<<<<<<<<<<<<<<<<<<<<<<<<<<<<<<//


*** tstart() called on node100.bme.utexas.edu
*** at Thu Apr 23 18:07:03 2020

   => Loading Basis Set <=

    Name: AUG-CC-PVDZ
    Role: ORBITAL
    Keyword: BASIS
    atoms 1, 5, 8, 11, 14, 18, 22, 25, 28, 31                             entry C          line   182 file /home/liuchw/anaconda3/envs/psi4env/share/psi4/basis/aug-cc-pvdz.gbs 
    atoms 2-4, 6-7, 9-10, 12-13, 15-17, 19-21, 23-24, 26-27, 29-30, 32-34 entry H          line    40 file /home/liuchw/anaconda3/envs/psi4env/share/psi4/basis/aug-cc-pvdz.gbs 


         ---------------------------------------------------------
                                   SCF
               by Justin Turney, Rob Parrish, Andy Simmonett
                          and Daniel G. A. Smith
                              RHF Reference
                        8 Threads,  19073 MiB Core
         ---------------------------------------------------------

  ==> Geometry <==

    Molecular point group: c1
    Full point group: C1

    Geometry (in Angstrom), charge = 0, multiplicity = 1:

       Center              X                  Y                   Z               Mass       
    ------------   -----------------  -----------------  -----------------  -----------------
         C           -2.533297103413    -0.274095900405    -2.931597007467    12.000000000000
         H           -2.563617103413    -0.956295900405    -3.781167007467     1.007825032230
         H           -2.566967103413    -0.875095900405    -2.023017007467     1.007825032230
         H           -3.434417103413     0.336744099595    -2.960647007467     1.007825032230
         C           -1.271867103413     0.578444099595    -2.970387007467    12.000000000000
         H           -1.271017103413     1.277354099595    -2.130427007467     1.007825032230
         H           -1.266617103413     1.188684099595    -3.876577007467     1.007825032230
         C           -0.000127103413    -0.257635900405    -2.925147007467    12.000000000000
         H           -0.000147103413    -0.866445900405    -2.016107007467     1.007825032230
         H           -0.000347103413    -0.959925900405    -3.764147007467     1.007825032230
         C            1.271902896587     0.578164099595    -2.970687007467    12.000000000000
         H            1.270982896587     1.277414099595    -2.131037007467     1.007825032230
         H            1.266652896587     1.187964099595    -3.877137007467     1.007825032230
         C            2.533412896587    -0.274155900405    -2.931467007467    12.000000000000
         H            2.563932896587    -0.956985900405    -3.780527007467     1.007825032230
         H            3.434322896587     0.337034099595    -2.961147007467     1.007825032230
         H            2.567572896587    -0.874425900405    -2.022417007467     1.007825032230
      Gh(C)           2.533562896587     0.273774099595     2.931472992533    12.000000000000
      Gh(H)           2.568152896587     0.873584099595     2.022142992533     1.007825032230
      Gh(H)           2.564072896587     0.956984099595     3.780212992533     1.007825032230
      Gh(H)           3.434242896587    -0.337725900405     2.961682992533     1.007825032230
      Gh(C)           1.271732896587    -0.578105900405     2.970772992533    12.000000000000
      Gh(H)           1.266292896587    -1.187835900405     3.877272992533     1.007825032230
      Gh(H)           1.270602896587    -1.277465900405     2.131192992533     1.007825032230
      Gh(C)          -0.000037103413     0.257984099595     2.925162992533    12.000000000000
      Gh(H)          -0.000187103413     0.960294099595     3.764142992533     1.007825032230
      Gh(H)           0.000042896587     0.866764099595     2.016092992533     1.007825032230
      Gh(C)          -1.271797103413    -0.578155900405     2.970432992533    12.000000000000
      Gh(H)          -1.266417103413    -1.188265900405     3.876682992533     1.007825032230
      Gh(H)          -1.270687103413    -1.277175900405     2.130562992533     1.007825032230
      Gh(C)          -2.533517103413     0.273894099595     2.931452992533    12.000000000000
      Gh(H)          -2.567707103413     0.874424099595     2.022572992533     1.007825032230
      Gh(H)          -3.434317103413    -0.337405900405     2.960962992533     1.007825032230
      Gh(H)          -2.564057103413     0.956484099595     3.780712992533     1.007825032230

  Running in c1 symmetry.

  Rotational constants: A =      0.03105  B =      0.01286  C =      0.00954 [cm^-1]
  Rotational constants: A =    930.96945  B =    385.59621  C =    286.10039 [MHz]
  Nuclear repulsion =  185.636650239487523

  Charge       = 0
  Multiplicity = 1
  Electrons    = 42
  Nalpha       = 21
  Nbeta        = 21

  ==> Algorithm <==

  SCF Algorithm Type is DF.
  DIIS enabled.
  MOM disabled.
  Fractional occupation disabled.
  Guess Type is SAD.
  Energy threshold   = 1.00e-08
  Density threshold  = 1.00e-08
  Integral threshold = 0.00e+00

  ==> Primary Basis <==

  Basis Set: AUG-CC-PVDZ
    Blend: AUG-CC-PVDZ
    Number of shells: 210
    Number of basis function: 446
    Number of Cartesian functions: 466
    Spherical Harmonics?: true
    Max angular momentum: 2

   => Loading Basis Set <=

    Name: (AUG-CC-PVDZ AUX)
    Role: JKFIT
    Keyword: DF_BASIS_SCF
    atoms 1, 5, 8, 11, 14, 18, 22, 25, 28, 31                             entry C          line   154 file /home/liuchw/anaconda3/envs/psi4env/share/psi4/basis/aug-cc-pvdz-jkfit.gbs 
    atoms 2-4, 6-7, 9-10, 12-13, 15-17, 19-21, 23-24, 26-27, 29-30, 32-34 entry H          line    70 file /home/liuchw/anaconda3/envs/psi4env/share/psi4/basis/aug-cc-pvdz-jkfit.gbs 

  ==> Pre-Iterations <==

   -------------------------------------------------------
    Irrep   Nso     Nmo     Nalpha   Nbeta   Ndocc  Nsocc
   -------------------------------------------------------
     A        446     446       0       0       0       0
   -------------------------------------------------------
    Total     446     446      21      21      21       0
   -------------------------------------------------------

  ==> Integral Setup <==

  ==> DiskDFJK: Density-Fitted J/K Matrices <==

    J tasked:                  Yes
    K tasked:                  Yes
    wK tasked:                  No
    OpenMP threads:              8
    Integrals threads:           8
    Memory [MiB]:            14305
    Algorithm:                Core
    Integral Cache:           LOAD
    Schwarz Cutoff:          1E-12
    Fitting Condition:       1E-10

   => Auxiliary Basis Set <=

  Basis Set: (AUG-CC-PVDZ AUX)
    Blend: AUG-CC-PVDZ-JKFIT
    Number of shells: 568
    Number of basis function: 1628
    Number of Cartesian functions: 1850
    Spherical Harmonics?: true
    Max angular momentum: 3

  Minimum eigenvalue in the overlap matrix is 9.8680970927E-06.
  Using Symmetric Orthogonalization.

  SCF Guess: Superposition of Atomic Densities via on-the-fly atomic UHF.

  ==> Iterations <==

                           Total Energy        Delta E     RMS |[F,P]|

   @DF-RHF iter SAD:  -195.86354194903120   -1.95864e+02   0.00000e+00 
   @DF-RHF iter   1:  -196.08592941082225   -2.22387e-01   1.44291e-03 DIIS
   @DF-RHF iter   2:  -196.30505571979853   -2.19126e-01   6.46799e-04 DIIS
   @DF-RHF iter   3:  -196.35085503411673   -4.57993e-02   1.14495e-04 DIIS
   @DF-RHF iter   4:  -196.35375747525859   -2.90244e-03   2.41519e-05 DIIS
   @DF-RHF iter   5:  -196.35384907367910   -9.15984e-05   6.93831e-06 DIIS
   @DF-RHF iter   6:  -196.35385802986929   -8.95619e-06   1.01372e-06 DIIS
   @DF-RHF iter   7:  -196.35385826477142   -2.34902e-07   2.11122e-07 DIIS
   @DF-RHF iter   8:  -196.35385827558042   -1.08090e-08   4.03854e-08 DIIS
   @DF-RHF iter   9:  -196.35385827596212   -3.81704e-10   1.33786e-08 DIIS
   @DF-RHF iter  10:  -196.35385827599518   -3.30544e-11   3.18707e-09 DIIS
  Energy and wave function converged.


  ==> Post-Iterations <==

    Orbital Energies [Eh]
    ---------------------

    Doubly Occupied:                                                      

       1A    -11.218270     2A    -11.218209     3A    -11.215658  
       4A    -11.213993     5A    -11.213986     6A     -1.082585  
       7A     -1.016619     8A     -0.920023     9A     -0.820554  
      10A     -0.785395    11A     -0.646830    12A     -0.598015  
      13A     -0.592362    14A     -0.553474    15A     -0.546775  
      16A     -0.525009    17A     -0.493739    18A     -0.474871  
      19A     -0.460985    20A     -0.458004    21A     -0.446187  

    Virtual:                                                              

      22A      0.021065    23A      0.032842    24A      0.039239  
      25A      0.040300    26A      0.047506    27A      0.050500  
      28A      0.051608    29A      0.056063    30A      0.058282  
      31A      0.067288    32A      0.069841    33A      0.071888  
      34A      0.072038    35A      0.084332    36A      0.085128  
      37A      0.086885    38A      0.091014    39A      0.097249  
      40A      0.098166    41A      0.100897    42A      0.105024  
      43A      0.109573    44A      0.113399    45A      0.118456  
      46A      0.127259    47A      0.129060    48A      0.132795  
      49A      0.138042    50A      0.146269    51A      0.148091  
      52A      0.151971    53A      0.155299    54A      0.157484  
      55A      0.163825    56A      0.166938    57A      0.170992  
      58A      0.172006    59A      0.176828    60A      0.179073  
      61A      0.181337    62A      0.182848    63A      0.185526  
      64A      0.190415    65A      0.191324    66A      0.197306  
      67A      0.202222    68A      0.203791    69A      0.207752  
      70A      0.211959    71A      0.216501    72A      0.216513  
      73A      0.218294    74A      0.218427    75A      0.227414  
      76A      0.227914    77A      0.235351    78A      0.239979  
      79A      0.244841    80A      0.252260    81A      0.255175  
      82A      0.262200    83A      0.263696    84A      0.278742  
      85A      0.282086    86A      0.288054    87A      0.304455  
      88A      0.307755    89A      0.315689    90A      0.322911  
      91A      0.325904    92A      0.340195    93A      0.343327  
      94A      0.351333    95A      0.354115    96A      0.358857  
      97A      0.361718    98A      0.370816    99A      0.373073  
     100A      0.374325   101A      0.377267   102A      0.383012  
     103A      0.384324   104A      0.390243   105A      0.398256  
     106A      0.398725   107A      0.411600   108A      0.415873  
     109A      0.419048   110A      0.419892   111A      0.424560  
     112A      0.431031   113A      0.437113   114A      0.443166  
     115A      0.450276   116A      0.454121   117A      0.455258  
     118A      0.460640   119A      0.462647   120A      0.465651  
     121A      0.471719   122A      0.476992   123A      0.479190  
     124A      0.480338   125A      0.483037   126A      0.484401  
     127A      0.490546   128A      0.494812   129A      0.494906  
     130A      0.502778   131A      0.505741   132A      0.515093  
     133A      0.517331   134A      0.522829   135A      0.524002  
     136A      0.528491   137A      0.529931   138A      0.537989  
     139A      0.538428   140A      0.547869   141A      0.550263  
     142A      0.555548   143A      0.561351   144A      0.563280  
     145A      0.565966   146A      0.573006   147A      0.576344  
     148A      0.581891   149A      0.585533   150A      0.594655  
     151A      0.599623   152A      0.600122   153A      0.614065  
     154A      0.617890   155A      0.625602   156A      0.626987  
     157A      0.632785   158A      0.637358   159A      0.640108  
     160A      0.647751   161A      0.653735   162A      0.657106  
     163A      0.661358   164A      0.665723   165A      0.665883  
     166A      0.671896   167A      0.671956   168A      0.680396  
     169A      0.680821   170A      0.685827   171A      0.693354  
     172A      0.694398   173A      0.703886   174A      0.707414  
     175A      0.710732   176A      0.718378   177A      0.719569  
     178A      0.723980   179A      0.738189   180A      0.738836  
     181A      0.749035   182A      0.752275   183A      0.759668  
     184A      0.764537   185A      0.768696   186A      0.771689  
     187A      0.773496   188A      0.774745   189A      0.781844  
     190A      0.787956   191A      0.798868   192A      0.803051  
     193A      0.811201   194A      0.820540   195A      0.823257  
     196A      0.824711   197A      0.830041   198A      0.839746  
     199A      0.840378   200A      0.844223   201A      0.849504  
     202A      0.852869   203A      0.858691   204A      0.859742  
     205A      0.865925   206A      0.867605   207A      0.869089  
     208A      0.876042   209A      0.877903   210A      0.878765  
     211A      0.894583   212A      0.901859   213A      0.908219  
     214A      0.908986   215A      0.910861   216A      0.918650  
     217A      0.919933   218A      0.930378   219A      0.930622  
     220A      0.938757   221A      0.938780   222A      0.950205  
     223A      0.953062   224A      0.959540   225A      0.962813  
     226A      0.971851   227A      0.978544   228A      0.980035  
     229A      0.984138   230A      0.990773   231A      0.995537  
     232A      0.997154   233A      1.002461   234A      1.006517  
     235A      1.035352   236A      1.045224   237A      1.060580  
     238A      1.066676   239A      1.073449   240A      1.088840  
     241A      1.098674   242A      1.109245   243A      1.110410  
     244A      1.118637   245A      1.124729   246A      1.140054  
     247A      1.161480   248A      1.168677   249A      1.184392  
     250A      1.187949   251A      1.195014   252A      1.202352  
     253A      1.209276   254A      1.220625   255A      1.233625  
     256A      1.238505   257A      1.240484   258A      1.258011  
     259A      1.273664   260A      1.290966   261A      1.291145  
     262A      1.316548   263A      1.330805   264A      1.334671  
     265A      1.352728   266A      1.354452   267A      1.376119  
     268A      1.455009   269A      1.458909   270A      1.482488  
     271A      1.497043   272A      1.524077   273A      1.563985  
     274A      1.572910   275A      1.599275   276A      1.612535  
     277A      1.639490   278A      1.660546   279A      1.700558  
     280A      1.709747   281A      1.773055   282A      1.812191  
     283A      1.844977   284A      1.858182   285A      1.869776  
     286A      1.875034   287A      1.906282   288A      1.917433  
     289A      1.919218   290A      1.953023   291A      1.953680  
     292A      1.958524   293A      1.980306   294A      1.987614  
     295A      2.002908   296A      2.021167   297A      2.060828  
     298A      2.083809   299A      2.088248   300A      2.097327  
     301A      2.101451   302A      2.105125   303A      2.105417  
     304A      2.110593   305A      2.114247   306A      2.125247  
     307A      2.133158   308A      2.141327   309A      2.142476  
     310A      2.147044   311A      2.157994   312A      2.179677  
     313A      2.189012   314A      2.197782   315A      2.205764  
     316A      2.215057   317A      2.223633   318A      2.259313  
     319A      2.275758   320A      2.275896   321A      2.282994  
     322A      2.298303   323A      2.306761   324A      2.315703  
     325A      2.317033   326A      2.330279   327A      2.336170  
     328A      2.336748   329A      2.347557   330A      2.351090  
     331A      2.353307   332A      2.364256   333A      2.365203  
     334A      2.373476   335A      2.376991   336A      2.386827  
     337A      2.388113   338A      2.394503   339A      2.409048  
     340A      2.414310   341A      2.418445   342A      2.424404  
     343A      2.430890   344A      2.438573   345A      2.439572  
     346A      2.440785   347A      2.444274   348A      2.452210  
     349A      2.461637   350A      2.473098   351A      2.484767  
     352A      2.490920   353A      2.506698   354A      2.514880  
     355A      2.523844   356A      2.532548   357A      2.537153  
     358A      2.553819   359A      2.566181   360A      2.570059  
     361A      2.587792   362A      2.593099   363A      2.609781  
     364A      2.619423   365A      2.646831   366A      2.669303  
     367A      2.684290   368A      2.692244   369A      2.707636  
     370A      2.708232   371A      2.734690   372A      2.738601  
     373A      2.742643   374A      2.746693   375A      2.773049  
     376A      2.784616   377A      2.806609   378A      2.806849  
     379A      2.831976   380A      2.860468   381A      2.860979  
     382A      2.873556   383A      2.893963   384A      2.902359  
     385A      2.908493   386A      2.908741   387A      2.970624  
     388A      2.971182   389A      2.971737   390A      2.983521  
     391A      2.999007   392A      3.018162   393A      3.046802  
     394A      3.068682   395A      3.088010   396A      3.101941  
     397A      3.111774   398A      3.117257   399A      3.145892  
     400A      3.158262   401A      3.186060   402A      3.196932  
     403A      3.215422   404A      3.231199   405A      3.248680  
     406A      3.288245   407A      3.306603   408A      3.326945  
     409A      3.371275   410A      3.393667   411A      3.398852  
     412A      3.403910   413A      3.417086   414A      3.442706  
     415A      3.449438   416A      3.456415   417A      3.486150  
     418A      3.560315   419A      3.580322   420A      3.627767  
     421A      3.661425   422A      3.716022   423A      3.730208  
     424A      3.809314   425A      3.946554   426A      4.097495  
     427A      4.296866   428A      4.365271   429A      4.464828  
     430A      4.499322   431A      4.775954   432A      4.819073  
     433A      4.873490   434A      4.929210   435A      4.980769  
     436A      5.024650   437A      5.110733   438A      5.177188  
     439A      5.238271   440A      5.266680   441A      5.368490  
     442A     18.252291   443A     18.445644   444A     18.677433  
     445A     18.993558   446A     19.176377  

    Final Occupation by Irrep:
              A 
    DOCC [    21 ]

  @DF-RHF Final Energy:  -196.35385827599518

   => Energetics <=

    Nuclear Repulsion Energy =            185.6366502394875226
    One-Electron Energy =                -630.9779318932910428
    Two-Electron Energy =                 248.9874233778083692
    Total Energy =                       -196.3538582759951794

Computation Completed


Properties will be evaluated at   0.000000,   0.000000,   0.000000 [a0]

Properties computed using the SCF density matrix

  Nuclear Dipole Moment: [e a0]
     X:     0.0009      Y:     4.1958      Z:  -233.7592

  Electronic Dipole Moment: [e a0]
     X:    -0.0009      Y:    -4.1620      Z:   233.7575

  Dipole Moment: [e a0]
     X:     0.0000      Y:     0.0339      Z:    -0.0017     Total:     0.0339

  Dipole Moment: [D]
     X:     0.0000      Y:     0.0861      Z:    -0.0044     Total:     0.0862


*** tstop() called on node100.bme.utexas.edu at Thu Apr 23 18:07:15 2020
Module time:
	user time   =      78.00 seconds =       1.30 minutes
	system time =       2.21 seconds =       0.04 minutes
	total time  =         12 seconds =       0.20 minutes
Total time:
	user time   =     274.58 seconds =       4.58 minutes
	system time =       5.86 seconds =       0.10 minutes
	total time  =         40 seconds =       0.67 minutes

  //>>>>>>>>>>>>>>>>>>>>>>>>>>>>>>>>>>>//
  //            Monomer B HF           //
  //<<<<<<<<<<<<<<<<<<<<<<<<<<<<<<<<<<<//


*** tstart() called on node100.bme.utexas.edu
*** at Thu Apr 23 18:07:15 2020

   => Loading Basis Set <=

    Name: AUG-CC-PVDZ
    Role: ORBITAL
    Keyword: BASIS
    atoms 1, 5, 8, 11, 14, 18, 22, 25, 28, 31                             entry C          line   182 file /home/liuchw/anaconda3/envs/psi4env/share/psi4/basis/aug-cc-pvdz.gbs 
    atoms 2-4, 6-7, 9-10, 12-13, 15-17, 19-21, 23-24, 26-27, 29-30, 32-34 entry H          line    40 file /home/liuchw/anaconda3/envs/psi4env/share/psi4/basis/aug-cc-pvdz.gbs 


         ---------------------------------------------------------
                                   SCF
               by Justin Turney, Rob Parrish, Andy Simmonett
                          and Daniel G. A. Smith
                              RHF Reference
                        8 Threads,  19073 MiB Core
         ---------------------------------------------------------

  ==> Geometry <==

    Molecular point group: c1
    Full point group: C1

    Geometry (in Angstrom), charge = 0, multiplicity = 1:

       Center              X                  Y                   Z               Mass       
    ------------   -----------------  -----------------  -----------------  -----------------
      Gh(C)          -2.533297103413    -0.274095900405    -2.931597007467    12.000000000000
      Gh(H)          -2.563617103413    -0.956295900405    -3.781167007467     1.007825032230
      Gh(H)          -2.566967103413    -0.875095900405    -2.023017007467     1.007825032230
      Gh(H)          -3.434417103413     0.336744099595    -2.960647007467     1.007825032230
      Gh(C)          -1.271867103413     0.578444099595    -2.970387007467    12.000000000000
      Gh(H)          -1.271017103413     1.277354099595    -2.130427007467     1.007825032230
      Gh(H)          -1.266617103413     1.188684099595    -3.876577007467     1.007825032230
      Gh(C)          -0.000127103413    -0.257635900405    -2.925147007467    12.000000000000
      Gh(H)          -0.000147103413    -0.866445900405    -2.016107007467     1.007825032230
      Gh(H)          -0.000347103413    -0.959925900405    -3.764147007467     1.007825032230
      Gh(C)           1.271902896587     0.578164099595    -2.970687007467    12.000000000000
      Gh(H)           1.270982896587     1.277414099595    -2.131037007467     1.007825032230
      Gh(H)           1.266652896587     1.187964099595    -3.877137007467     1.007825032230
      Gh(C)           2.533412896587    -0.274155900405    -2.931467007467    12.000000000000
      Gh(H)           2.563932896587    -0.956985900405    -3.780527007467     1.007825032230
      Gh(H)           3.434322896587     0.337034099595    -2.961147007467     1.007825032230
      Gh(H)           2.567572896587    -0.874425900405    -2.022417007467     1.007825032230
         C            2.533562896587     0.273774099595     2.931472992533    12.000000000000
         H            2.568152896587     0.873584099595     2.022142992533     1.007825032230
         H            2.564072896587     0.956984099595     3.780212992533     1.007825032230
         H            3.434242896587    -0.337725900405     2.961682992533     1.007825032230
         C            1.271732896587    -0.578105900405     2.970772992533    12.000000000000
         H            1.266292896587    -1.187835900405     3.877272992533     1.007825032230
         H            1.270602896587    -1.277465900405     2.131192992533     1.007825032230
         C           -0.000037103413     0.257984099595     2.925162992533    12.000000000000
         H           -0.000187103413     0.960294099595     3.764142992533     1.007825032230
         H            0.000042896587     0.866764099595     2.016092992533     1.007825032230
         C           -1.271797103413    -0.578155900405     2.970432992533    12.000000000000
         H           -1.266417103413    -1.188265900405     3.876682992533     1.007825032230
         H           -1.270687103413    -1.277175900405     2.130562992533     1.007825032230
         C           -2.533517103413     0.273894099595     2.931452992533    12.000000000000
         H           -2.567707103413     0.874424099595     2.022572992533     1.007825032230
         H           -3.434317103413    -0.337405900405     2.960962992533     1.007825032230
         H           -2.564057103413     0.956484099595     3.780712992533     1.007825032230

  Running in c1 symmetry.

  Rotational constants: A =      0.03105  B =      0.01286  C =      0.00954 [cm^-1]
  Rotational constants: A =    930.96945  B =    385.59621  C =    286.10039 [MHz]
  Nuclear repulsion =  185.635672198518137

  Charge       = 0
  Multiplicity = 1
  Electrons    = 42
  Nalpha       = 21
  Nbeta        = 21

  ==> Algorithm <==

  SCF Algorithm Type is DF.
  DIIS enabled.
  MOM disabled.
  Fractional occupation disabled.
  Guess Type is SAD.
  Energy threshold   = 1.00e-08
  Density threshold  = 1.00e-08
  Integral threshold = 0.00e+00

  ==> Primary Basis <==

  Basis Set: AUG-CC-PVDZ
    Blend: AUG-CC-PVDZ
    Number of shells: 210
    Number of basis function: 446
    Number of Cartesian functions: 466
    Spherical Harmonics?: true
    Max angular momentum: 2

   => Loading Basis Set <=

    Name: (AUG-CC-PVDZ AUX)
    Role: JKFIT
    Keyword: DF_BASIS_SCF
    atoms 1, 5, 8, 11, 14, 18, 22, 25, 28, 31                             entry C          line   154 file /home/liuchw/anaconda3/envs/psi4env/share/psi4/basis/aug-cc-pvdz-jkfit.gbs 
    atoms 2-4, 6-7, 9-10, 12-13, 15-17, 19-21, 23-24, 26-27, 29-30, 32-34 entry H          line    70 file /home/liuchw/anaconda3/envs/psi4env/share/psi4/basis/aug-cc-pvdz-jkfit.gbs 

  ==> Pre-Iterations <==

   -------------------------------------------------------
    Irrep   Nso     Nmo     Nalpha   Nbeta   Ndocc  Nsocc
   -------------------------------------------------------
     A        446     446       0       0       0       0
   -------------------------------------------------------
    Total     446     446      21      21      21       0
   -------------------------------------------------------

  ==> Integral Setup <==

  ==> DiskDFJK: Density-Fitted J/K Matrices <==

    J tasked:                  Yes
    K tasked:                  Yes
    wK tasked:                  No
    OpenMP threads:              8
    Integrals threads:           8
    Memory [MiB]:            14305
    Algorithm:                Core
    Integral Cache:           LOAD
    Schwarz Cutoff:          1E-12
    Fitting Condition:       1E-10

   => Auxiliary Basis Set <=

  Basis Set: (AUG-CC-PVDZ AUX)
    Blend: AUG-CC-PVDZ-JKFIT
    Number of shells: 568
    Number of basis function: 1628
    Number of Cartesian functions: 1850
    Spherical Harmonics?: true
    Max angular momentum: 3

  Minimum eigenvalue in the overlap matrix is 9.8680970927E-06.
  Using Symmetric Orthogonalization.

  SCF Guess: Superposition of Atomic Densities via on-the-fly atomic UHF.

  ==> Iterations <==

                           Total Energy        Delta E     RMS |[F,P]|

   @DF-RHF iter SAD:  -195.86351930835190   -1.95864e+02   0.00000e+00 
   @DF-RHF iter   1:  -196.08593119331888   -2.22412e-01   1.44290e-03 DIIS
   @DF-RHF iter   2:  -196.30505813741820   -2.19127e-01   6.46790e-04 DIIS
   @DF-RHF iter   3:  -196.35085627972333   -4.57981e-02   1.14496e-04 DIIS
   @DF-RHF iter   4:  -196.35375872809038   -2.90245e-03   2.41545e-05 DIIS
   @DF-RHF iter   5:  -196.35385034072681   -9.16126e-05   6.93833e-06 DIIS
   @DF-RHF iter   6:  -196.35385929734218   -8.95662e-06   1.01373e-06 DIIS
   @DF-RHF iter   7:  -196.35385953223400   -2.34892e-07   2.11147e-07 DIIS
   @DF-RHF iter   8:  -196.35385954304519   -1.08112e-08   4.04083e-08 DIIS
   @DF-RHF iter   9:  -196.35385954342644   -3.81249e-10   1.33894e-08 DIIS
   @DF-RHF iter  10:  -196.35385954346003   -3.35945e-11   3.18674e-09 DIIS
  Energy and wave function converged.


  ==> Post-Iterations <==

    Orbital Energies [Eh]
    ---------------------

    Doubly Occupied:                                                      

       1A    -11.218268     2A    -11.218208     3A    -11.215659  
       4A    -11.213991     5A    -11.213988     6A     -1.082586  
       7A     -1.016612     8A     -0.920039     9A     -0.820544  
      10A     -0.785395    11A     -0.646830    12A     -0.598001  
      13A     -0.592357    14A     -0.553493    15A     -0.546781  
      16A     -0.525023    17A     -0.493728    18A     -0.474862  
      19A     -0.460983    20A     -0.458004    21A     -0.446188  

    Virtual:                                                              

      22A      0.021065    23A      0.032842    24A      0.039239  
      25A      0.040299    26A      0.047505    27A      0.050500  
      28A      0.051608    29A      0.056062    30A      0.058282  
      31A      0.067289    32A      0.069840    33A      0.071888  
      34A      0.072037    35A      0.084330    36A      0.085123  
      37A      0.086892    38A      0.091014    39A      0.097251  
      40A      0.098169    41A      0.100901    42A      0.105016  
      43A      0.109580    44A      0.113404    45A      0.118450  
      46A      0.127249    47A      0.129065    48A      0.132787  
      49A      0.138040    50A      0.146272    51A      0.148084  
      52A      0.151969    53A      0.155303    54A      0.157491  
      55A      0.163826    56A      0.166941    57A      0.170985  
      58A      0.172018    59A      0.176825    60A      0.179074  
      61A      0.181335    62A      0.182842    63A      0.185529  
      64A      0.190407    65A      0.191329    66A      0.197308  
      67A      0.202218    68A      0.203785    69A      0.207759  
      70A      0.211968    71A      0.216510    72A      0.216513  
      73A      0.218291    74A      0.218397    75A      0.227416  
      76A      0.227928    77A      0.235341    78A      0.239994  
      79A      0.244850    80A      0.252244    81A      0.255181  
      82A      0.262203    83A      0.263708    84A      0.278746  
      85A      0.282077    86A      0.288051    87A      0.304453  
      88A      0.307762    89A      0.315679    90A      0.322918  
      91A      0.325893    92A      0.340178    93A      0.343323  
      94A      0.351345    95A      0.354124    96A      0.358843  
      97A      0.361725    98A      0.370815    99A      0.373078  
     100A      0.374330   101A      0.377285   102A      0.383019  
     103A      0.384334   104A      0.390224   105A      0.398271  
     106A      0.398710   107A      0.411589   108A      0.415872  
     109A      0.419036   110A      0.419885   111A      0.424549  
     112A      0.431034   113A      0.437118   114A      0.443161  
     115A      0.450258   116A      0.454129   117A      0.455277  
     118A      0.460623   119A      0.462647   120A      0.465654  
     121A      0.471732   122A      0.476991   123A      0.479194  
     124A      0.480346   125A      0.483052   126A      0.484410  
     127A      0.490552   128A      0.494803   129A      0.494931  
     130A      0.502785   131A      0.505718   132A      0.515106  
     133A      0.517338   134A      0.522809   135A      0.524029  
     136A      0.528475   137A      0.529929   138A      0.537991  
     139A      0.538414   140A      0.547870   141A      0.550236  
     142A      0.555545   143A      0.561354   144A      0.563266  
     145A      0.565954   146A      0.573008   147A      0.576348  
     148A      0.581897   149A      0.585520   150A      0.594677  
     151A      0.599629   152A      0.600098   153A      0.614094  
     154A      0.617915   155A      0.625590   156A      0.626993  
     157A      0.632804   158A      0.637361   159A      0.640057  
     160A      0.647734   161A      0.653734   162A      0.657097  
     163A      0.661347   164A      0.665721   165A      0.665888  
     166A      0.671912   167A      0.671939   168A      0.680357  
     169A      0.680810   170A      0.685809   171A      0.693358  
     172A      0.694396   173A      0.703859   174A      0.707437  
     175A      0.710758   176A      0.718381   177A      0.719600  
     178A      0.723978   179A      0.738190   180A      0.738847  
     181A      0.749046   182A      0.752279   183A      0.759669  
     184A      0.764554   185A      0.768727   186A      0.771710  
     187A      0.773506   188A      0.774758   189A      0.781820  
     190A      0.787968   191A      0.798862   192A      0.803067  
     193A      0.811168   194A      0.820495   195A      0.823287  
     196A      0.824715   197A      0.830054   198A      0.839772  
     199A      0.840347   200A      0.844234   201A      0.849525  
     202A      0.852875   203A      0.858723   204A      0.859694  
     205A      0.865897   206A      0.867617   207A      0.869093  
     208A      0.876052   209A      0.877917   210A      0.878775  
     211A      0.894586   212A      0.901856   213A      0.908237  
     214A      0.908970   215A      0.910867   216A      0.918636  
     217A      0.919971   218A      0.930314   219A      0.930608  
     220A      0.938737   221A      0.938792   222A      0.950231  
     223A      0.952987   224A      0.959573   225A      0.962837  
     226A      0.971843   227A      0.978582   228A      0.980082  
     229A      0.984113   230A      0.990766   231A      0.995572  
     232A      0.997165   233A      1.002432   234A      1.006540  
     235A      1.035409   236A      1.045206   237A      1.060536  
     238A      1.066680   239A      1.073444   240A      1.088828  
     241A      1.098640   242A      1.109217   243A      1.110413  
     244A      1.118667   245A      1.124758   246A      1.140061  
     247A      1.161476   248A      1.168683   249A      1.184363  
     250A      1.187928   251A      1.194986   252A      1.202374  
     253A      1.209222   254A      1.220625   255A      1.233651  
     256A      1.238534   257A      1.240461   258A      1.257869  
     259A      1.273686   260A      1.290938   261A      1.291125  
     262A      1.316543   263A      1.330804   264A      1.334653  
     265A      1.352733   266A      1.354435   267A      1.376199  
     268A      1.455005   269A      1.459004   270A      1.482403  
     271A      1.497016   272A      1.524084   273A      1.564040  
     274A      1.572934   275A      1.599249   276A      1.612499  
     277A      1.639557   278A      1.660580   279A      1.700476  
     280A      1.709731   281A      1.773166   282A      1.812155  
     283A      1.845039   284A      1.858221   285A      1.869845  
     286A      1.875060   287A      1.906264   288A      1.917425  
     289A      1.919204   290A      1.953052   291A      1.953675  
     292A      1.958498   293A      1.980273   294A      1.987653  
     295A      2.002866   296A      2.021157   297A      2.060822  
     298A      2.083756   299A      2.088288   300A      2.097360  
     301A      2.101371   302A      2.105123   303A      2.105432  
     304A      2.110563   305A      2.114199   306A      2.125243  
     307A      2.133242   308A      2.141315   309A      2.142500  
     310A      2.147115   311A      2.157959   312A      2.179698  
     313A      2.189048   314A      2.197715   315A      2.205796  
     316A      2.214958   317A      2.223584   318A      2.259336  
     319A      2.275719   320A      2.275925   321A      2.283021  
     322A      2.298320   323A      2.306777   324A      2.315758  
     325A      2.317047   326A      2.330237   327A      2.336196  
     328A      2.336735   329A      2.347513   330A      2.351078  
     331A      2.353344   332A      2.364246   333A      2.365176  
     334A      2.373482   335A      2.376980   336A      2.386833  
     337A      2.388085   338A      2.394497   339A      2.409080  
     340A      2.414278   341A      2.418444   342A      2.424406  
     343A      2.430854   344A      2.438638   345A      2.439565  
     346A      2.440769   347A      2.444303   348A      2.452175  
     349A      2.461679   350A      2.473087   351A      2.484715  
     352A      2.490917   353A      2.506762   354A      2.514793  
     355A      2.523806   356A      2.532570   357A      2.537209  
     358A      2.553825   359A      2.566294   360A      2.570024  
     361A      2.587574   362A      2.593011   363A      2.609857  
     364A      2.619510   365A      2.646970   366A      2.669270  
     367A      2.684327   368A      2.692359   369A      2.707587  
     370A      2.708229   371A      2.734690   372A      2.738613  
     373A      2.742586   374A      2.746720   375A      2.773133  
     376A      2.784652   377A      2.806596   378A      2.806855  
     379A      2.831959   380A      2.860514   381A      2.860986  
     382A      2.873534   383A      2.893935   384A      2.902332  
     385A      2.908489   386A      2.908739   387A      2.970634  
     388A      2.971193   389A      2.971743   390A      2.983487  
     391A      2.998993   392A      3.018211   393A      3.046768  
     394A      3.068693   395A      3.088033   396A      3.101975  
     397A      3.111627   398A      3.117329   399A      3.145906  
     400A      3.158296   401A      3.186128   402A      3.196872  
     403A      3.215430   404A      3.231185   405A      3.248628  
     406A      3.288200   407A      3.306623   408A      3.326925  
     409A      3.371216   410A      3.393586   411A      3.398977  
     412A      3.403904   413A      3.416994   414A      3.442703  
     415A      3.449467   416A      3.456343   417A      3.486229  
     418A      3.560447   419A      3.580281   420A      3.627602  
     421A      3.661516   422A      3.715940   423A      3.730049  
     424A      3.809353   425A      3.946561   426A      4.097505  
     427A      4.296847   428A      4.365404   429A      4.464919  
     430A      4.499275   431A      4.775942   432A      4.819101  
     433A      4.873481   434A      4.929217   435A      4.980762  
     436A      5.024652   437A      5.110729   438A      5.177224  
     439A      5.238287   440A      5.266677   441A      5.368493  
     442A     18.252296   443A     18.445675   444A     18.677372  
     445A     18.993599   446A     19.176284  

    Final Occupation by Irrep:
              A 
    DOCC [    21 ]

  @DF-RHF Final Energy:  -196.35385954346003

   => Energetics <=

    Nuclear Repulsion Energy =            185.6356721985181366
    One-Electron Energy =                -630.9759834984849931
    Two-Electron Energy =                 248.9864517565068240
    Total Energy =                       -196.3538595434600325

Computation Completed


Properties will be evaluated at   0.000000,   0.000000,   0.000000 [a0]

Properties computed using the SCF density matrix

  Nuclear Dipole Moment: [e a0]
     X:    -0.0006      Y:    -4.1971      Z:   233.7591

  Electronic Dipole Moment: [e a0]
     X:     0.0006      Y:     4.1632      Z:  -233.7574

  Dipole Moment: [e a0]
     X:    -0.0000      Y:    -0.0339      Z:     0.0018     Total:     0.0339

  Dipole Moment: [D]
     X:    -0.0000      Y:    -0.0861      Z:     0.0045     Total:     0.0862


*** tstop() called on node100.bme.utexas.edu at Thu Apr 23 18:07:27 2020
Module time:
	user time   =      78.35 seconds =       1.31 minutes
	system time =       2.13 seconds =       0.04 minutes
	total time  =         12 seconds =       0.20 minutes
Total time:
	user time   =     352.99 seconds =       5.88 minutes
	system time =       8.00 seconds =       0.13 minutes
	total time  =         52 seconds =       0.87 minutes
  Constructing Basis Sets for SAPT...

   => Loading Basis Set <=

    Name: (AUG-CC-PVDZ AUX)
    Role: RIFIT
    Keyword: DF_BASIS_SAPT
    atoms 1, 5, 8, 11, 14, 18, 22, 25, 28, 31                             entry C          line   112 file /home/liuchw/anaconda3/envs/psi4env/share/psi4/basis/aug-cc-pvdz-ri.gbs 
    atoms 2-4, 6-7, 9-10, 12-13, 15-17, 19-21, 23-24, 26-27, 29-30, 32-34 entry H          line    30 file /home/liuchw/anaconda3/envs/psi4env/share/psi4/basis/aug-cc-pvdz-ri.gbs 


  //>>>>>>>>>>>>>>>>>>>>>>>>>>>>>>>>>>>//
  //               SAPT2+              //
  //<<<<<<<<<<<<<<<<<<<<<<<<<<<<<<<<<<<//


*** tstart() called on node100.bme.utexas.edu
*** at Thu Apr 23 18:07:28 2020

        SAPT2+  
    Ed Hohenstein
     6 June 2009

      Orbital Information
  --------------------------
    NSO        =       446
    NMO        =       446
    NRI        =      1272
    NOCC A     =        21
    NOCC B     =        21
    FOCC A     =         5
    FOCC B     =         5
    NVIR A     =       425
    NVIR B     =       425

    Estimated memory usage: 3749.8 MB

    Natural Orbital Cutoff:   1.000E-06
    Disp(T3) Truncation:            Yes
    CCD (vv|vv) Truncation:         Yes
    MBPT T2 Truncation:             Yes

    Monomer A: 239 virtual orbitals dropped
    Monomer B: 239 virtual orbitals dropped

    Elst10,r            =     0.000013000312 [Eh]
    Exch10 (S^2)        =     0.000009225101 [Eh]
    Exch10              =     0.000009225093 [Eh]
    Ind20,r (A<-B)      =    -0.000000903786 [Eh]
    Ind20,r (B<-A)      =    -0.000000903963 [Eh]
    Ind20,r             =    -0.000001807749 [Eh]
    Exch-Ind20,r (A<-B) =     0.000000354232 [Eh]
    Exch-Ind20,r (B<-A) =     0.000000354357 [Eh]
    Exch-Ind20,r        =     0.000000708588 [Eh]
    Disp20              =    -0.000866487334 [Eh]
    Disp20 (NO)         =    -0.000849019411 [Eh]
    Exch-Disp20         =     0.000002044111 [Eh]
    Elst12,r            =    -0.000004008810 [Eh]
    Exch11              =    -0.000000127729 [Eh]
    Exch12              =     0.000002736657 [Eh]
    Ind22               =    -0.000000457398 [Eh]
    Disp21              =     0.000133050308 [Eh]
    Disp22 (SDQ)        =     0.000008941170 [Eh]

    (i =   1 of  16)         46 seconds
    (i =   2 of  16)         91 seconds
    (i =   3 of  16)        137 seconds
    (i =   4 of  16)        182 seconds
    (i =   5 of  16)        228 seconds
    (i =   6 of  16)        274 seconds
    (i =   7 of  16)        319 seconds
    (i =   8 of  16)        365 seconds
    (i =   9 of  16)        410 seconds
    (i =  10 of  16)        456 seconds
    (i =  11 of  16)        501 seconds
    (i =  12 of  16)        547 seconds
    (i =  13 of  16)        592 seconds
    (i =  14 of  16)        638 seconds
    (i =  15 of  16)        683 seconds
    (i =  16 of  16)        729 seconds

    Disp220 (T)         =    -0.000062125809 [Eh]

    (i =   1 of  16)         46 seconds
    (i =   2 of  16)         92 seconds
    (i =   3 of  16)        137 seconds
    (i =   4 of  16)        183 seconds
    (i =   5 of  16)        228 seconds
    (i =   6 of  16)        274 seconds
    (i =   7 of  16)        319 seconds
    (i =   8 of  16)        365 seconds
    (i =   9 of  16)        410 seconds
    (i =  10 of  16)        456 seconds
    (i =  11 of  16)        501 seconds
    (i =  12 of  16)        547 seconds
    (i =  13 of  16)        593 seconds
    (i =  14 of  16)        638 seconds
    (i =  15 of  16)        684 seconds
    (i =  16 of  16)        729 seconds

    Disp202 (T)         =    -0.000062125311 [Eh]

    Disp22 (T)          =    -0.000124251120 [Eh]

    Est. Disp220 (T)    =    -0.000063404000 [Eh]
    Est. Disp202 (T)    =    -0.000063403491 [Eh]

    Est. Disp22 (T)     =    -0.000126807492 [Eh]

    SAPT Results 
  --------------------------------------------------------------------------------------------------------
    Electrostatics                  0.00899150 [mEh]       0.00564225 [kcal/mol]       0.02360719 [kJ/mol]
      Elst10,r                      0.01300031 [mEh]       0.00815782 [kcal/mol]       0.03413232 [kJ/mol]
      Elst12,r                     -0.00400881 [mEh]      -0.00251557 [kcal/mol]      -0.01052513 [kJ/mol]

    Exchange                        0.01183402 [mEh]       0.00742596 [kcal/mol]       0.03107022 [kJ/mol]
      Exch10                        0.00922509 [mEh]       0.00578883 [kcal/mol]       0.02422048 [kJ/mol]
      Exch10(S^2)                   0.00922510 [mEh]       0.00578884 [kcal/mol]       0.02422050 [kJ/mol]
      Exch11(S^2)                  -0.00012773 [mEh]      -0.00008015 [kcal/mol]      -0.00033535 [kJ/mol]
      Exch12(S^2)                   0.00273666 [mEh]       0.00171728 [kcal/mol]       0.00718509 [kJ/mol]

    Induction                      -0.00190229 [mEh]      -0.00119370 [kcal/mol]      -0.00499445 [kJ/mol]
      Ind20,r                      -0.00180775 [mEh]      -0.00113438 [kcal/mol]      -0.00474624 [kJ/mol]
      Ind22                        -0.00045740 [mEh]      -0.00028702 [kcal/mol]      -0.00120090 [kJ/mol]
      Exch-Ind20,r                  0.00070859 [mEh]       0.00044465 [kcal/mol]       0.00186040 [kJ/mol]
      Exch-Ind22                    0.00017929 [mEh]       0.00011250 [kcal/mol]       0.00047072 [kJ/mol]
      delta HF,r (2)               -0.00052501 [mEh]      -0.00032945 [kcal/mol]      -0.00137843 [kJ/mol]

    Dispersion                     -0.84925924 [mEh]      -0.53291822 [kcal/mol]      -2.22972982 [kJ/mol]
      Disp20                       -0.86648733 [mEh]      -0.54372901 [kcal/mol]      -2.27496218 [kJ/mol]
      Disp21                        0.13305031 [mEh]       0.08349033 [kcal/mol]       0.34932354 [kJ/mol]
      Disp22 (SDQ)                  0.00894117 [mEh]       0.00561067 [kcal/mol]       0.02347504 [kJ/mol]
      Disp22 (T)                   -0.12425112 [mEh]      -0.07796875 [kcal/mol]      -0.32622127 [kJ/mol]
      Est. Disp22 (T)              -0.12680749 [mEh]      -0.07957290 [kcal/mol]      -0.33293302 [kJ/mol]
      Exch-Disp20                   0.00204411 [mEh]       0.00128270 [kcal/mol]       0.00536681 [kJ/mol]

  Total HF                          0.02060123 [mEh]       0.01292747 [kcal/mol]       0.05408852 [kJ/mol]
  Total SAPT0                      -0.84384199 [mEh]      -0.52951885 [kcal/mol]      -2.21550685 [kJ/mol]
  Total SAPT2                      -0.84551999 [mEh]      -0.53057180 [kcal/mol]      -2.21991242 [kJ/mol]
  Total SAPT2+                     -0.83033600 [mEh]      -0.52104371 [kcal/mol]      -2.18004686 [kJ/mol]

  Special recipe for scaled SAPT0 (see Manual):
    Electrostatics sSAPT0           0.01300031 [mEh]       0.00815782 [kcal/mol]       0.03413232 [kJ/mol]
    Exchange sSAPT0                 0.00922509 [mEh]       0.00578883 [kcal/mol]       0.02422048 [kJ/mol]
    Induction sSAPT0               -0.00162418 [mEh]      -0.00101919 [kcal/mol]      -0.00426427 [kJ/mol]
    Dispersion sSAPT0              -0.86444322 [mEh]      -0.54244631 [kcal/mol]      -2.26959537 [kJ/mol]
  Total sSAPT0                     -0.84384199 [mEh]      -0.52951885 [kcal/mol]      -2.21550685 [kJ/mol]
  --------------------------------------------------------------------------------------------------------

*** tstop() called on node100.bme.utexas.edu at Thu Apr 23 18:43:37 2020
Module time:
	user time   =   14087.26 seconds =     234.79 minutes
	system time =     313.83 seconds =       5.23 minutes
	total time  =       2169 seconds =      36.15 minutes
Total time:
	user time   =   14441.60 seconds =     240.69 minutes
	system time =     321.94 seconds =       5.37 minutes
	total time  =       2222 seconds =      37.03 minutes

    Psi4 stopped on: Thursday, 23 April 2020 06:43PM
    Psi4 wall time for execution: 0:37:01.98

*** Psi4 exiting successfully. Buy a developer a beer!
