    -----------------------------------------------------------------------
          PSI4: An Open-Source Ab Initio Electronic Structure Package
                              PSI 4.0.0-beta4 Driver

    J. M. Turney, A. C. Simmonett, R. M. Parrish, E. G. Hohenstein,
    F. A. Evangelista, J. T. Fermann, B. J. Mintz, L. A. Burns, J. J. Wilke,
    M. L. Abrams, N. J. Russ, M. L. Leininger, C. L. Janssen, E. T. Seidl,
    W. D. Allen, H. F. Schaefer, R. A. King, E. F. Valeev, C. D. Sherrill,
    and T. D. Crawford, WIREs Comput. Mol. Sci., (2011) (doi: 10.1002/wcms.93)

                         Additional Contributions by
    A. E. DePrince, M. Saitow, U. Bozkaya, A. Yu. Sokolov
    -----------------------------------------------------------------------

    Process ID:  11065
    PSI4DATADIR: /home/xzhu216/psi4/psi4-install/share/psi

    Using LocalCommunicator (Number of processes = 1)

    Memory level set to 256.000 MB

  ==> Input File <==

--------------------------------------------------------------------------
#psi4
#
memory 7 gb

molecule Pentane_Neopentane {
0 1
    C    -2.530382875    -0.417575328     0.681306427
    H    -2.559886030    -0.982789976    -0.250156186
    H    -2.554036254    -1.133864955     1.502657895
    H    -3.436213548     0.184143757     0.736771328
    C    -1.276156833     0.443634931     0.750024835
    H    -1.278083837     1.025217854     1.675085476
    H    -1.280338992     1.168555644    -0.067158059
    C     0.002204702    -0.380716198     0.678992565
    H     0.007828937    -1.111413037     1.493831222
    H     0.006248662    -0.960522698    -0.248820457
    C     1.268333474     0.462396346     0.749369126
    H     1.262019855     1.044250286     1.674246445
    H     1.261634884     1.187057109    -0.068034584
    C     2.534966272    -0.380424693     0.680686361
    H     2.572440242    -0.945716519    -0.250451864
    H     3.431981168     0.234414915     0.735577717
    H     2.569207714    -1.095810030     1.502456084
--
0 1
    C    -0.000430239     0.034234862     4.195086908
    C     0.000641504    -0.105896243     5.714819862
    H    -0.886394521     0.358179799     6.148189275
    H     0.009893006    -1.156676490     6.007829731
    H     0.879301727     0.373768319     6.148462931
    C    -1.239885576    -0.647417169     3.621188397
    H    -1.263184790    -0.558460045     2.534359212
    H    -1.251971205    -1.708693564     3.874201598
    H    -2.150829297    -0.195125911     4.016273517
    C     1.252174873    -0.623305945     3.621616570
    H     1.273501659    -0.535020280     2.534645611
    H     1.285305407    -1.683866785     3.875708889
    H     2.153987107    -0.152662633     4.016037692
    C    -0.014678114     1.514027353     3.820465632
    H     0.863087883     2.024614371     4.219420763
    H    -0.015202315     1.640482279     2.736813943
    H    -0.902784063     2.007361065     4.218253773
units angstrom
no_reorient  #important for SAPT in psi4, default
symmetry c1  #important for SAPT in psi4, default
}

set {
basis aug-cc-pVDZ
scf_type DF
freeze_core True
}
energy('sapt2+')
--------------------------------------------------------------------------

  Memory set to   7.000 GiB by Python script.

  //>>>>>>>>>>>>>>>>>>>>>>>>>>>>>>>>>>>//
  //              Dimer HF             //
  //<<<<<<<<<<<<<<<<<<<<<<<<<<<<<<<<<<<//


  No DF_BASIS_SCF auxiliary basis selected, defaulting to aug-cc-pvdz-jkfit


*** tstart() called on node55.bme.utexas.edu
*** at Mon Feb 17 05:03:39 2014


         ---------------------------------------------------------
                                   SCF
            by Justin Turney, Rob Parrish, and Andy Simmonett
                              RHF Reference
                        4 Threads,   7000 MiB Core
         ---------------------------------------------------------

  ==> Geometry <==

    Molecular point group: c1
    Full point group: C1

    Geometry (in Angstrom), charge = 0, multiplicity = 1:

       Center              X                  Y                   Z       
    ------------   -----------------  -----------------  -----------------
           C         -2.530098108865    -0.402368126201    -1.769585587973
           H         -2.559601263865    -0.967582774201    -2.701048200973
           H         -2.553751487865    -1.118657753201    -0.948234119973
           H         -3.435928781865     0.199350958799    -1.714120686973
           C         -1.275872066865     0.458842132799    -1.700867179973
           H         -1.277799070865     1.040425055799    -0.775806538973
           H         -1.280054225865     1.183762845799    -2.518050073973
           C          0.002489468135    -0.365508996201    -1.771899449973
           H          0.008113703135    -1.096205835201    -0.957060792973
           H          0.006533428135    -0.945315496201    -2.699712471973
           C          1.268618240135     0.477603547799    -1.701522888973
           H          1.262304621135     1.059457487799    -0.776645569973
           H          1.261919650135     1.202264310799    -2.518926598973
           C          2.535251038135    -0.365217491201    -1.770205653973
           H          2.572725008135    -0.930509317201    -2.701343878973
           H          3.432265934135     0.249622116799    -1.715314297973
           H          2.569492480135    -1.080602828201    -0.948435930973
           C         -0.000145472865     0.049442063799     1.744194893027
           C          0.000926270135    -0.090689041201     3.263927847027
           H         -0.886109754865     0.373387000799     3.697297260027
           H          0.010177772135    -1.141469288201     3.556937716027
           H          0.879586493135     0.388975520799     3.697570916027
           C         -1.239600809865    -0.632209967201     1.170296382027
           H         -1.262900023865    -0.543252843201     0.083467197027
           H         -1.251686438865    -1.693486362201     1.423309583027
           H         -2.150544530865    -0.179918709201     1.565381502027
           C          1.252459639135    -0.608098743201     1.170724555027
           H          1.273786425135    -0.519813078201     0.083753596027
           H          1.285590173135    -1.668659583201     1.424816874027
           H          2.154271873135    -0.137455431201     1.565145677027
           C         -0.014393347865     1.529234554799     1.369573617027
           H          0.863372649135     2.039821572799     1.768528748027
           H         -0.014917548865     1.655689480799     0.285921928027
           H         -0.902499296865     2.022568266799     1.767361758027

  Running in c1 symmetry.

  Nuclear repulsion =  619.281438345877064

  Charge       = 0
  Multiplicity = 1
  Electrons    = 84
  Nalpha       = 42
  Nbeta        = 42

  ==> Algorithm <==

  SCF Algorithm Type is DF.
  DIIS enabled.
  MOM disabled.
  Fractional occupation disabled.
  Guess Type is CORE.
  Energy threshold   = 1.00e-08
  Density threshold  = 1.00e-08
  Integral threshold = 0.00e+00

  ==> Primary Basis <==

  Basis Set: AUG-CC-PVDZ
    Number of shells: 210
    Number of basis function: 446
    Number of Cartesian functions: 466
    Spherical Harmonics?: true
    Max angular momentum: 2

  ==> Pre-Iterations <==

   -------------------------------------------------------
    Irrep   Nso     Nmo     Nalpha   Nbeta   Ndocc  Nsocc
   -------------------------------------------------------
     A        446     446       0       0       0       0
   -------------------------------------------------------
    Total     446     446      42      42      42       0
   -------------------------------------------------------

 OEINTS: Wrapper to libmints.
   by Justin Turney

   Calculation information:
      Number of atoms:                  34
      Number of AO shells:             210
      Number of SO shells:             210
      Number of primitives:            418
      Number of atomic orbitals:       466
      Number of basis functions:       446

      Number of irreps:                  1
      Number of functions per irrep: [ 446 ]

      Overlap, kinetic, potential, dipole, and quadrupole integrals
        stored in file 35.

  ==> Integral Setup <==

  ==> DFJK: Density-Fitted J/K Matrices <==

    J tasked:                  Yes
    K tasked:                  Yes
    wK tasked:                  No
    OpenMP threads:              4
    Integrals threads:           4
    Memory (MB):              5006
    Algorithm:                Core
    Integral Cache:           SAVE
    Schwarz Cutoff:          0E+00
    Fitting Condition:       1E-12

   => Auxiliary Basis Set <=

  Basis Set: aug-cc-pvdz-jkfit
    Number of shells: 568
    Number of basis function: 1628
    Number of Cartesian functions: 1850
    Spherical Harmonics?: true
    Max angular momentum: 3

  Minimum eigenvalue in the overlap matrix is 3.9483434679E-06.
  Using Symmetric Orthogonalization.
  SCF Guess: Core (One-Electron) Hamiltonian.

  Guess energy:  -336.00064428714495

  ==> Iterations <==

                        Total Energy        Delta E     RMS |[F,P]|

   @RHF iter   1:  -256.07294096669614   -2.56073e+02   2.41974e-02 
   @RHF iter   2:  -193.71348586803390    6.23595e+01   2.30274e-02 DIIS
   @RHF iter   3:  -267.91126579725858   -7.41978e+01   2.31027e-02 DIIS
   @RHF iter   4:  -275.93079394501456   -8.01953e+00   2.60707e-02 DIIS
   @RHF iter   5:  -388.10782689307234   -1.12177e+02   4.98564e-03 DIIS
   @RHF iter   6:  -392.24040966234168   -4.13258e+00   1.82043e-03 DIIS
   @RHF iter   7:  -392.61801867331189   -3.77609e-01   4.30538e-04 DIIS
   @RHF iter   8:  -392.64070527843558   -2.26866e-02   1.24373e-04 DIIS
   @RHF iter   9:  -392.64328250000074   -2.57722e-03   3.66197e-05 DIIS
   @RHF iter  10:  -392.64349134118925   -2.08841e-04   1.06509e-05 DIIS
   @RHF iter  11:  -392.64350786512512   -1.65239e-05   3.21525e-06 DIIS
   @RHF iter  12:  -392.64350983471570   -1.96959e-06   6.91564e-07 DIIS
   @RHF iter  13:  -392.64350992512050   -9.04048e-08   2.11279e-07 DIIS
   @RHF iter  14:  -392.64350993545077   -1.03303e-08   5.04309e-08 DIIS
   @RHF iter  15:  -392.64350993599965   -5.48880e-10   1.39577e-08 DIIS
   @RHF iter  16:  -392.64350993604114   -4.14957e-11   4.32688e-09 DIIS

  ==> Post-Iterations <==

	Orbital Energies (a.u.)
	-----------------------

	Doubly Occupied:                                                      

	   1A    -11.226938     2A    -11.218422     3A    -11.218337  
	   4A    -11.216286     5A    -11.213860     6A    -11.213851  
	   7A    -11.208399     8A    -11.207864     9A    -11.200201  
	  10A    -11.200179    11A     -1.111139    12A     -1.086526  
	  13A     -1.025209    14A     -0.931288    15A     -0.927916  
	  16A     -0.926710    17A     -0.923408    18A     -0.825230  
	  19A     -0.792121    20A     -0.736784    21A     -0.673746  
	  22A     -0.633194    23A     -0.611399    24A     -0.604450  
	  25A     -0.596041    26A     -0.585603    27A     -0.565786  
	  28A     -0.551815    29A     -0.546720    30A     -0.539593  
	  31A     -0.528303    32A     -0.510586    33A     -0.505623  
	  34A     -0.499094    35A     -0.493281    36A     -0.477450  
	  37A     -0.470605    38A     -0.455636    39A     -0.449728  
	  40A     -0.444634    41A     -0.442933    42A     -0.427470  

	Virtual:                                                              

	  43A      0.032171    44A      0.038861    45A      0.040390  
	  46A      0.042115    47A      0.055045    48A      0.055083  
	  49A      0.057579    50A      0.059181    51A      0.060613  
	  52A      0.076281    53A      0.077294    54A      0.081653  
	  55A      0.082755    56A      0.084803    57A      0.089625  
	  58A      0.091130    59A      0.103616    60A      0.109422  
	  61A      0.111389    62A      0.112604    63A      0.120621  
	  64A      0.123284    65A      0.123694    66A      0.134193  
	  67A      0.145758    68A      0.150754    69A      0.151397  
	  70A      0.153163    71A      0.159891    72A      0.165995  
	  73A      0.170174    74A      0.173440    75A      0.176217  
	  76A      0.177939    77A      0.179704    78A      0.185553  
	  79A      0.186353    80A      0.193973    81A      0.194501  
	  82A      0.198723    83A      0.205103    84A      0.205408  
	  85A      0.209227    86A      0.217634    87A      0.218803  
	  88A      0.219455    89A      0.225950    90A      0.230255  
	  91A      0.232306    92A      0.236765    93A      0.241079  
	  94A      0.245465    95A      0.248585    96A      0.251162  
	  97A      0.252395    98A      0.259533    99A      0.264068  
	 100A      0.269172   101A      0.274478   102A      0.286408  
	 103A      0.297876   104A      0.303049   105A      0.308435  
	 106A      0.315268   107A      0.317417   108A      0.331219  
	 109A      0.332797   110A      0.346823   111A      0.356707  
	 112A      0.358100   113A      0.363037   114A      0.370842  
	 115A      0.377855   116A      0.380780   117A      0.381039  
	 118A      0.396338   119A      0.400913   120A      0.401637  
	 121A      0.409377   122A      0.411903   123A      0.416862  
	 124A      0.419525   125A      0.427206   126A      0.432184  
	 127A      0.434490   128A      0.436535   129A      0.444041  
	 130A      0.446054   131A      0.455932   132A      0.463861  
	 133A      0.466289   134A      0.469190   135A      0.470285  
	 136A      0.476429   137A      0.476985   138A      0.482572  
	 139A      0.484941   140A      0.486115   141A      0.496232  
	 142A      0.499555   143A      0.501803   144A      0.502134  
	 145A      0.506725   146A      0.512494   147A      0.516245  
	 148A      0.520932   149A      0.521630   150A      0.534764  
	 151A      0.538335   152A      0.547196   153A      0.550746  
	 154A      0.554439   155A      0.555463   156A      0.556824  
	 157A      0.574208   158A      0.574976   159A      0.576337  
	 160A      0.587443   161A      0.591706   162A      0.597076  
	 163A      0.604980   164A      0.609295   165A      0.614058  
	 166A      0.618710   167A      0.625344   168A      0.627024  
	 169A      0.628577   170A      0.641253   171A      0.642561  
	 172A      0.651124   173A      0.654005   174A      0.654936  
	 175A      0.661976   176A      0.666806   177A      0.672393  
	 178A      0.673592   179A      0.680557   180A      0.689544  
	 181A      0.692076   182A      0.693544   183A      0.706483  
	 184A      0.707402   185A      0.716679   186A      0.723831  
	 187A      0.729088   188A      0.732104   189A      0.742494  
	 190A      0.745680   191A      0.754953   192A      0.755359  
	 193A      0.761298   194A      0.772687   195A      0.773214  
	 196A      0.778219   197A      0.779175   198A      0.784122  
	 199A      0.786581   200A      0.799788   201A      0.801536  
	 202A      0.809623   203A      0.814535   204A      0.815907  
	 205A      0.824905   206A      0.831095   207A      0.838006  
	 208A      0.842836   209A      0.851276   210A      0.854636  
	 211A      0.866363   212A      0.868156   213A      0.869302  
	 214A      0.877429   215A      0.881012   216A      0.893099  
	 217A      0.898070   218A      0.898755   219A      0.906121  
	 220A      0.916629   221A      0.919915   222A      0.923194  
	 223A      0.923634   224A      0.931447   225A      0.931734  
	 226A      0.940910   227A      0.947029   228A      0.953572  
	 229A      0.959590   230A      0.961019   231A      0.967043  
	 232A      0.974499   233A      0.986382   234A      0.989808  
	 235A      0.992730   236A      0.995102   237A      1.000258  
	 238A      1.003618   239A      1.015383   240A      1.024019  
	 241A      1.030222   242A      1.031841   243A      1.033230  
	 244A      1.049925   245A      1.053390   246A      1.065837  
	 247A      1.072564   248A      1.076859   249A      1.081577  
	 250A      1.099050   251A      1.105585   252A      1.114759  
	 253A      1.126765   254A      1.141389   255A      1.143466  
	 256A      1.158182   257A      1.165882   258A      1.182580  
	 259A      1.184968   260A      1.197758   261A      1.212995  
	 262A      1.217084   263A      1.239758   264A      1.251077  
	 265A      1.253661   266A      1.284358   267A      1.301518  
	 268A      1.303629   269A      1.309894   270A      1.326237  
	 271A      1.338200   272A      1.347012   273A      1.350856  
	 274A      1.392279   275A      1.405137   276A      1.416247  
	 277A      1.442721   278A      1.454808   279A      1.457272  
	 280A      1.463202   281A      1.471580   282A      1.476552  
	 283A      1.501823   284A      1.525461   285A      1.537368  
	 286A      1.546369   287A      1.559087   288A      1.594718  
	 289A      1.595142   290A      1.619873   291A      1.634303  
	 292A      1.642439   293A      1.668614   294A      1.682696  
	 295A      1.691238   296A      1.701048   297A      1.713197  
	 298A      1.724655   299A      1.731237   300A      1.734537  
	 301A      1.752327   302A      1.771681   303A      1.780342  
	 304A      1.782202   305A      1.803199   306A      1.816730  
	 307A      1.819699   308A      1.831264   309A      1.835413  
	 310A      1.853875   311A      1.865243   312A      1.881141  
	 313A      1.889065   314A      1.892915   315A      1.922317  
	 316A      1.926801   317A      1.932314   318A      1.950407  
	 319A      1.959112   320A      1.984908   321A      1.989371  
	 322A      1.993260   323A      2.015690   324A      2.017409  
	 325A      2.018993   326A      2.035662   327A      2.044382  
	 328A      2.044696   329A      2.062775   330A      2.076152  
	 331A      2.083622   332A      2.094679   333A      2.096996  
	 334A      2.105975   335A      2.115731   336A      2.125982  
	 337A      2.130663   338A      2.150942   339A      2.158301  
	 340A      2.166735   341A      2.174731   342A      2.190826  
	 343A      2.200903   344A      2.201587   345A      2.210305  
	 346A      2.213642   347A      2.222154   348A      2.235581  
	 349A      2.262042   350A      2.266364   351A      2.271684  
	 352A      2.282088   353A      2.294959   354A      2.307128  
	 355A      2.317507   356A      2.321822   357A      2.327672  
	 358A      2.339375   359A      2.360528   360A      2.373509  
	 361A      2.378054   362A      2.382951   363A      2.399932  
	 364A      2.407057   365A      2.419653   366A      2.429356  
	 367A      2.431843   368A      2.438636   369A      2.448622  
	 370A      2.452643   371A      2.461380   372A      2.497079  
	 373A      2.500671   374A      2.523015   375A      2.535719  
	 376A      2.541590   377A      2.553240   378A      2.556784  
	 379A      2.564127   380A      2.568620   381A      2.600056  
	 382A      2.617737   383A      2.633388   384A      2.642449  
	 385A      2.642670   386A      2.656464   387A      2.659280  
	 388A      2.663926   389A      2.688468   390A      2.692087  
	 391A      2.711989   392A      2.719226   393A      2.725696  
	 394A      2.725967   395A      2.727342   396A      2.741036  
	 397A      2.752315   398A      2.766065   399A      2.776764  
	 400A      2.790736   401A      2.799977   402A      2.820431  
	 403A      2.829595   404A      2.845304   405A      2.868460  
	 406A      2.887310   407A      2.898542   408A      2.922087  
	 409A      2.934345   410A      2.950836   411A      2.962531  
	 412A      2.964379   413A      2.992982   414A      3.012410  
	 415A      3.014158   416A      3.027967   417A      3.030480  
	 418A      3.046075   419A      3.060352   420A      3.064775  
	 421A      3.081657   422A      3.112429   423A      3.117344  
	 424A      3.131053   425A      3.158649   426A      3.187675  
	 427A      3.203449   428A      3.222279   429A      3.237349  
	 430A      3.242192   431A      3.258781   432A      3.284748  
	 433A      3.305551   434A      3.388010   435A      3.400219  
	 436A      3.416956   437A      3.430015   438A      3.458919  
	 439A      3.582597   440A      3.584597   441A      3.638311  
	 442A      3.675706   443A      3.862558   444A      4.144021  
	 445A      4.165519   446A      4.408925  

	Final Occupation by Irrep:
	          A 
	DOCC [    42 ]

  Energy converged.

  @RHF Final Energy:  -392.64350993604114

   => Energetics <=

    Nuclear Repulsion Energy =            619.2814383458770635
    One-Electron Energy =               -1757.8011745899955258
    Two-Electron Energy =                 745.8762263080784578
    DFT Exchange-Correlation Energy =       0.0000000000000000
    Empirical Dispersion Energy =           0.0000000000000000
    Total Energy =                       -392.6435099360401182



Properties will be evaluated at   0.000000,   0.000000,   0.000000 Bohr
  ==> Properties <==


Properties computed using the SCF density density matrix
  Nuclear Dipole Moment: (a.u.)
     X:     0.0041      Y:    -0.5696      Z:    -0.0518

  Electronic Dipole Moment: (a.u.)
     X:    -0.0045      Y:     0.6343      Z:    -0.1127

  Dipole Moment: (a.u.)
     X:    -0.0004      Y:     0.0647      Z:    -0.1645     Total:     0.1768

  Dipole Moment: (Debye)
     X:    -0.0010      Y:     0.1645      Z:    -0.4181     Total:     0.4493


  Saving occupied orbitals to File 180.

  Saving SAPT 2-DIMER file.

*** tstop() called on node55.bme.utexas.edu at Mon Feb 17 05:06:21 2014
Module time:
	user time   =     582.82 seconds =       9.71 minutes
	system time =       8.00 seconds =       0.13 minutes
	total time  =        162 seconds =       2.70 minutes
Total time:
	user time   =     582.82 seconds =       9.71 minutes
	system time =       8.00 seconds =       0.13 minutes
	total time  =        162 seconds =       2.70 minutes

  //>>>>>>>>>>>>>>>>>>>>>>>>>>>>>>>>>>>//
  //            Monomer A HF           //
  //<<<<<<<<<<<<<<<<<<<<<<<<<<<<<<<<<<<//


  No DF_BASIS_SCF auxiliary basis selected, defaulting to aug-cc-pvdz-jkfit


*** tstart() called on node55.bme.utexas.edu
*** at Mon Feb 17 05:06:21 2014


         ---------------------------------------------------------
                                   SCF
            by Justin Turney, Rob Parrish, and Andy Simmonett
                              RHF Reference
                        4 Threads,   7000 MiB Core
         ---------------------------------------------------------

  ==> Geometry <==

    Molecular point group: c1
    Full point group: C1

    Geometry (in Angstrom), charge = 0, multiplicity = 1:

       Center              X                  Y                   Z       
    ------------   -----------------  -----------------  -----------------
           C         -2.530098108865    -0.402368126201    -1.769585587973
           H         -2.559601263865    -0.967582774201    -2.701048200973
           H         -2.553751487865    -1.118657753201    -0.948234119973
           H         -3.435928781865     0.199350958799    -1.714120686973
           C         -1.275872066865     0.458842132799    -1.700867179973
           H         -1.277799070865     1.040425055799    -0.775806538973
           H         -1.280054225865     1.183762845799    -2.518050073973
           C          0.002489468135    -0.365508996201    -1.771899449973
           H          0.008113703135    -1.096205835201    -0.957060792973
           H          0.006533428135    -0.945315496201    -2.699712471973
           C          1.268618240135     0.477603547799    -1.701522888973
           H          1.262304621135     1.059457487799    -0.776645569973
           H          1.261919650135     1.202264310799    -2.518926598973
           C          2.535251038135    -0.365217491201    -1.770205653973
           H          2.572725008135    -0.930509317201    -2.701343878973
           H          3.432265934135     0.249622116799    -1.715314297973
           H          2.569492480135    -1.080602828201    -0.948435930973
           C(Gh)     -0.000145472865     0.049442063799     1.744194893027
           C(Gh)      0.000926270135    -0.090689041201     3.263927847027
           H(Gh)     -0.886109754865     0.373387000799     3.697297260027
           H(Gh)      0.010177772135    -1.141469288201     3.556937716027
           H(Gh)      0.879586493135     0.388975520799     3.697570916027
           C(Gh)     -1.239600809865    -0.632209967201     1.170296382027
           H(Gh)     -1.262900023865    -0.543252843201     0.083467197027
           H(Gh)     -1.251686438865    -1.693486362201     1.423309583027
           H(Gh)     -2.150544530865    -0.179918709201     1.565381502027
           C(Gh)      1.252459639135    -0.608098743201     1.170724555027
           H(Gh)      1.273786425135    -0.519813078201     0.083753596027
           H(Gh)      1.285590173135    -1.668659583201     1.424816874027
           H(Gh)      2.154271873135    -0.137455431201     1.565145677027
           C(Gh)     -0.014393347865     1.529234554799     1.369573617027
           H(Gh)      0.863372649135     2.039821572799     1.768528748027
           H(Gh)     -0.014917548865     1.655689480799     0.285921928027
           H(Gh)     -0.902499296865     2.022568266799     1.767361758027

  Running in c1 symmetry.

  Nuclear repulsion =  185.634712381500407

  Charge       = 0
  Multiplicity = 1
  Electrons    = 42
  Nalpha       = 21
  Nbeta        = 21

  ==> Algorithm <==

  SCF Algorithm Type is DF.
  DIIS enabled.
  MOM disabled.
  Fractional occupation disabled.
  Guess Type is CORE.
  Energy threshold   = 1.00e-08
  Density threshold  = 1.00e-08
  Integral threshold = 0.00e+00

  ==> Primary Basis <==

  Basis Set: AUG-CC-PVDZ
    Number of shells: 210
    Number of basis function: 446
    Number of Cartesian functions: 466
    Spherical Harmonics?: true
    Max angular momentum: 2

  ==> Pre-Iterations <==

   -------------------------------------------------------
    Irrep   Nso     Nmo     Nalpha   Nbeta   Ndocc  Nsocc
   -------------------------------------------------------
     A        446     446       0       0       0       0
   -------------------------------------------------------
    Total     446     446      21      21      21       0
   -------------------------------------------------------

 OEINTS: Wrapper to libmints.
   by Justin Turney

   Calculation information:
      Number of atoms:                  34
      Number of AO shells:             210
      Number of SO shells:             210
      Number of primitives:            418
      Number of atomic orbitals:       466
      Number of basis functions:       446

      Number of irreps:                  1
      Number of functions per irrep: [ 446 ]

      Overlap, kinetic, potential, dipole, and quadrupole integrals
        stored in file 35.

  ==> Integral Setup <==

  ==> DFJK: Density-Fitted J/K Matrices <==

    J tasked:                  Yes
    K tasked:                  Yes
    wK tasked:                  No
    OpenMP threads:              4
    Integrals threads:           4
    Memory (MB):              5006
    Algorithm:                Core
    Integral Cache:           LOAD
    Schwarz Cutoff:          0E+00
    Fitting Condition:       1E-12

   => Auxiliary Basis Set <=

  Basis Set: aug-cc-pvdz-jkfit
    Number of shells: 568
    Number of basis function: 1628
    Number of Cartesian functions: 1850
    Spherical Harmonics?: true
    Max angular momentum: 3

  Minimum eigenvalue in the overlap matrix is 3.9483434678E-06.
  Using Symmetric Orthogonalization.
  SCF Guess: Core (One-Electron) Hamiltonian.

  Guess energy:  -160.14437676738757

  ==> Iterations <==

                        Total Energy        Delta E     RMS |[F,P]|

   @RHF iter   1:  -150.11750433474427   -1.50118e+02   1.43694e-02 
   @RHF iter   2:  -138.45959266481637    1.16579e+01   9.53095e-03 DIIS
   @RHF iter   3:  -177.54358588850963   -3.90840e+01   1.18585e-02 DIIS
   @RHF iter   4:  -187.49476799413324   -9.95118e+00   8.43919e-03 DIIS
   @RHF iter   5:  -191.46591575382982   -3.97115e+00   6.50770e-03 DIIS
   @RHF iter   6:  -195.45999391505310   -3.99408e+00   2.57000e-03 DIIS
   @RHF iter   7:  -196.10535443025773   -6.45361e-01   1.35816e-03 DIIS
   @RHF iter   8:  -196.34608301705683   -2.40729e-01   2.26011e-04 DIIS
   @RHF iter   9:  -196.35494577572021   -8.86276e-03   4.56332e-05 DIIS
   @RHF iter  10:  -196.35533838409097   -3.92608e-04   1.72370e-05 DIIS
   @RHF iter  11:  -196.35538829632029   -4.99122e-05   4.27480e-06 DIIS
   @RHF iter  12:  -196.35539221104128   -3.91472e-06   8.93805e-07 DIIS
   @RHF iter  13:  -196.35539240341987   -1.92379e-07   1.97852e-07 DIIS
   @RHF iter  14:  -196.35539241209577   -8.67590e-09   3.79428e-08 DIIS
   @RHF iter  15:  -196.35539241245831   -3.62547e-10   9.36589e-09 DIIS

  ==> Post-Iterations <==

	Orbital Energies (a.u.)
	-----------------------

	Doubly Occupied:                                                      

	   1A    -11.218215     2A    -11.218152     3A    -11.215604  
	   4A    -11.213697     5A    -11.213694     6A     -1.082466  
	   7A     -1.016599     8A     -0.919873     9A     -0.820523  
	  10A     -0.785515    11A     -0.646676    12A     -0.598137  
	  13A     -0.592253    14A     -0.553413    15A     -0.546803  
	  16A     -0.524701    17A     -0.493814    18A     -0.474794  
	  19A     -0.461174    20A     -0.457853    21A     -0.446008  

	Virtual:                                                              

	  22A      0.023042    23A      0.036128    24A      0.037266  
	  25A      0.037580    26A      0.053010    27A      0.053015  
	  28A      0.055115    29A      0.058162    30A      0.059278  
	  31A      0.074138    32A      0.075781    33A      0.078490  
	  34A      0.082286    35A      0.083919    36A      0.084388  
	  37A      0.089210    38A      0.092639    39A      0.100397  
	  40A      0.109508    41A      0.109998    42A      0.113108  
	  43A      0.117956    44A      0.118271    45A      0.124707  
	  46A      0.125577    47A      0.128884    48A      0.146390  
	  49A      0.149519    50A      0.153761    51A      0.158510  
	  52A      0.158939    53A      0.162903    54A      0.165641  
	  55A      0.168805    56A      0.173980    57A      0.176680  
	  58A      0.182536    59A      0.190740    60A      0.191069  
	  61A      0.194519    62A      0.196719    63A      0.200981  
	  64A      0.204293    65A      0.208971    66A      0.210984  
	  67A      0.214056    68A      0.218006    69A      0.222801  
	  70A      0.224632    71A      0.224728    72A      0.235142  
	  73A      0.236005    74A      0.237438    75A      0.242982  
	  76A      0.245637    77A      0.250161    78A      0.255319  
	  79A      0.257112    80A      0.267948    81A      0.271126  
	  82A      0.279030    83A      0.291930    84A      0.310919  
	  85A      0.313165    86A      0.320573    87A      0.333142  
	  88A      0.339211    89A      0.340683    90A      0.346826  
	  91A      0.357310    92A      0.361914    93A      0.368161  
	  94A      0.369989    95A      0.372274    96A      0.378794  
	  97A      0.390797    98A      0.395887    99A      0.403190  
	 100A      0.411612   101A      0.416822   102A      0.419330  
	 103A      0.428480   104A      0.430628   105A      0.432896  
	 106A      0.440952   107A      0.442188   108A      0.444025  
	 109A      0.445008   110A      0.455517   111A      0.461576  
	 112A      0.462938   113A      0.466696   114A      0.469866  
	 115A      0.472899   116A      0.480551   117A      0.481605  
	 118A      0.484865   119A      0.487975   120A      0.496080  
	 121A      0.499623   122A      0.505009   123A      0.507159  
	 124A      0.514476   125A      0.516095   126A      0.520572  
	 127A      0.526619   128A      0.530146   129A      0.537289  
	 130A      0.540851   131A      0.551266   132A      0.558920  
	 133A      0.569446   134A      0.573121   135A      0.580264  
	 136A      0.582124   137A      0.587298   138A      0.597088  
	 139A      0.604410   140A      0.608076   141A      0.615547  
	 142A      0.617703   143A      0.617775   144A      0.628693  
	 145A      0.634841   146A      0.641592   147A      0.650940  
	 148A      0.653607   149A      0.657304   150A      0.662138  
	 151A      0.665835   152A      0.667832   153A      0.679299  
	 154A      0.684844   155A      0.687946   156A      0.695515  
	 157A      0.697249   158A      0.703152   159A      0.705179  
	 160A      0.711768   161A      0.713521   162A      0.727146  
	 163A      0.727974   164A      0.742915   165A      0.743071  
	 166A      0.754284   167A      0.756937   168A      0.758498  
	 169A      0.761173   170A      0.763408   171A      0.764268  
	 172A      0.772077   173A      0.782219   174A      0.784801  
	 175A      0.796225   176A      0.803598   177A      0.808287  
	 178A      0.812497   179A      0.821883   180A      0.824829  
	 181A      0.825922   182A      0.831102   183A      0.840278  
	 184A      0.847770   185A      0.848309   186A      0.853527  
	 187A      0.864357   188A      0.865128   189A      0.872819  
	 190A      0.881417   191A      0.884219   192A      0.891254  
	 193A      0.892013   194A      0.902698   195A      0.912165  
	 196A      0.917100   197A      0.926350   198A      0.929419  
	 199A      0.937553   200A      0.939308   201A      0.945094  
	 202A      0.951126   203A      0.952952   204A      0.962720  
	 205A      0.968591   206A      0.970683   207A      0.977852  
	 208A      0.980571   209A      0.981457   210A      0.992390  
	 211A      0.992627   212A      0.996840   213A      1.011016  
	 214A      1.017292   215A      1.023061   216A      1.028441  
	 217A      1.028631   218A      1.043161   219A      1.046713  
	 220A      1.046974   221A      1.067386   222A      1.068313  
	 223A      1.074888   224A      1.083460   225A      1.092107  
	 226A      1.092631   227A      1.106760   228A      1.108853  
	 229A      1.110663   230A      1.126030   231A      1.131797  
	 232A      1.155127   233A      1.166140   234A      1.174706  
	 235A      1.182857   236A      1.184855   237A      1.191808  
	 238A      1.194464   239A      1.199671   240A      1.208112  
	 241A      1.209941   242A      1.238411   243A      1.244504  
	 244A      1.252078   245A      1.257469   246A      1.286202  
	 247A      1.294994   248A      1.296443   249A      1.297326  
	 250A      1.312441   251A      1.325768   252A      1.341203  
	 253A      1.347139   254A      1.369755   255A      1.380501  
	 256A      1.396253   257A      1.405508   258A      1.414531  
	 259A      1.437400   260A      1.442520   261A      1.464752  
	 262A      1.478408   263A      1.487849   264A      1.500436  
	 265A      1.523378   266A      1.526365   267A      1.560741  
	 268A      1.564571   269A      1.592707   270A      1.651462  
	 271A      1.655936   272A      1.692785   273A      1.700685  
	 274A      1.716352   275A      1.719753   276A      1.742427  
	 277A      1.749477   278A      1.784912   279A      1.810718  
	 280A      1.833147   281A      1.872278   282A      1.898354  
	 283A      1.940190   284A      1.946854   285A      1.953844  
	 286A      1.957160   287A      1.988619   288A      1.999491  
	 289A      2.016268   290A      2.025775   291A      2.035511  
	 292A      2.079272   293A      2.079315   294A      2.109180  
	 295A      2.120731   296A      2.137124   297A      2.153802  
	 298A      2.154349   299A      2.163089   300A      2.164078  
	 301A      2.187394   302A      2.193380   303A      2.207235  
	 304A      2.229845   305A      2.233386   306A      2.242040  
	 307A      2.243726   308A      2.246868   309A      2.252476  
	 310A      2.258166   311A      2.272066   312A      2.281573  
	 313A      2.303159   314A      2.304401   315A      2.317586  
	 316A      2.331088   317A      2.333249   318A      2.339855  
	 319A      2.343753   320A      2.353333   321A      2.358624  
	 322A      2.366501   323A      2.371734   324A      2.374164  
	 325A      2.389327   326A      2.395115   327A      2.400922  
	 328A      2.404627   329A      2.413223   330A      2.417845  
	 331A      2.432846   332A      2.451567   333A      2.462411  
	 334A      2.468487   335A      2.475623   336A      2.500203  
	 337A      2.510467   338A      2.513181   339A      2.521790  
	 340A      2.524619   341A      2.527984   342A      2.547666  
	 343A      2.549746   344A      2.550122   345A      2.561285  
	 346A      2.573469   347A      2.579065   348A      2.587313  
	 349A      2.602555   350A      2.626431   351A      2.633273  
	 352A      2.658770   353A      2.668746   354A      2.672447  
	 355A      2.692967   356A      2.693954   357A      2.713289  
	 358A      2.715401   359A      2.734420   360A      2.739701  
	 361A      2.759728   362A      2.762120   363A      2.775049  
	 364A      2.804060   365A      2.805123   366A      2.809223  
	 367A      2.826181   368A      2.830611   369A      2.846033  
	 370A      2.849008   371A      2.870945   372A      2.871611  
	 373A      2.903646   374A      2.924269   375A      2.925370  
	 376A      2.939498   377A      2.959617   378A      2.981264  
	 379A      2.990755   380A      2.997896   381A      3.024644  
	 382A      3.033301   383A      3.041755   384A      3.059801  
	 385A      3.066794   386A      3.070762   387A      3.072839  
	 388A      3.095323   389A      3.114335   390A      3.119990  
	 391A      3.125777   392A      3.136428   393A      3.178485  
	 394A      3.181093   395A      3.214826   396A      3.261978  
	 397A      3.291513   398A      3.329074   399A      3.346533  
	 400A      3.361948   401A      3.364229   402A      3.383486  
	 403A      3.409196   404A      3.418244   405A      3.475665  
	 406A      3.507758   407A      3.543118   408A      3.552523  
	 409A      3.583300   410A      3.588390   411A      3.664033  
	 412A      3.695593   413A      3.703528   414A      3.719488  
	 415A      3.742805   416A      3.797572   417A      3.822621  
	 418A      3.861897   419A      3.921250   420A      3.988102  
	 421A      4.010459   422A      4.243851   423A      4.320390  
	 424A      4.486063   425A      4.576642   426A      4.651533  
	 427A      4.686453   428A      4.730984   429A      4.746035  
	 430A      4.783286   431A      4.815869   432A      5.031379  
	 433A      5.083356   434A      5.138464   435A      5.147424  
	 436A      5.169470   437A      5.262421   438A      5.265885  
	 439A      5.273630   440A      5.305323   441A      5.485367  
	 442A     18.348294   443A     18.883151   444A     19.026058  
	 445A     19.099031   446A     19.360528  

	Final Occupation by Irrep:
	          A 
	DOCC [    21 ]

  Energy converged.

  @RHF Final Energy:  -196.35539241245831

   => Energetics <=

    Nuclear Repulsion Energy =            185.6347123815004068
    One-Electron Energy =                -630.9802849758067396
    Two-Electron Energy =                 248.9901801818475633
    DFT Exchange-Correlation Energy =       0.0000000000000000
    Empirical Dispersion Energy =           0.0000000000000000
    Total Energy =                       -196.3553924124587411



Properties will be evaluated at   0.000000,   0.000000,   0.000000 Bohr
  ==> Properties <==


Properties computed using the SCF density density matrix
  Nuclear Dipole Moment: (a.u.)
     X:     0.0162      Y:    -4.5049      Z:  -138.4398

  Electronic Dipole Moment: (a.u.)
     X:    -0.0164      Y:     4.5396      Z:   138.4411

  Dipole Moment: (a.u.)
     X:    -0.0003      Y:     0.0347      Z:     0.0013     Total:     0.0347

  Dipole Moment: (Debye)
     X:    -0.0007      Y:     0.0882      Z:     0.0032     Total:     0.0883


  Saving occupied orbitals to File 180.

  Saving SAPT 2-MONOMER_A file.

*** tstop() called on node55.bme.utexas.edu at Mon Feb 17 05:08:02 2014
Module time:
	user time   =     379.92 seconds =       6.33 minutes
	system time =       2.89 seconds =       0.05 minutes
	total time  =        101 seconds =       1.68 minutes
Total time:
	user time   =     962.76 seconds =      16.05 minutes
	system time =      10.90 seconds =       0.18 minutes
	total time  =        263 seconds =       4.38 minutes

  //>>>>>>>>>>>>>>>>>>>>>>>>>>>>>>>>>>>//
  //            Monomer B HF           //
  //<<<<<<<<<<<<<<<<<<<<<<<<<<<<<<<<<<<//


  No DF_BASIS_SCF auxiliary basis selected, defaulting to aug-cc-pvdz-jkfit


*** tstart() called on node55.bme.utexas.edu
*** at Mon Feb 17 05:08:02 2014


         ---------------------------------------------------------
                                   SCF
            by Justin Turney, Rob Parrish, and Andy Simmonett
                              RHF Reference
                        4 Threads,   7000 MiB Core
         ---------------------------------------------------------

  ==> Geometry <==

    Molecular point group: c1
    Full point group: C1

    Geometry (in Angstrom), charge = 0, multiplicity = 1:

       Center              X                  Y                   Z       
    ------------   -----------------  -----------------  -----------------
           C(Gh)     -2.530098108865    -0.402368126201    -1.769585587973
           H(Gh)     -2.559601263865    -0.967582774201    -2.701048200973
           H(Gh)     -2.553751487865    -1.118657753201    -0.948234119973
           H(Gh)     -3.435928781865     0.199350958799    -1.714120686973
           C(Gh)     -1.275872066865     0.458842132799    -1.700867179973
           H(Gh)     -1.277799070865     1.040425055799    -0.775806538973
           H(Gh)     -1.280054225865     1.183762845799    -2.518050073973
           C(Gh)      0.002489468135    -0.365508996201    -1.771899449973
           H(Gh)      0.008113703135    -1.096205835201    -0.957060792973
           H(Gh)      0.006533428135    -0.945315496201    -2.699712471973
           C(Gh)      1.268618240135     0.477603547799    -1.701522888973
           H(Gh)      1.262304621135     1.059457487799    -0.776645569973
           H(Gh)      1.261919650135     1.202264310799    -2.518926598973
           C(Gh)      2.535251038135    -0.365217491201    -1.770205653973
           H(Gh)      2.572725008135    -0.930509317201    -2.701343878973
           H(Gh)      3.432265934135     0.249622116799    -1.715314297973
           H(Gh)      2.569492480135    -1.080602828201    -0.948435930973
           C         -0.000145472865     0.049442063799     1.744194893027
           C          0.000926270135    -0.090689041201     3.263927847027
           H         -0.886109754865     0.373387000799     3.697297260027
           H          0.010177772135    -1.141469288201     3.556937716027
           H          0.879586493135     0.388975520799     3.697570916027
           C         -1.239600809865    -0.632209967201     1.170296382027
           H         -1.262900023865    -0.543252843201     0.083467197027
           H         -1.251686438865    -1.693486362201     1.423309583027
           H         -2.150544530865    -0.179918709201     1.565381502027
           C          1.252459639135    -0.608098743201     1.170724555027
           H          1.273786425135    -0.519813078201     0.083753596027
           H          1.285590173135    -1.668659583201     1.424816874027
           H          2.154271873135    -0.137455431201     1.565145677027
           C         -0.014393347865     1.529234554799     1.369573617027
           H          0.863372649135     2.039821572799     1.768528748027
           H         -0.014917548865     1.655689480799     0.285921928027
           H         -0.902499296865     2.022568266799     1.767361758027

  Running in c1 symmetry.

  Nuclear repulsion =  199.368957381023421

  Charge       = 0
  Multiplicity = 1
  Electrons    = 42
  Nalpha       = 21
  Nbeta        = 21

  ==> Algorithm <==

  SCF Algorithm Type is DF.
  DIIS enabled.
  MOM disabled.
  Fractional occupation disabled.
  Guess Type is CORE.
  Energy threshold   = 1.00e-08
  Density threshold  = 1.00e-08
  Integral threshold = 0.00e+00

  ==> Primary Basis <==

  Basis Set: AUG-CC-PVDZ
    Number of shells: 210
    Number of basis function: 446
    Number of Cartesian functions: 466
    Spherical Harmonics?: true
    Max angular momentum: 2

  ==> Pre-Iterations <==

   -------------------------------------------------------
    Irrep   Nso     Nmo     Nalpha   Nbeta   Ndocc  Nsocc
   -------------------------------------------------------
     A        446     446       0       0       0       0
   -------------------------------------------------------
    Total     446     446      21      21      21       0
   -------------------------------------------------------

 OEINTS: Wrapper to libmints.
   by Justin Turney

   Calculation information:
      Number of atoms:                  34
      Number of AO shells:             210
      Number of SO shells:             210
      Number of primitives:            418
      Number of atomic orbitals:       466
      Number of basis functions:       446

      Number of irreps:                  1
      Number of functions per irrep: [ 446 ]

      Overlap, kinetic, potential, dipole, and quadrupole integrals
        stored in file 35.

  ==> Integral Setup <==

  ==> DFJK: Density-Fitted J/K Matrices <==

    J tasked:                  Yes
    K tasked:                  Yes
    wK tasked:                  No
    OpenMP threads:              4
    Integrals threads:           4
    Memory (MB):              5006
    Algorithm:                Core
    Integral Cache:           LOAD
    Schwarz Cutoff:          0E+00
    Fitting Condition:       1E-12

   => Auxiliary Basis Set <=

  Basis Set: aug-cc-pvdz-jkfit
    Number of shells: 568
    Number of basis function: 1628
    Number of Cartesian functions: 1850
    Spherical Harmonics?: true
    Max angular momentum: 3

  Minimum eigenvalue in the overlap matrix is 3.9483434678E-06.
  Using Symmetric Orthogonalization.
  SCF Guess: Core (One-Electron) Hamiltonian.

  Guess energy:  -162.61355577710040

  ==> Iterations <==

                        Total Energy        Delta E     RMS |[F,P]|

   @RHF iter   1:  -148.19001617298042   -1.48190e+02   1.51773e-02 
   @RHF iter   2:  -118.23530733906725    2.99547e+01   1.18444e-02 DIIS
   @RHF iter   3:  -191.54944879648812   -7.33141e+01   6.19664e-03 DIIS
   @RHF iter   4:  -195.28050488646088   -3.73106e+00   3.06369e-03 DIIS
   @RHF iter   5:  -196.26751377839875   -9.87009e-01   7.59084e-04 DIIS
   @RHF iter   6:  -196.35392740081747   -8.64136e-02   1.10150e-04 DIIS
   @RHF iter   7:  -196.35614120641876   -2.21381e-03   2.25185e-05 DIIS
   @RHF iter   8:  -196.35623659190080   -9.53855e-05   3.66220e-06 DIIS
   @RHF iter   9:  -196.35623960419608   -3.01230e-06   8.26630e-07 DIIS
   @RHF iter  10:  -196.35623972632911   -1.22133e-07   2.10875e-07 DIIS
   @RHF iter  11:  -196.35623973285905   -6.52994e-09   4.98970e-08 DIIS
   @RHF iter  12:  -196.35623973327276   -4.13706e-10   8.81942e-09 DIIS

  ==> Post-Iterations <==

	Orbital Energies (a.u.)
	-----------------------

	Doubly Occupied:                                                      

	   1A    -11.231281     2A    -11.211972     3A    -11.211588  
	   4A    -11.211454     5A    -11.211431     6A     -1.107847  
	   7A     -0.929820     8A     -0.929694     9A     -0.929679  
	  10A     -0.730210    11A     -0.611489    12A     -0.611410  
	  13A     -0.611391    14A     -0.552421    15A     -0.552384  
	  16A     -0.508379    17A     -0.508331    18A     -0.508300  
	  19A     -0.451726    20A     -0.451610    21A     -0.451582  

	Virtual:                                                              

	  22A      0.022890    23A      0.033355    24A      0.037517  
	  25A      0.040059    26A      0.053025    27A      0.053123  
	  28A      0.056330    29A      0.057079    30A      0.059242  
	  31A      0.074822    32A      0.076244    33A      0.081260  
	  34A      0.081716    35A      0.082478    36A      0.084159  
	  37A      0.089798    38A      0.096209    39A      0.101655  
	  40A      0.105271    41A      0.107939    42A      0.111695  
	  43A      0.112164    44A      0.118728    45A      0.125465  
	  46A      0.125823    47A      0.139380    48A      0.145908  
	  49A      0.146122    50A      0.153924    51A      0.156113  
	  52A      0.158812    53A      0.163096    54A      0.166455  
	  55A      0.170178    56A      0.175838    57A      0.183873  
	  58A      0.184749    59A      0.185295    60A      0.191506  
	  61A      0.195925    62A      0.196183    63A      0.198812  
	  64A      0.201540    65A      0.207042    66A      0.212105  
	  67A      0.216331    68A      0.216493    69A      0.217774  
	  70A      0.225396    71A      0.228024    72A      0.228652  
	  73A      0.236328    74A      0.239671    75A      0.241862  
	  76A      0.245735    77A      0.252667    78A      0.254636  
	  79A      0.258642    80A      0.266667    81A      0.280713  
	  82A      0.287047    83A      0.293401    84A      0.294650  
	  85A      0.295026    86A      0.317631    87A      0.317932  
	  88A      0.332650    89A      0.344155    90A      0.353961  
	  91A      0.357539    92A      0.363427    93A      0.372344  
	  94A      0.378602    95A      0.384917    96A      0.385674  
	  97A      0.389650    98A      0.398814    99A      0.399670  
	 100A      0.404968   101A      0.411845   102A      0.413765  
	 103A      0.415598   104A      0.431115   105A      0.435562  
	 106A      0.437350   107A      0.446900   108A      0.447014  
	 109A      0.454254   110A      0.457596   111A      0.458428  
	 112A      0.459583   113A      0.469358   114A      0.474878  
	 115A      0.479858   116A      0.480815   117A      0.488104  
	 118A      0.493255   119A      0.494326   120A      0.495012  
	 121A      0.506493   122A      0.507868   123A      0.514142  
	 124A      0.515757   125A      0.519092   126A      0.522360  
	 127A      0.536526   128A      0.538559   129A      0.543767  
	 130A      0.545242   131A      0.553667   132A      0.555522  
	 133A      0.558505   134A      0.559064   135A      0.569112  
	 136A      0.580765   137A      0.585801   138A      0.586860  
	 139A      0.593728   140A      0.598269   141A      0.601395  
	 142A      0.612167   143A      0.613123   144A      0.628170  
	 145A      0.633496   146A      0.636545   147A      0.646328  
	 148A      0.654094   149A      0.655303   150A      0.663212  
	 151A      0.665870   152A      0.671685   153A      0.675044  
	 154A      0.676044   155A      0.688031   156A      0.690864  
	 157A      0.694135   158A      0.697145   159A      0.707704  
	 160A      0.709869   161A      0.711338   162A      0.723616  
	 163A      0.727519   164A      0.732100   165A      0.744457  
	 166A      0.749105   167A      0.756971   168A      0.759096  
	 169A      0.767930   170A      0.772753   171A      0.773767  
	 172A      0.780525   173A      0.785093   174A      0.799203  
	 175A      0.802079   176A      0.807959   177A      0.818245  
	 178A      0.821883   179A      0.823118   180A      0.830149  
	 181A      0.839461   182A      0.840987   183A      0.845714  
	 184A      0.848435   185A      0.852815   186A      0.858250  
	 187A      0.861658   188A      0.867884   189A      0.872999  
	 190A      0.876662   191A      0.882020   192A      0.892395  
	 193A      0.896248   194A      0.901633   195A      0.903104  
	 196A      0.916950   197A      0.917433   198A      0.920812  
	 199A      0.930106   200A      0.933800   201A      0.934033  
	 202A      0.940009   203A      0.943490   204A      0.953497  
	 205A      0.961153   206A      0.965063   207A      0.966912  
	 208A      0.974096   209A      0.987747   210A      0.988036  
	 211A      0.997576   212A      0.999404   213A      1.002730  
	 214A      1.005100   215A      1.025665   216A      1.037677  
	 217A      1.038181   218A      1.042701   219A      1.047355  
	 220A      1.061624   221A      1.067067   222A      1.070121  
	 223A      1.071606   224A      1.081528   225A      1.101013  
	 226A      1.108100   227A      1.110176   228A      1.112212  
	 229A      1.113915   230A      1.140691   231A      1.148360  
	 232A      1.152898   233A      1.153046   234A      1.162007  
	 235A      1.176304   236A      1.177796   237A      1.188830  
	 238A      1.193358   239A      1.197874   240A      1.207238  
	 241A      1.211623   242A      1.211988   243A      1.213869  
	 244A      1.233232   245A      1.254303   246A      1.261618  
	 247A      1.278626   248A      1.286908   249A      1.288535  
	 250A      1.290807   251A      1.296342   252A      1.334106  
	 253A      1.337240   254A      1.338341   255A      1.352780  
	 256A      1.379740   257A      1.383338   258A      1.395845  
	 259A      1.414660   260A      1.456005   261A      1.465957  
	 262A      1.478829   263A      1.495290   264A      1.511552  
	 265A      1.526280   266A      1.541609   267A      1.553414  
	 268A      1.620090   269A      1.630066   270A      1.650583  
	 271A      1.691526   272A      1.728715   273A      1.729253  
	 274A      1.744646   275A      1.756132   276A      1.757678  
	 277A      1.790506   278A      1.819401   279A      1.838943  
	 280A      1.841548   281A      1.848542   282A      1.890314  
	 283A      1.902283   284A      1.944637   285A      1.954891  
	 286A      1.995289   287A      1.997871   288A      2.013189  
	 289A      2.027101   290A      2.058212   291A      2.064999  
	 292A      2.070789   293A      2.094648   294A      2.108833  
	 295A      2.111906   296A      2.121172   297A      2.146643  
	 298A      2.150888   299A      2.154152   300A      2.158660  
	 301A      2.170464   302A      2.193463   303A      2.206396  
	 304A      2.221007   305A      2.227562   306A      2.246851  
	 307A      2.254325   308A      2.265274   309A      2.273146  
	 310A      2.278672   311A      2.305792   312A      2.309982  
	 313A      2.310564   314A      2.321787   315A      2.323336  
	 316A      2.347455   317A      2.359891   318A      2.370881  
	 319A      2.378994   320A      2.382359   321A      2.390096  
	 322A      2.397711   323A      2.397813   324A      2.410477  
	 325A      2.411044   326A      2.428296   327A      2.448098  
	 328A      2.448128   329A      2.457543   330A      2.467276  
	 331A      2.472517   332A      2.475013   333A      2.485706  
	 334A      2.494320   335A      2.498179   336A      2.513438  
	 337A      2.515856   338A      2.524467   339A      2.531393  
	 340A      2.538005   341A      2.544202   342A      2.545890  
	 343A      2.559195   344A      2.559398   345A      2.574388  
	 346A      2.578035   347A      2.584846   348A      2.600835  
	 349A      2.617671   350A      2.621509   351A      2.629750  
	 352A      2.644282   353A      2.645424   354A      2.667073  
	 355A      2.669403   356A      2.677671   357A      2.682301  
	 358A      2.689386   359A      2.693831   360A      2.707150  
	 361A      2.715110   362A      2.727648   363A      2.737401  
	 364A      2.757763   365A      2.764155   366A      2.818262  
	 367A      2.845391   368A      2.846791   369A      2.847547  
	 370A      2.852876   371A      2.877663   372A      2.879672  
	 373A      2.893889   374A      2.914371   375A      2.915149  
	 376A      2.933696   377A      2.947214   378A      2.951989  
	 379A      2.964649   380A      2.975495   381A      2.998358  
	 382A      3.020023   383A      3.035962   384A      3.045702  
	 385A      3.048917   386A      3.094581   387A      3.101180  
	 388A      3.105330   389A      3.124661   390A      3.128243  
	 391A      3.140087   392A      3.183887   393A      3.187970  
	 394A      3.210074   395A      3.227555   396A      3.237722  
	 397A      3.263226   398A      3.296413   399A      3.321418  
	 400A      3.344140   401A      3.348374   402A      3.357312  
	 403A      3.377171   404A      3.422498   405A      3.436075  
	 406A      3.463611   407A      3.489644   408A      3.514576  
	 409A      3.537425   410A      3.553895   411A      3.558246  
	 412A      3.641217   413A      3.651397   414A      3.735802  
	 415A      3.771816   416A      3.799890   417A      3.816110  
	 418A      3.893489   419A      3.900591   420A      4.010886  
	 421A      4.018007   422A      4.081557   423A      4.109049  
	 424A      4.275279   425A      4.333535   426A      4.468554  
	 427A      4.576546   428A      4.632708   429A      4.712725  
	 430A      4.843680   431A      4.852310   432A      4.952998  
	 433A      4.960487   434A      5.033703   435A      5.051816  
	 436A      5.143092   437A      5.191017   438A      5.223913  
	 439A      5.316495   440A      5.414490   441A      5.476237  
	 442A     18.455597   443A     18.542502   444A     18.799700  
	 445A     19.103332   446A     19.611145  

	Final Occupation by Irrep:
	          A 
	DOCC [    21 ]

  Energy converged.

  @RHF Final Energy:  -196.35623973327276

   => Energetics <=

    Nuclear Repulsion Energy =            199.3689573810234208
    One-Electron Energy =                -658.4024191165772208
    Two-Electron Energy =                 262.6772220022820648
    DFT Exchange-Correlation Energy =       0.0000000000000000
    Empirical Dispersion Energy =           0.0000000000000000
    Total Energy =                       -196.3562397332717637



Properties will be evaluated at   0.000000,   0.000000,   0.000000 Bohr
  ==> Properties <==


Properties computed using the SCF density density matrix
  Nuclear Dipole Moment: (a.u.)
     X:    -0.0121      Y:     3.9353      Z:   138.3880

  Electronic Dipole Moment: (a.u.)
     X:     0.0121      Y:    -3.9352      Z:  -138.3891

  Dipole Moment: (a.u.)
     X:     0.0000      Y:     0.0001      Z:    -0.0011     Total:     0.0011

  Dipole Moment: (Debye)
     X:     0.0000      Y:     0.0003      Z:    -0.0028     Total:     0.0028


  Saving occupied orbitals to File 180.

  Saving SAPT 2-MONOMER_B file.

*** tstop() called on node55.bme.utexas.edu at Mon Feb 17 05:09:24 2014
Module time:
	user time   =     305.64 seconds =       5.09 minutes
	system time =       2.71 seconds =       0.05 minutes
	total time  =         82 seconds =       1.37 minutes
Total time:
	user time   =    1268.42 seconds =      21.14 minutes
	system time =      13.61 seconds =       0.23 minutes
	total time  =        345 seconds =       5.75 minutes
  No DF_BASIS_SAPT auxiliary basis selected, defaulting to aug-cc-pvdz-ri

  //>>>>>>>>>>>>>>>>>>>>>>>>>>>>>>>>>>>//
  //               SAPT2+              //
  //<<<<<<<<<<<<<<<<<<<<<<<<<<<<<<<<<<<//


*** tstart() called on node55.bme.utexas.edu
*** at Mon Feb 17 05:09:24 2014

        SAPT2+  
    Ed Hohenstein
     6 June 2009

      Orbital Information
  --------------------------
    NSO        =       446
    NMO        =       446
    NRI        =      1272
    NOCC A     =        21
    NOCC B     =        21
    FOCC A     =         5
    FOCC B     =         5
    NVIR A     =       425
    NVIR B     =       425

    Estimated memory usage: 3749.8 MB

    Elst10,r            =    -0.038049092620 H
    Exch10 (S^2)        =     0.112742514243 H
    Exch10              =     0.116584283200 H
    Ind20,r (A<-B)      =    -0.009485886934 H
    Ind20,r (B<-A)      =    -0.021246790119 H
    Ind20,r             =    -0.030732677052 H
    Exch-Ind20,r (A<-B) =     0.006843437529 H
    Exch-Ind20,r (B<-A) =     0.018856385435 H
    Exch-Ind20,r        =     0.025699822964 H
    Disp20              =    -0.045803895075 H
    Exch-Disp20         =     0.008241482458 H
    Elst12,r            =    -0.004666533324 H
    Exch11              =     0.002285765695 H
    Exch12              =     0.006806607174 H
    Ind22               =    -0.004039254143 H
    Disp21              =     0.004349640665 H
    Disp22 (SDQ)        =     0.000608106915 H

    (i =   1 of  16)       3147 seconds
    (i =   2 of  16)       6287 seconds
    (i =   3 of  16)       9433 seconds
    (i =   4 of  16)      12581 seconds
    (i =   5 of  16)      15731 seconds
    (i =   6 of  16)      18882 seconds
    (i =   7 of  16)      22033 seconds
    (i =   8 of  16)      25180 seconds
    (i =   9 of  16)      28323 seconds
    (i =  10 of  16)      31467 seconds
    (i =  11 of  16)      34620 seconds
    (i =  12 of  16)      37770 seconds
    (i =  13 of  16)      40921 seconds
    (i =  14 of  16)      44066 seconds
    (i =  15 of  16)      47207 seconds
    (i =  16 of  16)      50348 seconds

    Disp220 (T)         =    -0.002812064367 H

    (i =   1 of  16)       3113 seconds
    (i =   2 of  16)       6231 seconds
    (i =   3 of  16)       9346 seconds
    (i =   4 of  16)      12463 seconds
    (i =   5 of  16)      15577 seconds
    (i =   6 of  16)      18689 seconds
    (i =   7 of  16)      21809 seconds
    (i =   8 of  16)      24928 seconds
    (i =   9 of  16)      28047 seconds
    (i =  10 of  16)      31167 seconds
    (i =  11 of  16)      34286 seconds
    (i =  12 of  16)      37407 seconds
    (i =  13 of  16)      40527 seconds
    (i =  14 of  16)      43647 seconds
    (i =  15 of  16)      46765 seconds
    (i =  16 of  16)      49885 seconds

    Disp202 (T)         =    -0.002913176881 H

    Disp22 (T)          =    -0.005725241248 H

    SAPT Results  
  -----------------------------------------------------------------------
    Electrostatics         -42.71562594 mH     -26.80446108 kcal mol^-1
      Elst10,r             -38.04909262 mH     -23.87616709 kcal mol^-1
      Elst12,r              -4.66653332 mH      -2.92829399 kcal mol^-1

    Exchange               125.67665607 mH      78.86329561 kcal mol^-1
      Exch10               116.58428320 mH      73.15774526 kcal mol^-1
      Exch10(S^2)          112.74251424 mH      70.74699874 kcal mol^-1
      Exch11(S^2)            2.28576570 mH       1.43433969 kcal mol^-1
      Exch12(S^2)            6.80660717 mH       4.27121066 kcal mol^-1

    Induction              -11.07445847 mH      -6.94932789 kcal mol^-1
      Ind20,r              -30.73267705 mH     -19.28504681 kcal mol^-1
      Ind22                 -4.03925414 mH      -2.53467035 kcal mol^-1
      Exch-Ind20,r          25.69982296 mH      16.12688306 kcal mol^-1
      Exch-Ind22             3.37777657 mH       2.11958688 kcal mol^-1
      delta HF,r (2)        -5.38012680 mH      -3.37608068 kcal mol^-1

    Dispersion             -38.32990629 mH     -24.05238033 kcal mol^-1
      Disp20               -45.80389507 mH     -28.74237930 kcal mol^-1
      Disp21                 4.34964066 mH       2.72944084 kcal mol^-1
      Disp22 (SDQ)           0.60810691 mH       0.38159287 kcal mol^-1
      Disp22 (T)            -5.72524125 mH      -3.59264327 kcal mol^-1
      Exch-Disp20            8.24148246 mH       5.17160854 kcal mol^-1

    Total HF                68.12220969 mH      42.74733374 kcal mol^-1
    Total SAPT0             30.55979707 mH      19.17656298 kcal mol^-1
    Total SAPT2             34.32415904 mH      21.53873588 kcal mol^-1
    Total SAPT2+            33.55666537 mH      21.05712631 kcal mol^-1

*** tstop() called on node55.bme.utexas.edu at Tue Feb 18 11:10:12 2014
Module time:
	user time   =  376663.85 seconds =    6277.73 minutes
	system time =     421.72 seconds =       7.03 minutes
	total time  =     108048 seconds =    1800.80 minutes
Total time:
	user time   =  377932.27 seconds =    6298.87 minutes
	system time =     435.33 seconds =       7.26 minutes
	total time  =     108393 seconds =    1806.55 minutes

*** PSI4 exiting successfully. Buy a developer a beer!
    -----------------------------------------------------------------------
          PSI4: An Open-Source Ab Initio Electronic Structure Package
                              PSI 4.0.0-beta4 Driver

    J. M. Turney, A. C. Simmonett, R. M. Parrish, E. G. Hohenstein,
    F. A. Evangelista, J. T. Fermann, B. J. Mintz, L. A. Burns, J. J. Wilke,
    M. L. Abrams, N. J. Russ, M. L. Leininger, C. L. Janssen, E. T. Seidl,
    W. D. Allen, H. F. Schaefer, R. A. King, E. F. Valeev, C. D. Sherrill,
    and T. D. Crawford, WIREs Comput. Mol. Sci., (2011) (doi: 10.1002/wcms.93)

                         Additional Contributions by
    A. E. DePrince, M. Saitow, U. Bozkaya, A. Yu. Sokolov
    -----------------------------------------------------------------------

    Process ID:  15451
    PSI4DATADIR: /home/xzhu216/psi4/psi4-install/share/psi

    Using LocalCommunicator (Number of processes = 1)

    Memory level set to 256.000 MB

  ==> Input File <==

--------------------------------------------------------------------------
#psi4
#
memory 7 gb

molecule Pentane_Neopentane {
0 1
    C    -2.530382875    -0.417575328     0.681306427
    H    -2.559886030    -0.982789976    -0.250156186
    H    -2.554036254    -1.133864955     1.502657895
    H    -3.436213548     0.184143757     0.736771328
    C    -1.276156833     0.443634931     0.750024835
    H    -1.278083837     1.025217854     1.675085476
    H    -1.280338992     1.168555644    -0.067158059
    C     0.002204702    -0.380716198     0.678992565
    H     0.007828937    -1.111413037     1.493831222
    H     0.006248662    -0.960522698    -0.248820457
    C     1.268333474     0.462396346     0.749369126
    H     1.262019855     1.044250286     1.674246445
    H     1.261634884     1.187057109    -0.068034584
    C     2.534966272    -0.380424693     0.680686361
    H     2.572440242    -0.945716519    -0.250451864
    H     3.431981168     0.234414915     0.735577717
    H     2.569207714    -1.095810030     1.502456084
--
0 1
    C    -0.000462434     0.044759133     4.565363251
    C     0.000609309    -0.095371972     6.085096205
    H    -0.886426716     0.368704070     6.518465618
    H     0.009860811    -1.146152219     6.378106074
    H     0.879269532     0.384292590     6.518739274
    C    -1.239917771    -0.636892898     3.991464740
    H    -1.263216985    -0.547935774     2.904635555
    H    -1.252003400    -1.698169293     4.244477941
    H    -2.150861492    -0.184601640     4.386549860
    C     1.252142678    -0.612781674     3.991892913
    H     1.273469464    -0.524496009     2.904921954
    H     1.285273212    -1.673342514     4.245985232
    H     2.153954912    -0.142138362     4.386314035
    C    -0.014710309     1.524551624     4.190741975
    H     0.863055688     2.035138642     4.589697106
    H    -0.015234510     1.651006550     3.107090286
    H    -0.902816258     2.017885336     4.588530116
units angstrom
no_reorient  #important for SAPT in psi4, default
symmetry c1  #important for SAPT in psi4, default
}

set {
basis aug-cc-pVDZ
scf_type DF
freeze_core True
}
energy('sapt2+')
--------------------------------------------------------------------------

  Memory set to   7.000 GiB by Python script.

  //>>>>>>>>>>>>>>>>>>>>>>>>>>>>>>>>>>>//
  //              Dimer HF             //
  //<<<<<<<<<<<<<<<<<<<<<<<<<<<<<<<<<<<//


  No DF_BASIS_SCF auxiliary basis selected, defaulting to aug-cc-pvdz-jkfit


*** tstart() called on node57.bme.utexas.edu
*** at Mon Feb 17 08:41:57 2014


         ---------------------------------------------------------
                                   SCF
            by Justin Turney, Rob Parrish, and Andy Simmonett
                              RHF Reference
                        4 Threads,   7000 MiB Core
         ---------------------------------------------------------

  ==> Geometry <==

    Molecular point group: c1
    Full point group: C1

    Geometry (in Angstrom), charge = 0, multiplicity = 1:

       Center              X                  Y                   Z       
    ------------   -----------------  -----------------  -----------------
           C         -2.530082011365    -0.407630261701    -1.954723759473
           H         -2.559585166365    -0.972844909701    -2.886186372473
           H         -2.553735390365    -1.123919888701    -1.133372291473
           H         -3.435912684365     0.194088823299    -1.899258858473
           C         -1.275855969365     0.453579997299    -1.886005351473
           H         -1.277782973365     1.035162920299    -0.960944710473
           H         -1.280038128365     1.178500710299    -2.703188245473
           C          0.002505565635    -0.370771131701    -1.957037621473
           H          0.008129800635    -1.101467970701    -1.142198964473
           H          0.006549525635    -0.950577631701    -2.884850643473
           C          1.268634337635     0.472341412299    -1.886661060473
           H          1.262320718635     1.054195352299    -0.961783741473
           H          1.261935747635     1.197002175299    -2.704064770473
           C          2.535267135635    -0.370479626701    -1.955343825473
           H          2.572741105635    -0.935771452701    -2.886482050473
           H          3.432282031635     0.244359981299    -1.900452469473
           H          2.569508577635    -1.085864963701    -1.133574102473
           C         -0.000161570365     0.054704199299     1.929333064527
           C          0.000910172635    -0.085426905701     3.449066018527
           H         -0.886125852365     0.378649136299     3.882435431527
           H          0.010161674635    -1.136207152701     3.742075887527
           H          0.879570395635     0.394237656299     3.882709087527
           C         -1.239616907365    -0.626947831701     1.355434553527
           H         -1.262916121365    -0.537990707701     0.268605368527
           H         -1.251702536365    -1.688224226701     1.608447754527
           H         -2.150560628365    -0.174656573701     1.750519673527
           C          1.252443541635    -0.602836607701     1.355862726527
           H          1.273770327635    -0.514550942701     0.268891767527
           H          1.285574075635    -1.663397447701     1.609955045527
           H          2.154255775635    -0.132193295701     1.750283848527
           C         -0.014409445365     1.534496690299     1.554711788527
           H          0.863356551635     2.045083708299     1.953666919527
           H         -0.014933646365     1.660951616299     0.471060099527
           H         -0.902515394365     2.027830402299     1.952499929527

  Running in c1 symmetry.

  Nuclear repulsion =  601.261621868921907

  Charge       = 0
  Multiplicity = 1
  Electrons    = 84
  Nalpha       = 42
  Nbeta        = 42

  ==> Algorithm <==

  SCF Algorithm Type is DF.
  DIIS enabled.
  MOM disabled.
  Fractional occupation disabled.
  Guess Type is CORE.
  Energy threshold   = 1.00e-08
  Density threshold  = 1.00e-08
  Integral threshold = 0.00e+00

  ==> Primary Basis <==

  Basis Set: AUG-CC-PVDZ
    Number of shells: 210
    Number of basis function: 446
    Number of Cartesian functions: 466
    Spherical Harmonics?: true
    Max angular momentum: 2

  ==> Pre-Iterations <==

   -------------------------------------------------------
    Irrep   Nso     Nmo     Nalpha   Nbeta   Ndocc  Nsocc
   -------------------------------------------------------
     A        446     446       0       0       0       0
   -------------------------------------------------------
    Total     446     446      42      42      42       0
   -------------------------------------------------------

 OEINTS: Wrapper to libmints.
   by Justin Turney

   Calculation information:
      Number of atoms:                  34
      Number of AO shells:             210
      Number of SO shells:             210
      Number of primitives:            418
      Number of atomic orbitals:       466
      Number of basis functions:       446

      Number of irreps:                  1
      Number of functions per irrep: [ 446 ]

      Overlap, kinetic, potential, dipole, and quadrupole integrals
        stored in file 35.

  ==> Integral Setup <==

  ==> DFJK: Density-Fitted J/K Matrices <==

    J tasked:                  Yes
    K tasked:                  Yes
    wK tasked:                  No
    OpenMP threads:              4
    Integrals threads:           4
    Memory (MB):              5006
    Algorithm:                Core
    Integral Cache:           SAVE
    Schwarz Cutoff:          0E+00
    Fitting Condition:       1E-12

   => Auxiliary Basis Set <=

  Basis Set: aug-cc-pvdz-jkfit
    Number of shells: 568
    Number of basis function: 1628
    Number of Cartesian functions: 1850
    Spherical Harmonics?: true
    Max angular momentum: 3

  Minimum eigenvalue in the overlap matrix is 4.3808313743E-06.
  Using Symmetric Orthogonalization.
  SCF Guess: Core (One-Electron) Hamiltonian.

  Guess energy:  -333.10027909944927

  ==> Iterations <==

                        Total Energy        Delta E     RMS |[F,P]|

   @RHF iter   1:  -257.51575748048572   -2.57516e+02   2.39162e-02 
   @RHF iter   2:  -166.61833844971181    9.08974e+01   2.43172e-02 DIIS
   @RHF iter   3:  -206.84094269103514   -4.02226e+01   2.91341e-02 DIIS
   @RHF iter   4:  -298.66023861796782   -9.18193e+01   2.16662e-02 DIIS
   @RHF iter   5:  -264.95011859779027    3.37101e+01   2.25315e-02 DIIS
   @RHF iter   6:  -391.70307568435908   -1.26753e+02   2.64769e-03 DIIS
   @RHF iter   7:  -392.57884841736029   -8.75773e-01   9.82792e-04 DIIS
   @RHF iter   8:  -392.67808696373368   -9.92385e-02   1.90717e-04 DIIS
   @RHF iter   9:  -392.68449838319782   -6.41142e-03   4.40482e-05 DIIS
   @RHF iter  10:  -392.68493134608809   -4.32963e-04   1.97269e-05 DIIS
   @RHF iter  11:  -392.68498028309887   -4.89370e-05   7.56982e-06 DIIS
   @RHF iter  12:  -392.68498977082720   -9.48773e-06   1.56530e-06 DIIS
   @RHF iter  13:  -392.68499027220457   -5.01377e-07   3.88131e-07 DIIS
   @RHF iter  14:  -392.68499030135092   -2.91463e-08   8.15524e-08 DIIS
   @RHF iter  15:  -392.68499030279827   -1.44735e-09   2.17885e-08 DIIS
   @RHF iter  16:  -392.68499030288956   -9.12905e-11   5.84295e-09 DIIS

  ==> Post-Iterations <==

	Orbital Energies (a.u.)
	-----------------------

	Doubly Occupied:                                                      

	   1A    -11.229350     2A    -11.218717     3A    -11.218643  
	   4A    -11.216422     5A    -11.214126     6A    -11.214123  
	   7A    -11.210476     8A    -11.209937     9A    -11.206824  
	  10A    -11.206804    11A     -1.107779    12A     -1.085434  
	  13A     -1.019922    14A     -0.930081    15A     -0.928853  
	  16A     -0.928532    17A     -0.921781    18A     -0.822835  
	  19A     -0.788837    20A     -0.732391    21A     -0.662836  
	  22A     -0.619579    23A     -0.611046    24A     -0.600237  
	  25A     -0.598295    26A     -0.597468    27A     -0.559383  
	  28A     -0.551260    29A     -0.547221    30A     -0.546012  
	  31A     -0.527362    32A     -0.510033    33A     -0.507064  
	  34A     -0.504762    35A     -0.493595    36A     -0.477329  
	  37A     -0.468876    38A     -0.458267    39A     -0.449424  
	  40A     -0.447888    41A     -0.447293    42A     -0.438331  

	Virtual:                                                              

	  43A      0.032990    44A      0.039178    45A      0.040530  
	  46A      0.042276    47A      0.054727    48A      0.055092  
	  49A      0.057115    50A      0.059090    51A      0.060503  
	  52A      0.075331    53A      0.076444    54A      0.080537  
	  55A      0.081981    56A      0.084605    57A      0.090033  
	  58A      0.091683    59A      0.101789    60A      0.108118  
	  61A      0.110535    62A      0.111147    63A      0.121171  
	  64A      0.121566    65A      0.123095    66A      0.133457  
	  67A      0.146911    68A      0.150242    69A      0.152584  
	  70A      0.152996    71A      0.159856    72A      0.167109  
	  73A      0.170650    74A      0.173873    75A      0.175506  
	  76A      0.177897    77A      0.178196    78A      0.183385  
	  79A      0.184527    80A      0.192502    81A      0.194883  
	  82A      0.199335    83A      0.204102    84A      0.205343  
	  85A      0.206676    86A      0.214180    87A      0.215424  
	  88A      0.221386    89A      0.223606    90A      0.228308  
	  91A      0.229049    92A      0.236425    93A      0.238180  
	  94A      0.244234    95A      0.245354    96A      0.248625  
	  97A      0.249565    98A      0.260666    99A      0.261083  
	 100A      0.265569   101A      0.269088   102A      0.282575  
	 103A      0.288030   104A      0.294756   105A      0.306098  
	 106A      0.309244   107A      0.313668   108A      0.326567  
	 109A      0.329878   110A      0.335043   111A      0.348127  
	 112A      0.352324   113A      0.354482   114A      0.367370  
	 115A      0.371611   116A      0.371636   117A      0.375523  
	 118A      0.388418   119A      0.395292   120A      0.401245  
	 121A      0.406825   122A      0.407163   123A      0.417614  
	 124A      0.420722   125A      0.423927   126A      0.428972  
	 127A      0.431345   128A      0.434819   129A      0.436762  
	 130A      0.438124   131A      0.448137   132A      0.459740  
	 133A      0.459854   134A      0.462793   135A      0.469317  
	 136A      0.474994   137A      0.477681   138A      0.478655  
	 139A      0.481093   140A      0.487615   141A      0.490836  
	 142A      0.493933   143A      0.497136   144A      0.498794  
	 145A      0.503201   146A      0.508588   147A      0.509846  
	 148A      0.511117   149A      0.516208   150A      0.522156  
	 151A      0.527220   152A      0.538981   153A      0.544526  
	 154A      0.546967   155A      0.552299   156A      0.553179  
	 157A      0.565262   158A      0.572077   159A      0.574473  
	 160A      0.579910   161A      0.586250   162A      0.587210  
	 163A      0.594488   164A      0.595306   165A      0.604118  
	 166A      0.605502   167A      0.610545   168A      0.615304  
	 169A      0.617197   170A      0.633540   171A      0.634346  
	 172A      0.645675   173A      0.647057   174A      0.647824  
	 175A      0.652836   176A      0.662246   177A      0.662470  
	 178A      0.665516   179A      0.672143   180A      0.679661  
	 181A      0.681320   182A      0.683673   183A      0.686389  
	 184A      0.692267   185A      0.705949   186A      0.712362  
	 187A      0.720550   188A      0.722254   189A      0.724161  
	 190A      0.731601   191A      0.739102   192A      0.744868  
	 193A      0.751786   194A      0.756961   195A      0.758359  
	 196A      0.766152   197A      0.766181   198A      0.768851  
	 199A      0.774982   200A      0.780119   201A      0.785366  
	 202A      0.792581   203A      0.802525   204A      0.806967  
	 205A      0.810109   206A      0.814214   207A      0.817430  
	 208A      0.821614   209A      0.841082   210A      0.842356  
	 211A      0.848857   212A      0.851304   213A      0.861103  
	 214A      0.861476   215A      0.864668   216A      0.874380  
	 217A      0.881871   218A      0.892948   219A      0.893110  
	 220A      0.897228   221A      0.900933   222A      0.906839  
	 223A      0.920068   224A      0.921852   225A      0.924435  
	 226A      0.925407   227A      0.928539   228A      0.941661  
	 229A      0.943919   230A      0.951371   231A      0.951548  
	 232A      0.955778   233A      0.968313   234A      0.976847  
	 235A      0.978701   236A      0.982620   237A      0.988327  
	 238A      0.997574   239A      1.001975   240A      1.009841  
	 241A      1.014652   242A      1.017087   243A      1.026827  
	 244A      1.029293   245A      1.042332   246A      1.047942  
	 247A      1.049455   248A      1.060286   249A      1.069348  
	 250A      1.074109   251A      1.092019   252A      1.094154  
	 253A      1.107917   254A      1.108550   255A      1.119764  
	 256A      1.140178   257A      1.146553   258A      1.162508  
[...]
   @DF-RHF iter   6:  -196.35468327336446   -7.33155e-06   6.57392e-07 DIIS
   @DF-RHF iter   7:  -196.35468339322168   -1.19857e-07   1.23889e-07 DIIS
   @DF-RHF iter   8:  -196.35468339704968   -3.82801e-09   1.48441e-08 DIIS
   @DF-RHF iter   9:  -196.35468339709456   -4.48779e-11   1.90830e-09 DIIS
  Energy and wave function converged.


  ==> Post-Iterations <==

    Orbital Energies [Eh]
    ---------------------

    Doubly Occupied:                                                      

       1A    -11.231196     2A    -11.212051     3A    -11.212040  
       4A    -11.212027     5A    -11.211988     6A     -1.107862  
       7A     -0.929852     8A     -0.929715     9A     -0.929712  
      10A     -0.730207    11A     -0.611518    12A     -0.611448  
      13A     -0.611419    14A     -0.552469    15A     -0.552432  
      16A     -0.508415    17A     -0.508367    18A     -0.508333  
      19A     -0.451778    20A     -0.451653    21A     -0.451643  

    Virtual:                                                              

      22A      0.019875    23A      0.033268    24A      0.036341  
      25A      0.040607    26A      0.045968    27A      0.049355  
      28A      0.050810    29A      0.056652    30A      0.059823  
      31A      0.064240    32A      0.064761    33A      0.067136  
      34A      0.070787    35A      0.072688    36A      0.083183  
      37A      0.086835    38A      0.087418    39A      0.089828  
      40A      0.095021    41A      0.095412    42A      0.100581  
      43A      0.101012    44A      0.103150    45A      0.113806  
      46A      0.114585    47A      0.124456    48A      0.125703  
      49A      0.135822    50A      0.138867    51A      0.149225  
      52A      0.149341    53A      0.154607    54A      0.155762  
      55A      0.159808    56A      0.162399    57A      0.164925  
      58A      0.168902    59A      0.172040    60A      0.176180  
      61A      0.177726    62A      0.178539    63A      0.180036  
      64A      0.188199    65A      0.193195    66A      0.195241  
      67A      0.197639    68A      0.203846    69A      0.205161  
      70A      0.207271    71A      0.212316    72A      0.213751  
      73A      0.219656    74A      0.220846    75A      0.222508  
      76A      0.222610    77A      0.224924    78A      0.231725  
      79A      0.237563    80A      0.246860    81A      0.247218  
      82A      0.251437    83A      0.252832    84A      0.263861  
      85A      0.265610    86A      0.281932    87A      0.308541  
      88A      0.310255    89A      0.326761    90A      0.329730  
      91A      0.336466    92A      0.338680    93A      0.340261  
      94A      0.346886    95A      0.358580    96A      0.359551  
      97A      0.365475    98A      0.365866    99A      0.367749  
     100A      0.373129   101A      0.373352   102A      0.384732  
     103A      0.386248   104A      0.393271   105A      0.401729  
     106A      0.402970   107A      0.406738   108A      0.407100  
     109A      0.413892   110A      0.421289   111A      0.428575  
     112A      0.432324   113A      0.435224   114A      0.435303  
     115A      0.444193   116A      0.450213   117A      0.456373  
     118A      0.458081   119A      0.463642   120A      0.467445  
     121A      0.468296   122A      0.470998   123A      0.478398  
     124A      0.479244   125A      0.483576   126A      0.485950  
     127A      0.488973   128A      0.490397   129A      0.490476  
     130A      0.491474   131A      0.498520   132A      0.504260  
     133A      0.511946   134A      0.520191   135A      0.525834  
     136A      0.526925   137A      0.529538   138A      0.529590  
     139A      0.537528   140A      0.551663   141A      0.555150  
     142A      0.555447   143A      0.558097   144A      0.562853  
     145A      0.565634   146A      0.575184   147A      0.579390  
     148A      0.579770   149A      0.585742   150A      0.596667  
     151A      0.597456   152A      0.600699   153A      0.607459  
     154A      0.608911   155A      0.615831   156A      0.621072  
     157A      0.623349   158A      0.627395   159A      0.637323  
     160A      0.639909   161A      0.643867   162A      0.656615  
     163A      0.658865   164A      0.659043   165A      0.669978  
     166A      0.678865   167A      0.679144   168A      0.680046  
     169A      0.680439   170A      0.683045   171A      0.684685  
     172A      0.705629   173A      0.707594   174A      0.723290  
     175A      0.723923   176A      0.725823   177A      0.729061  
     178A      0.730052   179A      0.730308   180A      0.737117  
     181A      0.739751   182A      0.747395   183A      0.756390  
     184A      0.757944   185A      0.760913   186A      0.765718  
     187A      0.766662   188A      0.769700   189A      0.770743  
     190A      0.772818   191A      0.804056   192A      0.805113  
     193A      0.811070   194A      0.813389   195A      0.826322  
     196A      0.833978   197A      0.841730   198A      0.842289  
     199A      0.842436   200A      0.851228   201A      0.851381  
     202A      0.858814   203A      0.859146   204A      0.862542  
     205A      0.865994   206A      0.867941   207A      0.872085  
     208A      0.875423   209A      0.878254   210A      0.883716  
     211A      0.901868   212A      0.902005   213A      0.903627  
     214A      0.905711   215A      0.906034   216A      0.906672  
     217A      0.913414   218A      0.913552   219A      0.925253  
     220A      0.926990   221A      0.927541   222A      0.932446  
     223A      0.946801   224A      0.950510   225A      0.952393  
     226A      0.953357   227A      0.954801   228A      0.967790  
     229A      0.975181   230A      0.979177   231A      0.985882  
     232A      1.005800   233A      1.022259   234A      1.024433  
     235A      1.024897   236A      1.025314   237A      1.035238  
     238A      1.053507   239A      1.073253   240A      1.091414  
     241A      1.091904   242A      1.095832   243A      1.102939  
     244A      1.107150   245A      1.117753   246A      1.119221  
     247A      1.123776   248A      1.124605   249A      1.142578  
     250A      1.165798   251A      1.176783   252A      1.220941  
     253A      1.221974   254A      1.231629   255A      1.239878  
     256A      1.241251   257A      1.249079   258A      1.273351  
     259A      1.279913   260A      1.280245   261A      1.286608  
     262A      1.312131   263A      1.378137   264A      1.386359  
     265A      1.388941   266A      1.389208   267A      1.434198  
     268A      1.437080   269A      1.445246   270A      1.455651  
     271A      1.477203   272A      1.585295   273A      1.587254  
     274A      1.588308   275A      1.624151   276A      1.625662  
     277A      1.626919   278A      1.713571   279A      1.713595  
     280A      1.732305   281A      1.795996   282A      1.799140  
     283A      1.825626   284A      1.827208   285A      1.827580  
     286A      1.831001   287A      1.868425   288A      1.869421  
     289A      1.908419   290A      1.936083   291A      1.943277  
     292A      2.018886   293A      2.027926   294A      2.029154  
     295A      2.030705   296A      2.054241   297A      2.066689  
     298A      2.067431   299A      2.069186   300A      2.073148  
     301A      2.075797   302A      2.078539   303A      2.082419  
     304A      2.085921   305A      2.087619   306A      2.104427  
     307A      2.151495   308A      2.151814   309A      2.152375  
     310A      2.167869   311A      2.178426   312A      2.190677  
     313A      2.196474   314A      2.197690   315A      2.198570  
     316A      2.264968   317A      2.277326   318A      2.303837  
     319A      2.320932   320A      2.325139   321A      2.325368  
     322A      2.326086   323A      2.326551   324A      2.328196  
     325A      2.329509   326A      2.333691   327A      2.334709  
     328A      2.347414   329A      2.351605   330A      2.356874  
     331A      2.358476   332A      2.361656   333A      2.362502  
     334A      2.367313   335A      2.374910   336A      2.384887  
     337A      2.385305   338A      2.385650   339A      2.388258  
     340A      2.404921   341A      2.406428   342A      2.410091  
     343A      2.430047   344A      2.430420   345A      2.439990  
     346A      2.440034   347A      2.442722   348A      2.445539  
     349A      2.485921   350A      2.504919   351A      2.516870  
     352A      2.519347   353A      2.530690   354A      2.530885  
     355A      2.532575   356A      2.558633   357A      2.561250  
     358A      2.570838   359A      2.571463   360A      2.583941  
     361A      2.599174   362A      2.603889   363A      2.617787  
     364A      2.637184   365A      2.644627   366A      2.645357  
     367A      2.647368   368A      2.647566   369A      2.647679  
     370A      2.648013   371A      2.693973   372A      2.723292  
     373A      2.732400   374A      2.771408   375A      2.772510  
     376A      2.803125   377A      2.825942   378A      2.851629  
     379A      2.853909   380A      2.865792   381A      2.874026  
     382A      2.874589   383A      2.876960   384A      2.882403  
     385A      2.947897   386A      2.948681   387A      2.952627  
     388A      2.962893   389A      2.975404   390A      3.020250  
     391A      3.021095   392A      3.028972   393A      3.042906  
     394A      3.065581   395A      3.080812   396A      3.099237  
     397A      3.104929   398A      3.108023   399A      3.108829  
     400A      3.141076   401A      3.211320   402A      3.225107  
     403A      3.226594   404A      3.247101   405A      3.319502  
     406A      3.360516   407A      3.364525   408A      3.364920  
     409A      3.390015   410A      3.397425   411A      3.398268  
     412A      3.439567   413A      3.446416   414A      3.446933  
     415A      3.536187   416A      3.538964   417A      3.545614  
     418A      3.553711   419A      3.574837   420A      3.619255  
     421A      3.642055   422A      3.709115   423A      3.716546  
     424A      3.796484   425A      3.927667   426A      4.089911  
     427A      4.294260   428A      4.353520   429A      4.430705  
     430A      4.493211   431A      4.772553   432A      4.817038  
     433A      4.872981   434A      4.927249   435A      4.979545  
     436A      5.023673   437A      5.108728   438A      5.178241  
     439A      5.238244   440A      5.264651   441A      5.364951  
     442A     18.247782   443A     18.444314   444A     18.672907  
     445A     18.977246   446A     19.170133  

    Final Occupation by Irrep:
              A 
    DOCC [    21 ]

  @DF-RHF Final Energy:  -196.35468339709456

   => Energetics <=

    Nuclear Repulsion Energy =            199.3689415420747650
    One-Electron Energy =                -658.3950000498278996
    Two-Electron Energy =                 262.6713751106585732
    Total Energy =                       -196.3546833970945613

Computation Completed


Properties will be evaluated at   0.000000,   0.000000,   0.000000 [a0]

Properties computed using the SCF density matrix

  Nuclear Dipole Moment: [e a0]
     X:    -0.0270      Y:     8.8397      Z:   310.9466

  Electronic Dipole Moment: [e a0]
     X:     0.0270      Y:    -8.8396      Z:  -310.9467

  Dipole Moment: [e a0]
     X:    -0.0000      Y:     0.0001      Z:    -0.0001     Total:     0.0002

  Dipole Moment: [D]
     X:    -0.0000      Y:     0.0004      Z:    -0.0003     Total:     0.0005


*** tstop() called on node94.bme.utexas.edu at Thu Apr 23 18:17:38 2020
Module time:
	user time   =      70.43 seconds =       1.17 minutes
	system time =       1.33 seconds =       0.02 minutes
	total time  =         18 seconds =       0.30 minutes
Total time:
	user time   =     320.59 seconds =       5.34 minutes
	system time =       5.52 seconds =       0.09 minutes
	total time  =         54 seconds =       0.90 minutes
  Constructing Basis Sets for SAPT...

   => Loading Basis Set <=

    Name: (AUG-CC-PVDZ AUX)
    Role: RIFIT
    Keyword: DF_BASIS_SAPT
    atoms 1, 5, 8, 11, 14, 18-19, 23, 27, 31                       entry C          line   112 file /home/liuchw/anaconda3/envs/psi4env/share/psi4/basis/aug-cc-pvdz-ri.gbs 
    atoms 2-4, 6-7, 9-10, 12-13, 15-17, 20-22, 24-26, 28-30, 32-34 entry H          line    30 file /home/liuchw/anaconda3/envs/psi4env/share/psi4/basis/aug-cc-pvdz-ri.gbs 


  //>>>>>>>>>>>>>>>>>>>>>>>>>>>>>>>>>>>//
  //               SAPT2+              //
  //<<<<<<<<<<<<<<<<<<<<<<<<<<<<<<<<<<<//


*** tstart() called on node94.bme.utexas.edu
*** at Thu Apr 23 18:17:38 2020

        SAPT2+  
    Ed Hohenstein
     6 June 2009

      Orbital Information
  --------------------------
    NSO        =       446
    NMO        =       446
    NRI        =      1272
    NOCC A     =        21
    NOCC B     =        21
    FOCC A     =         5
    FOCC B     =         5
    NVIR A     =       425
    NVIR B     =       425

    Estimated memory usage: 3749.8 MB

    Natural Orbital Cutoff:   1.000E-06
    Disp(T3) Truncation:            Yes
    CCD (vv|vv) Truncation:         Yes
    MBPT T2 Truncation:             Yes

    Monomer A: 239 virtual orbitals dropped
    Monomer B: 239 virtual orbitals dropped

    Elst10,r            =     0.000006163575 [Eh]
    Exch10 (S^2)        =     0.000000139301 [Eh]
    Exch10              =     0.000000139301 [Eh]
    Ind20,r (A<-B)      =    -0.000000152933 [Eh]
    Ind20,r (B<-A)      =    -0.000000134436 [Eh]
    Ind20,r             =    -0.000000287369 [Eh]
    Exch-Ind20,r (A<-B) =     0.000000031427 [Eh]
    Exch-Ind20,r (B<-A) =     0.000000018657 [Eh]
    Exch-Ind20,r        =     0.000000050084 [Eh]
    Disp20              =    -0.000211166505 [Eh]
    Disp20 (NO)         =    -0.000209375578 [Eh]
    Exch-Disp20         =     0.000000035520 [Eh]
    Elst12,r            =    -0.000000625650 [Eh]
    Exch11              =    -0.000000005451 [Eh]
    Exch12              =     0.000000049151 [Eh]
    Ind22               =    -0.000000081220 [Eh]
    Disp21              =     0.000033531233 [Eh]
    Disp22 (SDQ)        =     0.000003908607 [Eh]

    (i =   1 of  16)         45 seconds
    (i =   2 of  16)         90 seconds
    (i =   3 of  16)        134 seconds
    (i =   4 of  16)        178 seconds
    (i =   5 of  16)        223 seconds
    (i =   6 of  16)        267 seconds
    (i =   7 of  16)        312 seconds
    (i =   8 of  16)        356 seconds
    (i =   9 of  16)        401 seconds
    (i =  10 of  16)        446 seconds
    (i =  11 of  16)        490 seconds
    (i =  12 of  16)        535 seconds
    (i =  13 of  16)        579 seconds
    (i =  14 of  16)        624 seconds
    (i =  15 of  16)        668 seconds
    (i =  16 of  16)        713 seconds

    Disp220 (T)         =    -0.000015576070 [Eh]

    (i =   1 of  16)         44 seconds
    (i =   2 of  16)         89 seconds
    (i =   3 of  16)        133 seconds
    (i =   4 of  16)        178 seconds
    (i =   5 of  16)        222 seconds
    (i =   6 of  16)        267 seconds
    (i =   7 of  16)        312 seconds
    (i =   8 of  16)        357 seconds
    (i =   9 of  16)        402 seconds
    (i =  10 of  16)        447 seconds
    (i =  11 of  16)        492 seconds
    (i =  12 of  16)        538 seconds
    (i =  13 of  16)        583 seconds
    (i =  14 of  16)        628 seconds
    (i =  15 of  16)        673 seconds
    (i =  16 of  16)        718 seconds

    Disp202 (T)         =    -0.000016342242 [Eh]

    Disp22 (T)          =    -0.000031918312 [Eh]

    Est. Disp220 (T)    =    -0.000015709303 [Eh]
    Est. Disp202 (T)    =    -0.000016482027 [Eh]

    Est. Disp22 (T)     =    -0.000032191330 [Eh]

    SAPT Results 
  --------------------------------------------------------------------------------------------------------
    Electrostatics                  0.00553792 [mEh]       0.00347510 [kcal/mol]       0.01453982 [kJ/mol]
      Elst10,r                      0.00616357 [mEh]       0.00386770 [kcal/mol]       0.01618246 [kJ/mol]
      Elst12,r                     -0.00062565 [mEh]      -0.00039260 [kcal/mol]      -0.00164264 [kJ/mol]

    Exchange                        0.00018300 [mEh]       0.00011483 [kcal/mol]       0.00048047 [kJ/mol]
      Exch10                        0.00013930 [mEh]       0.00008741 [kcal/mol]       0.00036574 [kJ/mol]
      Exch10(S^2)                   0.00013930 [mEh]       0.00008741 [kcal/mol]       0.00036574 [kJ/mol]
      Exch11(S^2)                  -0.00000545 [mEh]      -0.00000342 [kcal/mol]      -0.00001431 [kJ/mol]
      Exch12(S^2)                   0.00004915 [mEh]       0.00003084 [kcal/mol]       0.00012905 [kJ/mol]

    Induction                      -0.00031595 [mEh]      -0.00019826 [kcal/mol]      -0.00082954 [kJ/mol]
      Ind20,r                      -0.00028737 [mEh]      -0.00018033 [kcal/mol]      -0.00075449 [kJ/mol]
      Ind22                        -0.00008122 [mEh]      -0.00005097 [kcal/mol]      -0.00021324 [kJ/mol]
      Exch-Ind20,r                  0.00005008 [mEh]       0.00003143 [kcal/mol]       0.00013149 [kJ/mol]
      Exch-Ind22                    0.00001416 [mEh]       0.00000888 [kcal/mol]       0.00003716 [kJ/mol]
      delta HF,r (2)               -0.00001160 [mEh]      -0.00000728 [kcal/mol]      -0.00003047 [kJ/mol]

    Dispersion                     -0.20588247 [mEh]      -0.12919320 [kcal/mol]      -0.54054436 [kJ/mol]
      Disp20                       -0.21116650 [mEh]      -0.13250898 [kcal/mol]      -0.55441758 [kJ/mol]
      Disp21                        0.03353123 [mEh]       0.02104117 [kcal/mol]       0.08803624 [kJ/mol]
      Disp22 (SDQ)                  0.00390861 [mEh]       0.00245269 [kcal/mol]       0.01026205 [kJ/mol]
      Disp22 (T)                   -0.03191831 [mEh]      -0.02002904 [kcal/mol]      -0.08380152 [kJ/mol]
      Est. Disp22 (T)              -0.03219133 [mEh]      -0.02020036 [kcal/mol]      -0.08451833 [kJ/mol]
      Exch-Disp20                   0.00003552 [mEh]       0.00002229 [kcal/mol]       0.00009326 [kJ/mol]

  Total HF                          0.00605399 [mEh]       0.00379893 [kcal/mol]       0.01589474 [kJ/mol]
  Total SAPT0                      -0.20507700 [mEh]      -0.12868776 [kcal/mol]      -0.53842959 [kJ/mol]
  Total SAPT2                      -0.20572601 [mEh]      -0.12909502 [kcal/mol]      -0.54013357 [kJ/mol]
  Total SAPT2+                     -0.20047750 [mEh]      -0.12580153 [kcal/mol]      -0.52635361 [kJ/mol]

  Special recipe for scaled SAPT0 (see Manual):
    Electrostatics sSAPT0           0.00616357 [mEh]       0.00386770 [kcal/mol]       0.01618246 [kJ/mol]
    Exchange sSAPT0                 0.00013930 [mEh]       0.00008741 [kcal/mol]       0.00036574 [kJ/mol]
    Induction sSAPT0               -0.00024889 [mEh]      -0.00015618 [kcal/mol]      -0.00065346 [kJ/mol]
    Dispersion sSAPT0              -0.21113098 [mEh]      -0.13248669 [kcal/mol]      -0.55432432 [kJ/mol]
  Total sSAPT0                     -0.20507700 [mEh]      -0.12868776 [kcal/mol]      -0.53842959 [kJ/mol]
  --------------------------------------------------------------------------------------------------------

*** tstop() called on node94.bme.utexas.edu at Thu Apr 23 18:47:34 2020
Module time:
	user time   =   13790.67 seconds =     229.84 minutes
	system time =     184.44 seconds =       3.07 minutes
	total time  =       1796 seconds =      29.93 minutes
Total time:
	user time   =   14112.70 seconds =     235.21 minutes
	system time =     190.02 seconds =       3.17 minutes
	total time  =       1850 seconds =      30.83 minutes

    Psi4 stopped on: Thursday, 23 April 2020 06:47PM
    Psi4 wall time for execution: 0:30:50.37

*** Psi4 exiting successfully. Buy a developer a beer!
