    -----------------------------------------------------------------------
          PSI4: An Open-Source Ab Initio Electronic Structure Package
                              PSI 4.0.0-beta4 Driver

    J. M. Turney, A. C. Simmonett, R. M. Parrish, E. G. Hohenstein,
    F. A. Evangelista, J. T. Fermann, B. J. Mintz, L. A. Burns, J. J. Wilke,
    M. L. Abrams, N. J. Russ, M. L. Leininger, C. L. Janssen, E. T. Seidl,
    W. D. Allen, H. F. Schaefer, R. A. King, E. F. Valeev, C. D. Sherrill,
    and T. D. Crawford, WIREs Comput. Mol. Sci., (2011) (doi: 10.1002/wcms.93)

                         Additional Contributions by
    A. E. DePrince, M. Saitow, U. Bozkaya, A. Yu. Sokolov
    -----------------------------------------------------------------------

    Process ID:   2201
    PSI4DATADIR: /home/xzhu216/psi4/psi4-install/share/psi

    Using LocalCommunicator (Number of processes = 1)

    Memory level set to 256.000 MB

  ==> Input File <==

--------------------------------------------------------------------------
#psi4
#
memory 15 gb

molecule Neopentane_Neopentane {
0 1
C    0.382522206  -0.070606972   0.766895817
C   -1.040639472   0.396811255   1.060935933
H   -1.771574596  -0.281500248   0.618330233
H   -1.224717770   0.435735085   2.135518899
H   -1.214066031   1.393724437   0.653090647
C    0.590847472  -1.466818137   1.347977909
H    1.602913797  -1.822949997   1.150102854
H    0.438968582  -1.466745983   2.428286685
H   -0.109919056  -2.178684250   0.909313901
C    1.378269048   0.898435362   1.399149440
H    2.404393972   0.585440740   1.200733652
H    1.243780924   0.945974298   2.480709914
H    1.248373180   1.905022619   0.998950707
C    0.601960941  -0.111034194  -0.743096590
H    0.459211824   0.877039098  -1.182898192
H    1.613693987  -0.443459451  -0.979672098
H   -0.099530783  -0.797549823  -1.219220690
--
0 1
C   -0.335519256   0.062015624   5.695305584
C    1.087293197  -0.406950376   5.401906043
H    1.271732399  -0.446279527   4.327385577
H    1.818727346   0.270722452   5.844641618
H    1.259556864  -1.403956418   5.810026615
C   -0.541916066   1.458577150   5.114475109
H   -1.553879161   1.815562597   5.311322635
H    0.159002532   2.169648623   5.554196877
H   -0.388806850   1.458773765   4.034332754
C   -0.555813747   0.102191838   7.205159212
H   -1.567029902   0.436468824   7.441232400
H    0.146698708   0.787140870   7.681997432
H   -0.415250654  -0.886328501   7.644610950
C   -1.331981974  -0.905762036   5.062159188
H   -1.203055965  -1.912737417   5.461738160
H   -2.357871071  -0.591989180   5.260547041
H   -1.197277608  -0.952736430   3.980582526
units angstrom
no_reorient  #important for SAPT in psi4, default
symmetry c1  #important for SAPT in psi4, default
}

set {
basis aug-cc-pVDZ
scf_type DF
freeze_core True
}
energy('sapt2+')
--------------------------------------------------------------------------

  Memory set to  15.000 GiB by Python script.

  //>>>>>>>>>>>>>>>>>>>>>>>>>>>>>>>>>>>//
  //              Dimer HF             //
  //<<<<<<<<<<<<<<<<<<<<<<<<<<<<<<<<<<<//


  No DF_BASIS_SCF auxiliary basis selected, defaulting to aug-cc-pvdz-jkfit


*** tstart() called on node125.bme.utexas.edu
*** at Thu Oct  3 17:06:08 2013


         ---------------------------------------------------------
                                   SCF
            by Justin Turney, Rob Parrish, and Andy Simmonett
                              RHF Reference
                        8 Threads,  15000 MiB Core
         ---------------------------------------------------------

  ==> Geometry <==

    Molecular point group: c1
    Full point group: C1

    Geometry (in Angstrom), charge = 0, multiplicity = 1:

       Center              X                  Y                   Z       
    ------------   -----------------  -----------------  -----------------
           C          0.359019824104    -0.066292038154    -2.464189401029
           C         -1.064141853896     0.401126188846    -2.170149285029
           H         -1.795076977896    -0.277185314154    -2.612754985029
           H         -1.248220151896     0.440050018846    -1.095566319029
           H         -1.237568412896     1.398039370846    -2.577994571029
           C          0.567345090104    -1.462503203154    -1.883107309029
           H          1.579411415104    -1.818635063154    -2.080982364029
           H          0.415466200104    -1.462431049154    -0.802798533029
           H         -0.133421437896    -2.174369316154    -2.321771317029
           C          1.354766666104     0.902750295846    -1.831935778029
           H          2.380891590104     0.589755673846    -2.030351566029
           H          1.220278542104     0.950289231846    -0.750375304029
           H          1.224870798104     1.909337552846    -2.232134511029
           C          0.578458559104    -0.106719260154    -3.974181808029
           H          0.435709442104     0.881354031846    -4.413983410029
           H          1.590191605104    -0.439144517154    -4.210757316029
           H         -0.123033164896    -0.793234889154    -4.450305908029
           C         -0.359021637896     0.066330557846     2.464220365971
           C          1.063790815104    -0.402635442154     2.170820824971
           H          1.248230017104    -0.441964593154     1.096300358971
           H          1.795224964104     0.275037385846     2.613556399971
           H          1.236054482104    -1.399641484154     2.578941396971
           C         -0.565418447896     1.462892083846     1.883389890971
           H         -1.577381542896     1.819877530846     2.080237416971
           H          0.135500150104     2.173963556846     2.323111658971
           H         -0.412309231896     1.463088698846     0.803247535971
           C         -0.579316128896     0.106506771846     3.974073993971
           H         -1.590532283896     0.440783757846     4.210147181971
           H          0.123196326104     0.791455803846     4.450912213971
           H         -0.438753035896    -0.882013567154     4.413525731971
           C         -1.355484355896    -0.901447102154     1.831073969971
           H         -1.226558346896    -1.908422483154     2.230652941971
           H         -2.381373452896    -0.587674246154     2.029461822971
           H         -1.220779989896    -0.948421496154     0.749497307971

  Running in c1 symmetry.

  Nuclear repulsion =  582.060032471598674

  Charge       = 0
  Multiplicity = 1
  Electrons    = 84
  Nalpha       = 42
  Nbeta        = 42

  ==> Algorithm <==

  SCF Algorithm Type is DF.
  DIIS enabled.
  MOM disabled.
  Fractional occupation disabled.
  Guess Type is CORE.
  Energy threshold   = 1.00e-08
  Density threshold  = 1.00e-08
  Integral threshold = 0.00e+00

  ==> Primary Basis <==

  Basis Set: AUG-CC-PVDZ
    Number of shells: 210
    Number of basis function: 446
    Number of Cartesian functions: 466
    Spherical Harmonics?: true
    Max angular momentum: 2

  ==> Pre-Iterations <==

   -------------------------------------------------------
    Irrep   Nso     Nmo     Nalpha   Nbeta   Ndocc  Nsocc
   -------------------------------------------------------
     A        446     446       0       0       0       0
   -------------------------------------------------------
    Total     446     446      42      42      42       0
   -------------------------------------------------------

 OEINTS: Wrapper to libmints.
   by Justin Turney

   Calculation information:
      Number of atoms:                  34
      Number of AO shells:             210
      Number of SO shells:             210
      Number of primitives:            418
      Number of atomic orbitals:       466
      Number of basis functions:       446

      Number of irreps:                  1
      Number of functions per irrep: [ 446 ]

      Overlap, kinetic, potential, dipole, and quadrupole integrals
        stored in file 35.

  ==> Integral Setup <==

  ==> DFJK: Density-Fitted J/K Matrices <==

    J tasked:                  Yes
    K tasked:                  Yes
    wK tasked:                  No
    OpenMP threads:              8
    Integrals threads:           8
    Memory (MB):             10728
    Algorithm:                Core
    Integral Cache:           SAVE
    Schwarz Cutoff:          0E+00
    Fitting Condition:       1E-12

   => Auxiliary Basis Set <=

  Basis Set: aug-cc-pvdz-jkfit
    Number of shells: 568
    Number of basis function: 1628
    Number of Cartesian functions: 1850
    Spherical Harmonics?: true
    Max angular momentum: 3

  Minimum eigenvalue in the overlap matrix is 4.4518408470E-06.
  Using Symmetric Orthogonalization.
  SCF Guess: Core (One-Electron) Hamiltonian.

  Guess energy:  -328.82811560286848

  ==> Iterations <==

                        Total Energy        Delta E     RMS |[F,P]|

   @RHF iter   1:  -275.77638423249391   -2.75776e+02   2.33555e-02 
   @RHF iter   2:  -207.65710014172635    6.81193e+01   1.69328e-02 DIIS
   @RHF iter   3:  -332.11129813640900   -1.24454e+02   1.66907e-02 DIIS
   @RHF iter   4:  -385.87121515317267   -5.37599e+01   7.58381e-03 DIIS
   @RHF iter   5:  -391.49780392965488   -5.62659e+00   2.85239e-03 DIIS
   @RHF iter   6:  -392.54334040313563   -1.04554e+00   9.41387e-04 DIIS
   @RHF iter   7:  -392.69273123794562   -1.49391e-01   2.61806e-04 DIIS
   @RHF iter   8:  -392.70402841295743   -1.12972e-02   7.26457e-05 DIIS
   @RHF iter   9:  -392.70477852399335   -7.50111e-04   2.19156e-05 DIIS
   @RHF iter  10:  -392.70487503885113   -9.65149e-05   6.44498e-06 DIIS
   @RHF iter  11:  -392.70488352402526   -8.48517e-06   1.57939e-06 DIIS
   @RHF iter  12:  -392.70488404901300   -5.24988e-07   4.03412e-07 DIIS
   @RHF iter  13:  -392.70488408222911   -3.32161e-08   9.26751e-08 DIIS
   @RHF iter  14:  -392.70488408363917   -1.41006e-09   2.13255e-08 DIIS
   @RHF iter  15:  -392.70488408373387   -9.47011e-11   4.35751e-09 DIIS

  ==> Post-Iterations <==

	Orbital Energies (a.u.)
	-----------------------

	Doubly Occupied:                                                      

	   1A    -11.231576     2A    -11.231575     3A    -11.211904  
	   4A    -11.211899     5A    -11.211834     6A    -11.211834  
	   7A    -11.211832     8A    -11.211831     9A    -11.211799  
	  10A    -11.211797    11A     -1.109146    12A     -1.107525  
	  13A     -0.931960    14A     -0.931954    15A     -0.931646  
	  16A     -0.928995    17A     -0.928993    18A     -0.928605  
	  19A     -0.734000    20A     -0.728130    21A     -0.622285  
	  22A     -0.612290    23A     -0.612284    24A     -0.612027  
	  25A     -0.612023    26A     -0.602524    27A     -0.559380  
	  28A     -0.559367    29A     -0.548118    30A     -0.548112  
	  31A     -0.512999    32A     -0.512985    33A     -0.509178  
	  34A     -0.508389    35A     -0.504112    36A     -0.504095  
	  37A     -0.463220    38A     -0.452663    39A     -0.452659  
	  40A     -0.451376    41A     -0.451373    42A     -0.439326  

	Virtual:                                                              

	  43A      0.034163    44A      0.039848    45A      0.044124  
	  46A      0.044125    47A      0.054869    48A      0.056840  
	  49A      0.056840    50A      0.062134    51A      0.062137  
	  52A      0.072052    53A      0.075317    54A      0.075318  
	  55A      0.080378    56A      0.080379    57A      0.088214  
	  58A      0.097455    59A      0.097458    60A      0.104188  
	  61A      0.104648    62A      0.106360    63A      0.123166  
	  64A      0.123167    65A      0.127498    66A      0.127503  
	  67A      0.137738    68A      0.143190    69A      0.156349  
	  70A      0.157468    71A      0.168379    72A      0.168380  
	  73A      0.172540    74A      0.172543    75A      0.174564  
	  76A      0.181008    77A      0.181011    78A      0.181970  
	  79A      0.181973    80A      0.185468    81A      0.196857  
	  82A      0.196863    83A      0.208095    84A      0.208096  
	  85A      0.214011    86A      0.214015    87A      0.215539  
	  88A      0.215551    89A      0.216791    90A      0.219297  
	  91A      0.222534    92A      0.235037    93A      0.235564  
	  94A      0.235568    95A      0.237880    96A      0.242996  
	  97A      0.243361    98A      0.243373    99A      0.250380  
	 100A      0.255321   101A      0.255324   102A      0.267753  
	 103A      0.267776   104A      0.289186   105A      0.295612  
	 106A      0.295636   107A      0.296869   108A      0.309945  
	 109A      0.313958   110A      0.332624   111A      0.332630  
	 112A      0.350183   113A      0.364593   114A      0.364628  
	 115A      0.375320   116A      0.375324   117A      0.378745  
	 118A      0.378770   119A      0.393402   120A      0.402203  
	 121A      0.404465   122A      0.404473   123A      0.407555  
	 124A      0.407558   125A      0.426262   126A      0.427001  
	 127A      0.427002   128A      0.431584   129A      0.431593  
	 130A      0.438988   131A      0.445861   132A      0.446169  
	 133A      0.446206   134A      0.469742   135A      0.472489  
	 136A      0.481263   137A      0.481584   138A      0.481591  
	 139A      0.483170   140A      0.483194   141A      0.493792  
	 142A      0.494269   143A      0.494271   144A      0.496921  
	 145A      0.499542   146A      0.502042   147A      0.502051  
	 148A      0.522107   149A      0.522132   150A      0.523414  
	 151A      0.527022   152A      0.533620   153A      0.533627  
	 154A      0.542735   155A      0.542760   156A      0.547086  
	 157A      0.547089   158A      0.547596   159A      0.572313  
	 160A      0.572328   161A      0.576244   162A      0.582906  
	 163A      0.585029   164A      0.585055   165A      0.593078  
	 166A      0.593080   167A      0.598938   168A      0.598943  
	 169A      0.608575   170A      0.613158   171A      0.617778  
	 172A      0.617795   173A      0.623412   174A      0.641643  
	 175A      0.656471   176A      0.656480   177A      0.658240  
	 178A      0.658258   179A      0.660888   180A      0.677974  
	 181A      0.678593   182A      0.678599   183A      0.684516  
	 184A      0.684526   185A      0.686725   186A      0.689684  
	 187A      0.692341   188A      0.700042   189A      0.701654  
	 190A      0.702791   191A      0.702804   192A      0.708482  
	 193A      0.710676   194A      0.710733   195A      0.743376  
	 196A      0.743385   197A      0.747924   198A      0.761552  
	 199A      0.761553   200A      0.765078   201A      0.772655  
	 202A      0.772659   203A      0.779435   204A      0.791236  
	 205A      0.811918   206A      0.818226   207A      0.818230  
	 208A      0.819575   209A      0.819584   210A      0.823450  
	 211A      0.845451   212A      0.854334   213A      0.854358  
	 214A      0.856241   215A      0.856247   216A      0.859921  
	 217A      0.868667   218A      0.870849   219A      0.870942  
	 220A      0.879806   221A      0.881219   222A      0.881263  
	 223A      0.898562   224A      0.898579   225A      0.901719  
	 226A      0.901758   227A      0.913801   228A      0.913808  
	 229A      0.918553   230A      0.918567   231A      0.928525  
	 232A      0.936480   233A      0.955296   234A      0.955304  
	 235A      0.955589   236A      0.957370   237A      0.970212  
	 238A      0.984453   239A      0.984506   240A      0.986605  
	 241A      0.992450   242A      0.992515   243A      1.009468  
	 244A      1.009512   245A      1.013758   246A      1.013862  
	 247A      1.033387   248A      1.048669   249A      1.048712  
	 250A      1.067205   251A      1.067625   252A      1.067642  
	 253A      1.089892   254A      1.090017   255A      1.118683  
	 256A      1.141911   257A      1.141973   258A      1.146542  
	 259A      1.155159   260A      1.155185   261A      1.162521  
	 262A      1.168373   263A      1.169670   264A      1.169679  
	 265A      1.199963   266A      1.200043   267A      1.218248  
	 268A      1.236820   269A      1.267709   270A      1.267722  
	 271A      1.278209   272A      1.278254   273A      1.316902  
	 274A      1.348640   275A      1.348694   276A      1.379728  
	 277A      1.381705   278A      1.381732   279A      1.385035  
	 280A      1.406799   281A      1.407248   282A      1.446084  
	 283A      1.446121   284A      1.446918   285A      1.446920  
	 286A      1.470433   287A      1.485473   288A      1.511182  
	 289A      1.511192   290A      1.570394   291A      1.570431  
	 292A      1.610075   293A      1.632210   294A      1.650263  
	 295A      1.650277   296A      1.665851   297A      1.686345  
	 298A      1.686417   299A      1.705224   300A      1.705263  
	 301A      1.718523   302A      1.729745   303A      1.729758  
	 304A      1.758339   305A      1.758342   306A      1.769389  
	 307A      1.769442   308A      1.769539   309A      1.805481  
	 310A      1.822117   311A      1.822452   312A      1.822485  
	 313A      1.830903   314A      1.848977   315A      1.852895  
	 316A      1.852960   317A      1.898438   318A      1.898450  
	 319A      1.906173   320A      1.906203   321A      1.963684  
	 322A      1.966114   323A      1.975975   324A      1.984573  
	 325A      2.004348   326A      2.004394   327A      2.008288  
	 328A      2.008301   329A      2.026573   330A      2.050468  
	 331A      2.050480   332A      2.056077   333A      2.056106  
	 334A      2.085742   335A      2.099707   336A      2.099736  
	 337A      2.106705   338A      2.106725   339A      2.146400  
	 340A      2.146433   341A      2.160993   342A      2.164669  
	 343A      2.165979   344A      2.179606   345A      2.184596  
	 346A      2.184654   347A      2.203176   348A      2.203284  
	 349A      2.207631   350A      2.207643   351A      2.216403  
	 352A      2.241031   353A      2.262273   354A      2.262298  
	 355A      2.275301   356A      2.275382   357A      2.327644  
	 358A      2.327653   359A      2.332368   360A      2.344029  
	 361A      2.351858   362A      2.369416   363A      2.369432  
	 364A      2.369746   365A      2.369784   366A      2.374804  
	 367A      2.374825   368A      2.390172   369A      2.390212  
	 370A      2.409809   371A      2.410214   372A      2.424949  
	 373A      2.425012   374A      2.480314   375A      2.480354  
	 376A      2.486178   377A      2.487327   378A      2.509698  
	 379A      2.509747   380A      2.551773   381A      2.551807  
	 382A      2.564410   383A      2.571345   384A      2.571361  
	 385A      2.585079   386A      2.596577   387A      2.606462  
	 388A      2.606498   389A      2.630046   390A      2.638860  
	 391A      2.638899   392A      2.660626   393A      2.661568  
	 394A      2.661598   395A      2.662744   396A      2.662774  
	 397A      2.675297   398A      2.677542   399A      2.685921  
	 400A      2.685987   401A      2.707693   402A      2.707705  
	 403A      2.744218   404A      2.802050   405A      2.802069  
	 406A      2.812053   407A      2.827535   408A      2.827610  
	 409A      2.869184   410A      2.904554   411A      2.907311  
	 412A      2.907391   413A      2.910932   414A      2.928540  
	 415A      2.928601   416A      2.951235   417A      2.972753  
	 418A      2.972789   419A      2.985832   420A      2.985871  
	 421A      2.985928   422A      3.024907   423A      3.024932  
	 424A      3.034527   425A      3.059861   426A      3.059885  
	 427A      3.073155   428A      3.114722   429A      3.118619  
	 430A      3.140878   431A      3.195027   432A      3.195154  
	 433A      3.243312   434A      3.243457   435A      3.311598  
	 436A      3.365532   437A      3.404606   438A      3.404830  
	 439A      3.447096   440A      3.447359   441A      3.620275  
	 442A      3.620540   443A      3.628162   444A      3.628240  
	 445A      3.673614   446A      3.898143  

	Final Occupation by Irrep:
	          A 
	DOCC [    42 ]

  Energy converged.

  @RHF Final Energy:  -392.70488408373387

   => Energetics <=

    Nuclear Repulsion Energy =            582.0600324715986744
    One-Electron Energy =               -1683.3905946834611314
    Two-Electron Energy =                 708.6256781281290387
    DFT Exchange-Correlation Energy =       0.0000000000000000
    Empirical Dispersion Energy =           0.0000000000000000
    Total Energy =                       -392.7048840837333046



Properties will be evaluated at   0.000000,   0.000000,   0.000000 Bohr
  ==> Properties <==


Properties computed using the SCF density density matrix
  Nuclear Dipole Moment: (a.u.)
     X:     0.0000      Y:    -0.0001      Z:    -0.0002

  Electronic Dipole Moment: (a.u.)
     X:    -0.0000      Y:     0.0001      Z:     0.0002

  Dipole Moment: (a.u.)
     X:    -0.0000      Y:     0.0000      Z:     0.0000     Total:     0.0000

  Dipole Moment: (Debye)
     X:    -0.0000      Y:     0.0000      Z:     0.0001     Total:     0.0001


  Saving occupied orbitals to File 180.

  Saving SAPT 2-DIMER file.

*** tstop() called on node125.bme.utexas.edu at Thu Oct  3 17:07:23 2013
Module time:
	user time   =     494.10 seconds =       8.23 minutes
	system time =       6.80 seconds =       0.11 minutes
	total time  =         75 seconds =       1.25 minutes
Total time:
	user time   =     494.10 seconds =       8.23 minutes
	system time =       6.80 seconds =       0.11 minutes
	total time  =         75 seconds =       1.25 minutes

  //>>>>>>>>>>>>>>>>>>>>>>>>>>>>>>>>>>>//
  //            Monomer A HF           //
  //<<<<<<<<<<<<<<<<<<<<<<<<<<<<<<<<<<<//


  No DF_BASIS_SCF auxiliary basis selected, defaulting to aug-cc-pvdz-jkfit


*** tstart() called on node125.bme.utexas.edu
*** at Thu Oct  3 17:07:23 2013


         ---------------------------------------------------------
                                   SCF
            by Justin Turney, Rob Parrish, and Andy Simmonett
                              RHF Reference
                        8 Threads,  15000 MiB Core
         ---------------------------------------------------------

  ==> Geometry <==

    Molecular point group: c1
    Full point group: C1

    Geometry (in Angstrom), charge = 0, multiplicity = 1:

       Center              X                  Y                   Z       
    ------------   -----------------  -----------------  -----------------
           C          0.359019824104    -0.066292038154    -2.464189401029
           C         -1.064141853896     0.401126188846    -2.170149285029
           H         -1.795076977896    -0.277185314154    -2.612754985029
           H         -1.248220151896     0.440050018846    -1.095566319029
           H         -1.237568412896     1.398039370846    -2.577994571029
           C          0.567345090104    -1.462503203154    -1.883107309029
           H          1.579411415104    -1.818635063154    -2.080982364029
           H          0.415466200104    -1.462431049154    -0.802798533029
           H         -0.133421437896    -2.174369316154    -2.321771317029
           C          1.354766666104     0.902750295846    -1.831935778029
           H          2.380891590104     0.589755673846    -2.030351566029
           H          1.220278542104     0.950289231846    -0.750375304029
           H          1.224870798104     1.909337552846    -2.232134511029
           C          0.578458559104    -0.106719260154    -3.974181808029
           H          0.435709442104     0.881354031846    -4.413983410029
           H          1.590191605104    -0.439144517154    -4.210757316029
           H         -0.123033164896    -0.793234889154    -4.450305908029
           C(Gh)     -0.359021637896     0.066330557846     2.464220365971
           C(Gh)      1.063790815104    -0.402635442154     2.170820824971
           H(Gh)      1.248230017104    -0.441964593154     1.096300358971
           H(Gh)      1.795224964104     0.275037385846     2.613556399971
           H(Gh)      1.236054482104    -1.399641484154     2.578941396971
           C(Gh)     -0.565418447896     1.462892083846     1.883389890971
           H(Gh)     -1.577381542896     1.819877530846     2.080237416971
           H(Gh)      0.135500150104     2.173963556846     2.323111658971
           H(Gh)     -0.412309231896     1.463088698846     0.803247535971
           C(Gh)     -0.579316128896     0.106506771846     3.974073993971
           H(Gh)     -1.590532283896     0.440783757846     4.210147181971
           H(Gh)      0.123196326104     0.791455803846     4.450912213971
           H(Gh)     -0.438753035896    -0.882013567154     4.413525731971
           C(Gh)     -1.355484355896    -0.901447102154     1.831073969971
           H(Gh)     -1.226558346896    -1.908422483154     2.230652941971
           H(Gh)     -2.381373452896    -0.587674246154     2.029461822971
           H(Gh)     -1.220779989896    -0.948421496154     0.749497307971

  Running in c1 symmetry.

  Nuclear repulsion =  199.354937351533835

  Charge       = 0
  Multiplicity = 1
  Electrons    = 42
  Nalpha       = 21
  Nbeta        = 21

  ==> Algorithm <==

  SCF Algorithm Type is DF.
  DIIS enabled.
  MOM disabled.
  Fractional occupation disabled.
  Guess Type is CORE.
  Energy threshold   = 1.00e-08
  Density threshold  = 1.00e-08
  Integral threshold = 0.00e+00

  ==> Primary Basis <==

  Basis Set: AUG-CC-PVDZ
    Number of shells: 210
    Number of basis function: 446
    Number of Cartesian functions: 466
    Spherical Harmonics?: true
    Max angular momentum: 2

  ==> Pre-Iterations <==

   -------------------------------------------------------
    Irrep   Nso     Nmo     Nalpha   Nbeta   Ndocc  Nsocc
   -------------------------------------------------------
     A        446     446       0       0       0       0
   -------------------------------------------------------
    Total     446     446      21      21      21       0
   -------------------------------------------------------

 OEINTS: Wrapper to libmints.
   by Justin Turney

   Calculation information:
      Number of atoms:                  34
      Number of AO shells:             210
      Number of SO shells:             210
      Number of primitives:            418
      Number of atomic orbitals:       466
      Number of basis functions:       446

      Number of irreps:                  1
      Number of functions per irrep: [ 446 ]

      Overlap, kinetic, potential, dipole, and quadrupole integrals
        stored in file 35.

  ==> Integral Setup <==

  ==> DFJK: Density-Fitted J/K Matrices <==

    J tasked:                  Yes
    K tasked:                  Yes
    wK tasked:                  No
    OpenMP threads:              8
    Integrals threads:           8
    Memory (MB):             10728
    Algorithm:                Core
    Integral Cache:           LOAD
    Schwarz Cutoff:          0E+00
    Fitting Condition:       1E-12

   => Auxiliary Basis Set <=

  Basis Set: aug-cc-pvdz-jkfit
    Number of shells: 568
    Number of basis function: 1628
    Number of Cartesian functions: 1850
    Spherical Harmonics?: true
    Max angular momentum: 3

  Minimum eigenvalue in the overlap matrix is 4.4518408470E-06.
  Using Symmetric Orthogonalization.
  SCF Guess: Core (One-Electron) Hamiltonian.

  Guess energy:  -162.54559194846038

  ==> Iterations <==

                        Total Energy        Delta E     RMS |[F,P]|

   @RHF iter   1:  -148.44808865145464   -1.48448e+02   1.50104e-02 
   @RHF iter   2:  -116.81185168631649    3.16362e+01   1.21050e-02 DIIS
   @RHF iter   3:  -191.98822835352163   -7.51764e+01   5.91992e-03 DIIS
   @RHF iter   4:  -195.45492598878403   -3.46670e+00   2.82754e-03 DIIS
   @RHF iter   5:  -196.29454168526840   -8.39616e-01   6.08129e-04 DIIS
   @RHF iter   6:  -196.35346362141323   -5.89219e-02   1.00786e-04 DIIS
   @RHF iter   7:  -196.35519805171540   -1.73443e-03   2.03721e-05 DIIS
   @RHF iter   8:  -196.35527550198421   -7.74503e-05   3.30881e-06 DIIS
   @RHF iter   9:  -196.35527788074640   -2.37876e-06   9.11956e-07 DIIS
   @RHF iter  10:  -196.35527800681129   -1.26065e-07   2.81118e-07 DIIS
   @RHF iter  11:  -196.35527801868827   -1.18770e-08   5.02057e-08 DIIS
   @RHF iter  12:  -196.35527801913682   -4.48551e-10   9.05346e-09 DIIS

  ==> Post-Iterations <==

	Orbital Energies (a.u.)
	-----------------------

	Doubly Occupied:                                                      

	   1A    -11.231301     2A    -11.211965     3A    -11.211864  
	   4A    -11.211863     5A    -11.211829     6A     -1.107808  
	   7A     -0.929792     8A     -0.929787     9A     -0.929680  
	  10A     -0.730308    11A     -0.611562    12A     -0.611559  
	  13A     -0.611116    14A     -0.552388    15A     -0.552379  
	  16A     -0.508411    17A     -0.508277    18A     -0.508275  
	  19A     -0.451770    20A     -0.451755    21A     -0.451641  

	Virtual:                                                              

	  22A      0.022330    23A      0.036982    24A      0.039036  
	  25A      0.039037    26A      0.051390    27A      0.054566  
	  28A      0.054566    29A      0.061131    30A      0.061134  
	  31A      0.069562    32A      0.074440    33A      0.074441  
	  34A      0.079879    35A      0.079881    36A      0.081320  
	  37A      0.087909    38A      0.096284    39A      0.096286  
	  40A      0.104669    41A      0.104910    42A      0.107465  
	  43A      0.115366    44A      0.115370    45A      0.124835  
	  46A      0.124842    47A      0.127106    48A      0.139759  
	  49A      0.139764    50A      0.145002    51A      0.156314  
	  52A      0.163277    53A      0.167819    54A      0.167827  
	  55A      0.173586    56A      0.173590    57A      0.178755  
	  58A      0.182073    59A      0.182076    60A      0.191118  
	  61A      0.191376    62A      0.191383    63A      0.197327  
	  64A      0.197336    65A      0.209262    66A      0.209268  
	  67A      0.211466    68A      0.214898    69A      0.214913  
	  70A      0.215447    71A      0.219864    72A      0.230977  
	  73A      0.230984    74A      0.231568    75A      0.240563  
	  76A      0.245584    77A      0.246161    78A      0.246178  
	  79A      0.252010    80A      0.252013    81A      0.253528  
	  82A      0.261293    83A      0.261307    84A      0.289199  
	  85A      0.297613    86A      0.317222    87A      0.317241  
	  88A      0.321484    89A      0.330525    90A      0.330528  
	  91A      0.347303    92A      0.347331    93A      0.362932  
	  94A      0.367877    95A      0.372885    96A      0.372893  
	  97A      0.394768    98A      0.394785    99A      0.397765  
	 100A      0.405686   101A      0.405693   102A      0.408490  
	 103A      0.408514   104A      0.420210   105A      0.423241  
	 106A      0.428929   107A      0.428934   108A      0.431546  
	 109A      0.448597   110A      0.449411   111A      0.449425  
	 112A      0.458165   113A      0.462809   114A      0.462839  
	 115A      0.470722   116A      0.470723   117A      0.475137  
	 118A      0.480878   119A      0.487122   120A      0.487135  
	 121A      0.487649   122A      0.498925   123A      0.498948  
	 124A      0.499974   125A      0.501611   126A      0.501618  
	 127A      0.515719   128A      0.519524   129A      0.519538  
	 130A      0.531318   131A      0.534244   132A      0.534255  
	 133A      0.559216   134A      0.562838   135A      0.562863  
	 136A      0.566529   137A      0.566540   138A      0.568235  
	 139A      0.578577   140A      0.578606   141A      0.597308  
	 142A      0.600314   143A      0.600333   144A      0.603537  
	 145A      0.608625   146A      0.608649   147A      0.609079  
	 148A      0.634200   149A      0.634237   150A      0.641128  
	 151A      0.642019   152A      0.653447   153A      0.653479  
	 154A      0.671177   155A      0.671199   156A      0.671232  
	 157A      0.682456   158A      0.685318   159A      0.685337  
	 160A      0.690419   161A      0.699209   162A      0.707736  
	 163A      0.709115   164A      0.712292   165A      0.712312  
	 166A      0.724706   167A      0.724751   168A      0.731720  
	 169A      0.736767   170A      0.736790   171A      0.739232  
	 172A      0.739246   173A      0.741880   174A      0.764013  
	 175A      0.764025   176A      0.768765   177A      0.781178  
	 178A      0.781205   179A      0.785551   180A      0.799018  
	 181A      0.799036   182A      0.802443   183A      0.818489  
	 184A      0.834271   185A      0.836740   186A      0.836798  
	 187A      0.838955   188A      0.838985   189A      0.842390  
	 190A      0.845091   191A      0.849696   192A      0.867620  
	 193A      0.867650   194A      0.872336   195A      0.878076  
	 196A      0.878109   197A      0.890477   198A      0.890482  
	 199A      0.891821   200A      0.903260   201A      0.903350  
	 202A      0.907695   203A      0.908352   204A      0.908381  
	 205A      0.924156   206A      0.924173   207A      0.941436  
	 208A      0.943642   209A      0.955001   210A      0.955049  
	 211A      0.961552   212A      0.961604   213A      0.970292  
	 214A      0.976917   215A      0.976952   216A      0.983474  
	 217A      0.983489   218A      0.986806   219A      0.986848  
	 220A      0.998150   221A      1.002029   222A      1.027896  
	 223A      1.030321   224A      1.030379   225A      1.045078  
	 226A      1.045136   227A      1.084403   228A      1.084427  
	 229A      1.093847   230A      1.097998   231A      1.103534  
	 232A      1.103574   233A      1.121118   234A      1.125134  
	 235A      1.125167   236A      1.144585   237A      1.144635  
	 238A      1.156028   239A      1.162107   240A      1.178780  
	 241A      1.178856   242A      1.180488   243A      1.190919  
	 244A      1.191005   245A      1.205537   246A      1.233789  
	 247A      1.233938   248A      1.238451   249A      1.238546  
	 250A      1.246189   251A      1.253770   252A      1.255945  
	 253A      1.256022   254A      1.306750   255A      1.306797  
	 256A      1.339349   257A      1.366654   258A      1.366671  
	 259A      1.386642   260A      1.386666   261A      1.393646  
	 262A      1.398821   263A      1.418087   264A      1.418106  
	 265A      1.447177   266A      1.465273   267A      1.465309  
	 268A      1.502200   269A      1.591387   270A      1.591506  
	 271A      1.618307   272A      1.645187   273A      1.645232  
	 274A      1.671444   275A      1.687715   276A      1.726329  
	 277A      1.726350   278A      1.755721   279A      1.755823  
	 280A      1.822126   281A      1.826506   282A      1.837988  
	 283A      1.838035   284A      1.897520   285A      1.897565  
	 286A      1.933942   287A      1.978823   288A      1.979698  
	 289A      1.979721   290A      1.991828   291A      2.046096  
	 292A      2.064179   293A      2.064216   294A      2.076542  
	 295A      2.076567   296A      2.096613   297A      2.101617  
	 298A      2.101632   299A      2.150115   300A      2.155695  
	 301A      2.155773   302A      2.162701   303A      2.187101  
	 304A      2.187159   305A      2.203205   306A      2.203231  
	 307A      2.206589   308A      2.232894   309A      2.236893  
	 310A      2.236952   311A      2.252090   312A      2.252140  
	 313A      2.267546   314A      2.280405   315A      2.289001  
	 316A      2.289028   317A      2.305801   318A      2.313734  
	 319A      2.313808   320A      2.327881   321A      2.327942  
	 322A      2.346243   323A      2.350327   324A      2.350356  
	 325A      2.371290   326A      2.371334   327A      2.372251  
	 328A      2.388115   329A      2.388174   330A      2.392700  
	 331A      2.415704   332A      2.415819   333A      2.420366  
	 334A      2.430755   335A      2.430794   336A      2.438421  
	 337A      2.459634   338A      2.463185   339A      2.463296  
	 340A      2.483962   341A      2.494512   342A      2.494569  
	 343A      2.523650   344A      2.523699   345A      2.524914  
	 346A      2.551153   347A      2.558118   348A      2.558169  
	 349A      2.573931   350A      2.574035   351A      2.595741  
	 352A      2.620049   353A      2.620258   354A      2.634757  
	 355A      2.634801   356A      2.635834   357A      2.651092  
	 358A      2.660654   359A      2.668325   360A      2.668401  
	 361A      2.674424   362A      2.674456   363A      2.689082  
	 364A      2.689125   365A      2.714682   366A      2.723055  
	 367A      2.723081   368A      2.764762   369A      2.789570  
	 370A      2.789630   371A      2.800935   372A      2.800963  
	 373A      2.826854   374A      2.843809   375A      2.880294  
	 376A      2.888005   377A      2.888014   378A      2.896602  
	 379A      2.927442   380A      2.927517   381A      2.953711  
	 382A      2.955382   383A      2.955418   384A      2.985332  
	 385A      2.985410   386A      2.986805   387A      3.014498  
	 388A      3.014569   389A      3.015511   390A      3.045344  
	 391A      3.045354   392A      3.057370   393A      3.097292  
	 394A      3.115501   395A      3.115519   396A      3.119083  
	 397A      3.182440   398A      3.213472   399A      3.213616  
	 400A      3.285626   401A      3.292158   402A      3.292225  
	 403A      3.309698   404A      3.386038   405A      3.426308  
	 406A      3.426400   407A      3.476250   408A      3.476266  
	 409A      3.497187   410A      3.503269   411A      3.503312  
	 412A      3.527114   413A      3.554320   414A      3.554370  
	 415A      3.600331   416A      3.600367   417A      3.660816  
	 418A      3.674518   419A      3.674586   420A      3.813900  
	 421A      3.856578   422A      3.856584   423A      4.018367  
	 424A      4.184934   425A      4.218366   426A      4.218431  
	 427A      4.579949   428A      4.648988   429A      4.649033  
	 430A      4.713436   431A      4.740327   432A      4.740394  
	 433A      4.848745   434A      5.128420   435A      5.133694  
	 436A      5.133717   437A      5.241368   438A      5.241417  
	 439A      5.251358   440A      5.251388   441A      5.335225  
	 442A     18.230864   443A     18.858488   444A     18.858534  
	 445A     18.870065   446A     19.109273  

	Final Occupation by Irrep:
	          A 
	DOCC [    21 ]

  Energy converged.

  @RHF Final Energy:  -196.35527801913682

   => Energetics <=

    Nuclear Repulsion Energy =            199.3549373515338345
    One-Electron Energy =                -658.3697841419170800
    Two-Electron Energy =                 262.6595687712465406
    DFT Exchange-Correlation Energy =       0.0000000000000000
    Empirical Dispersion Energy =           0.0000000000000000
    Total Energy =                       -196.3552780191366764



Properties will be evaluated at   0.000000,   0.000000,   0.000000 Bohr
  ==> Properties <==


Properties computed using the SCF density density matrix
  Nuclear Dipole Moment: (a.u.)
     X:    28.5012      Y:    -5.2648      Z:  -195.6266

  Electronic Dipole Moment: (a.u.)
     X:   -28.5013      Y:     5.2648      Z:   195.6275

  Dipole Moment: (a.u.)
     X:    -0.0001      Y:     0.0000      Z:     0.0009     Total:     0.0009

  Dipole Moment: (Debye)
     X:    -0.0003      Y:     0.0001      Z:     0.0022     Total:     0.0022


  Saving occupied orbitals to File 180.

  Saving SAPT 2-MONOMER_A file.

*** tstop() called on node125.bme.utexas.edu at Thu Oct  3 17:07:59 2013
Module time:
	user time   =     261.60 seconds =       4.36 minutes
	system time =       1.98 seconds =       0.03 minutes
	total time  =         36 seconds =       0.60 minutes
Total time:
	user time   =     755.72 seconds =      12.60 minutes
	system time =       8.79 seconds =       0.15 minutes
	total time  =        111 seconds =       1.85 minutes

  //>>>>>>>>>>>>>>>>>>>>>>>>>>>>>>>>>>>//
  //            Monomer B HF           //
  //<<<<<<<<<<<<<<<<<<<<<<<<<<<<<<<<<<<//


  No DF_BASIS_SCF auxiliary basis selected, defaulting to aug-cc-pvdz-jkfit


*** tstart() called on node125.bme.utexas.edu
*** at Thu Oct  3 17:08:00 2013


         ---------------------------------------------------------
                                   SCF
            by Justin Turney, Rob Parrish, and Andy Simmonett
                              RHF Reference
                        8 Threads,  15000 MiB Core
         ---------------------------------------------------------

  ==> Geometry <==

    Molecular point group: c1
    Full point group: C1

    Geometry (in Angstrom), charge = 0, multiplicity = 1:

       Center              X                  Y                   Z       
    ------------   -----------------  -----------------  -----------------
           C(Gh)      0.359019824104    -0.066292038154    -2.464189401029
           C(Gh)     -1.064141853896     0.401126188846    -2.170149285029
           H(Gh)     -1.795076977896    -0.277185314154    -2.612754985029
           H(Gh)     -1.248220151896     0.440050018846    -1.095566319029
           H(Gh)     -1.237568412896     1.398039370846    -2.577994571029
           C(Gh)      0.567345090104    -1.462503203154    -1.883107309029
           H(Gh)      1.579411415104    -1.818635063154    -2.080982364029
           H(Gh)      0.415466200104    -1.462431049154    -0.802798533029
           H(Gh)     -0.133421437896    -2.174369316154    -2.321771317029
           C(Gh)      1.354766666104     0.902750295846    -1.831935778029
           H(Gh)      2.380891590104     0.589755673846    -2.030351566029
           H(Gh)      1.220278542104     0.950289231846    -0.750375304029
           H(Gh)      1.224870798104     1.909337552846    -2.232134511029
           C(Gh)      0.578458559104    -0.106719260154    -3.974181808029
           H(Gh)      0.435709442104     0.881354031846    -4.413983410029
           H(Gh)      1.590191605104    -0.439144517154    -4.210757316029
           H(Gh)     -0.123033164896    -0.793234889154    -4.450305908029
           C         -0.359021637896     0.066330557846     2.464220365971
           C          1.063790815104    -0.402635442154     2.170820824971
           H          1.248230017104    -0.441964593154     1.096300358971
           H          1.795224964104     0.275037385846     2.613556399971
           H          1.236054482104    -1.399641484154     2.578941396971
           C         -0.565418447896     1.462892083846     1.883389890971
           H         -1.577381542896     1.819877530846     2.080237416971
           H          0.135500150104     2.173963556846     2.323111658971
           H         -0.412309231896     1.463088698846     0.803247535971
           C         -0.579316128896     0.106506771846     3.974073993971
           H         -1.590532283896     0.440783757846     4.210147181971
           H          0.123196326104     0.791455803846     4.450912213971
           H         -0.438753035896    -0.882013567154     4.413525731971
           C         -1.355484355896    -0.901447102154     1.831073969971
           H         -1.226558346896    -1.908422483154     2.230652941971
           H         -2.381373452896    -0.587674246154     2.029461822971
           H         -1.220779989896    -0.948421496154     0.749497307971

  Running in c1 symmetry.

  Nuclear repulsion =  199.354964757216493

  Charge       = 0
  Multiplicity = 1
  Electrons    = 42
  Nalpha       = 21
  Nbeta        = 21

  ==> Algorithm <==

  SCF Algorithm Type is DF.
  DIIS enabled.
  MOM disabled.
  Fractional occupation disabled.
  Guess Type is CORE.
  Energy threshold   = 1.00e-08
  Density threshold  = 1.00e-08
  Integral threshold = 0.00e+00

  ==> Primary Basis <==

  Basis Set: AUG-CC-PVDZ
    Number of shells: 210
    Number of basis function: 446
    Number of Cartesian functions: 466
    Spherical Harmonics?: true
    Max angular momentum: 2

  ==> Pre-Iterations <==

   -------------------------------------------------------
    Irrep   Nso     Nmo     Nalpha   Nbeta   Ndocc  Nsocc
   -------------------------------------------------------
     A        446     446       0       0       0       0
   -------------------------------------------------------
    Total     446     446      21      21      21       0
   -------------------------------------------------------

 OEINTS: Wrapper to libmints.
   by Justin Turney

   Calculation information:
      Number of atoms:                  34
      Number of AO shells:             210
      Number of SO shells:             210
      Number of primitives:            418
      Number of atomic orbitals:       466
      Number of basis functions:       446

      Number of irreps:                  1
      Number of functions per irrep: [ 446 ]

      Overlap, kinetic, potential, dipole, and quadrupole integrals
        stored in file 35.

  ==> Integral Setup <==

  ==> DFJK: Density-Fitted J/K Matrices <==

    J tasked:                  Yes
    K tasked:                  Yes
    wK tasked:                  No
    OpenMP threads:              8
    Integrals threads:           8
    Memory (MB):             10728
    Algorithm:                Core
    Integral Cache:           LOAD
    Schwarz Cutoff:          0E+00
    Fitting Condition:       1E-12

   => Auxiliary Basis Set <=

  Basis Set: aug-cc-pvdz-jkfit
    Number of shells: 568
    Number of basis function: 1628
    Number of Cartesian functions: 1850
    Spherical Harmonics?: true
    Max angular momentum: 3

  Minimum eigenvalue in the overlap matrix is 4.4518408470E-06.
  Using Symmetric Orthogonalization.
  SCF Guess: Core (One-Electron) Hamiltonian.

  Guess energy:  -162.54555139061213

  ==> Iterations <==

                        Total Energy        Delta E     RMS |[F,P]|

   @RHF iter   1:  -148.44814882239248   -1.48448e+02   1.50104e-02 
   @RHF iter   2:  -116.81076122427280    3.16374e+01   1.21053e-02 DIIS
   @RHF iter   3:  -191.98846887696200   -7.51777e+01   5.91977e-03 DIIS
   @RHF iter   4:  -195.45505151235554   -3.46658e+00   2.82736e-03 DIIS
   @RHF iter   5:  -196.29456146768260   -8.39510e-01   6.08016e-04 DIIS
   @RHF iter   6:  -196.35346380829733   -5.89023e-02   1.00779e-04 DIIS
   @RHF iter   7:  -196.35519796842621   -1.73416e-03   2.03703e-05 DIIS
   @RHF iter   8:  -196.35527540912042   -7.74407e-05   3.30708e-06 DIIS
   @RHF iter   9:  -196.35527778704548   -2.37793e-06   9.09497e-07 DIIS
   @RHF iter  10:  -196.35527791259588   -1.25550e-07   2.80387e-07 DIIS
   @RHF iter  11:  -196.35527792440533   -1.18094e-08   5.02189e-08 DIIS
   @RHF iter  12:  -196.35527792485314   -4.47812e-10   9.06221e-09 DIIS

  ==> Post-Iterations <==

	Orbital Energies (a.u.)
	-----------------------

	Doubly Occupied:                                                      

	   1A    -11.231300     2A    -11.211959     3A    -11.211865  
	   4A    -11.211864     5A    -11.211830     6A     -1.107808  
	   7A     -0.929787     8A     -0.929784     9A     -0.929689  
	  10A     -0.730308    11A     -0.611563    12A     -0.611561  
	  13A     -0.611114    14A     -0.552387    15A     -0.552382  
	  16A     -0.508410    17A     -0.508279    18A     -0.508275  
	  19A     -0.451761    20A     -0.451754    21A     -0.451649  

	Virtual:                                                              

	  22A      0.022330    23A      0.036982    24A      0.039037  
	  25A      0.039037    26A      0.051390    27A      0.054566  
	  28A      0.054566    29A      0.061131    30A      0.061134  
	  31A      0.069562    32A      0.074440    33A      0.074441  
	  34A      0.079879    35A      0.079881    36A      0.081320  
	  37A      0.087909    38A      0.096284    39A      0.096286  
	  40A      0.104665    41A      0.104915    42A      0.107464  
	  43A      0.115366    44A      0.115370    45A      0.124835  
	  46A      0.124843    47A      0.127106    48A      0.139760  
	  49A      0.139763    50A      0.145001    51A      0.156314  
	  52A      0.163276    53A      0.167819    54A      0.167827  
	  55A      0.173585    56A      0.173590    57A      0.178755  
	  58A      0.182073    59A      0.182076    60A      0.191119  
	  61A      0.191378    62A      0.191383    63A      0.197326  
	  64A      0.197337    65A      0.209262    66A      0.209268  
	  67A      0.211466    68A      0.214897    69A      0.214915  
	  70A      0.215447    71A      0.219866    72A      0.230978  
	  73A      0.230982    74A      0.231567    75A      0.240564  
	  76A      0.245584    77A      0.246160    78A      0.246179  
	  79A      0.252011    80A      0.252012    81A      0.253528  
	  82A      0.261293    83A      0.261307    84A      0.289199  
	  85A      0.297614    86A      0.317222    87A      0.317240  
	  88A      0.321486    89A      0.330525    90A      0.330527  
	  91A      0.347304    92A      0.347329    93A      0.362932  
	  94A      0.367878    95A      0.372886    96A      0.372893  
	  97A      0.394769    98A      0.394784    99A      0.397766  
	 100A      0.405685   101A      0.405691   102A      0.408493  
	 103A      0.408514   104A      0.420209   105A      0.423244  
	 106A      0.428928   107A      0.428934   108A      0.431544  
	 109A      0.448596   110A      0.449410   111A      0.449425  
	 112A      0.458165   113A      0.462810   114A      0.462836  
	 115A      0.470722   116A      0.470725   117A      0.475137  
	 118A      0.480877   119A      0.487122   120A      0.487137  
	 121A      0.487650   122A      0.498924   123A      0.498946  
	 124A      0.499974   125A      0.501615   126A      0.501617  
	 127A      0.515719   128A      0.519524   129A      0.519539  
	 130A      0.531319   131A      0.534241   132A      0.534257  
	 133A      0.559215   134A      0.562836   135A      0.562866  
	 136A      0.566531   137A      0.566539   138A      0.568237  
	 139A      0.578577   140A      0.578603   141A      0.597308  
	 142A      0.600316   143A      0.600333   144A      0.603539  
	 145A      0.608624   146A      0.608645   147A      0.609079  
	 148A      0.634199   149A      0.634236   150A      0.641125  
	 151A      0.642023   152A      0.653447   153A      0.653478  
	 154A      0.671175   155A      0.671200   156A      0.671233  
	 157A      0.682458   158A      0.685318   159A      0.685338  
	 160A      0.690420   161A      0.699211   162A      0.707731  
	 163A      0.709120   164A      0.712291   165A      0.712315  
	 166A      0.724705   167A      0.724750   168A      0.731723  
	 169A      0.736767   170A      0.736787   171A      0.739234  
	 172A      0.739246   173A      0.741883   174A      0.764014  
	 175A      0.764028   176A      0.768765   177A      0.781178  
	 178A      0.781202   179A      0.785553   180A      0.799022  
	 181A      0.799032   182A      0.802443   183A      0.818488  
	 184A      0.834272   185A      0.836736   186A      0.836804  
	 187A      0.838949   188A      0.838990   189A      0.842388  
	 190A      0.845090   191A      0.849693   192A      0.867620  
	 193A      0.867652   194A      0.872334   195A      0.878076  
	 196A      0.878107   197A      0.890475   198A      0.890478  
	 199A      0.891819   200A      0.903258   201A      0.903345  
	 202A      0.907696   203A      0.908357   204A      0.908386  
	 205A      0.924156   206A      0.924172   207A      0.941426  
	 208A      0.943648   209A      0.954999   210A      0.955048  
	 211A      0.961554   212A      0.961608   213A      0.970290  
	 214A      0.976921   215A      0.976949   216A      0.983477  
	 217A      0.983493   218A      0.986809   219A      0.986846  
	 220A      0.998155   221A      1.002031   222A      1.027897  
	 223A      1.030321   224A      1.030376   225A      1.045080  
	 226A      1.045137   227A      1.084396   228A      1.084440  
	 229A      1.093853   230A      1.097993   231A      1.103523  
	 232A      1.103572   233A      1.121119   234A      1.125132  
	 235A      1.125171   236A      1.144582   237A      1.144635  
	 238A      1.156028   239A      1.162113   240A      1.178775  
	 241A      1.178860   242A      1.180476   243A      1.190921  
	 244A      1.191001   245A      1.205536   246A      1.233790  
	 247A      1.233943   248A      1.238447   249A      1.238556  
	 250A      1.246189   251A      1.253771   252A      1.255948  
	 253A      1.256016   254A      1.306744   255A      1.306800  
	 256A      1.339349   257A      1.366654   258A      1.366672  
	 259A      1.386637   260A      1.386681   261A      1.393653  
	 262A      1.398821   263A      1.418089   264A      1.418107  
	 265A      1.447176   266A      1.465268   267A      1.465309  
	 268A      1.502200   269A      1.591390   270A      1.591501  
	 271A      1.618303   272A      1.645178   273A      1.645240  
	 274A      1.671447   275A      1.687719   276A      1.726324  
	 277A      1.726357   278A      1.755724   279A      1.755822  
	 280A      1.822124   281A      1.826511   282A      1.837993  
	 283A      1.838030   284A      1.897507   285A      1.897570  
	 286A      1.933942   287A      1.978824   288A      1.979684  
	 289A      1.979736   290A      1.991830   291A      2.046102  
	 292A      2.064177   293A      2.064219   294A      2.076535  
	 295A      2.076564   296A      2.096613   297A      2.101618  
	 298A      2.101639   299A      2.150118   300A      2.155691  
	 301A      2.155773   302A      2.162723   303A      2.187088  
	 304A      2.187161   305A      2.203197   306A      2.203233  
	 307A      2.206588   308A      2.232886   309A      2.236881  
	 310A      2.236952   311A      2.252096   312A      2.252144  
	 313A      2.267551   314A      2.280403   315A      2.288990  
	 316A      2.289046   317A      2.305799   318A      2.313732  
	 319A      2.313813   320A      2.327883   321A      2.327941  
	 322A      2.346236   323A      2.350324   324A      2.350353  
	 325A      2.371279   326A      2.371340   327A      2.372240  
	 328A      2.388121   329A      2.388159   330A      2.392710  
	 331A      2.415702   332A      2.415805   333A      2.420371  
	 334A      2.430760   335A      2.430797   336A      2.438413  
	 337A      2.459639   338A      2.463177   339A      2.463304  
	 340A      2.483964   341A      2.494515   342A      2.494571  
	 343A      2.523669   344A      2.523684   345A      2.524910  
	 346A      2.551156   347A      2.558117   348A      2.558175  
	 349A      2.573933   350A      2.574027   351A      2.595746  
	 352A      2.620048   353A      2.620255   354A      2.634754  
	 355A      2.634815   356A      2.635850   357A      2.651089  
	 358A      2.660638   359A      2.668309   360A      2.668404  
	 361A      2.674440   362A      2.674465   363A      2.689079  
	 364A      2.689132   365A      2.714677   366A      2.723062  
	 367A      2.723074   368A      2.764752   369A      2.789575  
	 370A      2.789624   371A      2.800921   372A      2.800973  
	 373A      2.826853   374A      2.843804   375A      2.880298  
	 376A      2.888005   377A      2.888016   378A      2.896604  
	 379A      2.927467   380A      2.927506   381A      2.953714  
	 382A      2.955383   383A      2.955429   384A      2.985330  
	 385A      2.985417   386A      2.986792   387A      3.014491  
	 388A      3.014567   389A      3.015528   390A      3.045352  
	 391A      3.045367   392A      3.057376   393A      3.097283  
	 394A      3.115486   395A      3.115525   396A      3.119086  
	 397A      3.182464   398A      3.213463   399A      3.213615  
	 400A      3.285621   401A      3.292169   402A      3.292223  
	 403A      3.309696   404A      3.386032   405A      3.426330  
	 406A      3.426381   407A      3.476221   408A      3.476281  
	 409A      3.497188   410A      3.503288   411A      3.503330  
	 412A      3.527086   413A      3.554311   414A      3.554385  
	 415A      3.600321   416A      3.600376   417A      3.660811  
	 418A      3.674546   419A      3.674577   420A      3.813824  
	 421A      3.856552   422A      3.856617   423A      4.018353  
	 424A      4.184948   425A      4.218307   426A      4.218469  
	 427A      4.579945   428A      4.648967   429A      4.649035  
	 430A      4.713412   431A      4.740349   432A      4.740438  
	 433A      4.848772   434A      5.128426   435A      5.133678  
	 436A      5.133697   437A      5.241326   438A      5.241350  
	 439A      5.251379   440A      5.251399   441A      5.335297  
	 442A     18.230864   443A     18.858471   444A     18.858550  
	 445A     18.870041   446A     19.109320  

	Final Occupation by Irrep:
	          A 
	DOCC [    21 ]

  Energy converged.

  @RHF Final Energy:  -196.35527792485314

   => Energetics <=

    Nuclear Repulsion Energy =            199.3549647572164929
    One-Electron Energy =                -658.3698384725236110
    Two-Electron Energy =                 262.6595957904533520
    DFT Exchange-Correlation Energy =       0.0000000000000000
    Empirical Dispersion Energy =           0.0000000000000000
    Total Energy =                       -196.3552779248537377



Properties will be evaluated at   0.000000,   0.000000,   0.000000 Bohr
  ==> Properties <==


Properties computed using the SCF density density matrix
  Nuclear Dipole Moment: (a.u.)
     X:   -28.5012      Y:     5.2647      Z:   195.6265

  Electronic Dipole Moment: (a.u.)
     X:    28.5013      Y:    -5.2647      Z:  -195.6273

  Dipole Moment: (a.u.)
     X:     0.0001      Y:    -0.0000      Z:    -0.0008     Total:     0.0009

  Dipole Moment: (Debye)
     X:     0.0003      Y:    -0.0000      Z:    -0.0021     Total:     0.0022


  Saving occupied orbitals to File 180.

  Saving SAPT 2-MONOMER_B file.

*** tstop() called on node125.bme.utexas.edu at Thu Oct  3 17:08:37 2013
Module time:
	user time   =     261.70 seconds =       4.36 minutes
	system time =       2.04 seconds =       0.03 minutes
	total time  =         37 seconds =       0.62 minutes
Total time:
	user time   =    1017.44 seconds =      16.96 minutes
	system time =      10.83 seconds =       0.18 minutes
	total time  =        149 seconds =       2.48 minutes
  No DF_BASIS_SAPT auxiliary basis selected, defaulting to aug-cc-pvdz-ri

  //>>>>>>>>>>>>>>>>>>>>>>>>>>>>>>>>>>>//
  //               SAPT2+              //
  //<<<<<<<<<<<<<<<<<<<<<<<<<<<<<<<<<<<//


*** tstart() called on node125.bme.utexas.edu
*** at Thu Oct  3 17:08:37 2013

        SAPT2+  
    Ed Hohenstein
     6 June 2009

      Orbital Information
  --------------------------
    NSO        =       446
    NMO        =       446
    NRI        =      1272
    NOCC A     =        21
    NOCC B     =        21
    FOCC A     =         5
    FOCC B     =         5
    NVIR A     =       425
    NVIR B     =       425

    Estimated memory usage: 3749.8 MB

    Elst10,r            =    -0.002433812472 H
    Exch10 (S^2)        =     0.009005110861 H
    Exch10              =     0.009052818403 H
    Ind20,r (A<-B)      =    -0.000638144388 H
    Ind20,r (B<-A)      =    -0.000638155359 H
    Ind20,r             =    -0.001276299747 H
    Exch-Ind20,r (A<-B) =     0.000511015065 H
    Exch-Ind20,r (B<-A) =     0.000511029973 H
    Exch-Ind20,r        =     0.001022045038 H
    Disp20              =    -0.008873998616 H
    Exch-Disp20         =     0.000833982254 H
    Elst12,r            =    -0.000558037794 H
    Exch11              =     0.000262974537 H
    Exch12              =     0.001064723672 H
    Ind22               =    -0.000271526443 H
    Disp21              =     0.000494551654 H
    Disp22 (SDQ)        =     0.000132915685 H

    (i =   1 of  16)       1840 seconds
    (i =   2 of  16)       3642 seconds
    (i =   3 of  16)       5498 seconds
    (i =   4 of  16)       7315 seconds
    (i =   5 of  16)       9127 seconds
    (i =   6 of  16)      10928 seconds
    (i =   7 of  16)      12763 seconds
    (i =   8 of  16)      14581 seconds
    (i =   9 of  16)      16387 seconds
    (i =  10 of  16)      18182 seconds
    (i =  11 of  16)      19996 seconds
    (i =  12 of  16)      21819 seconds
    (i =  13 of  16)      23627 seconds
    (i =  14 of  16)      25417 seconds
    (i =  15 of  16)      27211 seconds
    (i =  16 of  16)      29021 seconds

    Disp220 (T)         =    -0.000636186380 H

    (i =   1 of  16)       1802 seconds
    (i =   2 of  16)       3594 seconds
    (i =   3 of  16)       5391 seconds
    (i =   4 of  16)       7189 seconds
    (i =   5 of  16)       8984 seconds
    (i =   6 of  16)      10790 seconds
    (i =   7 of  16)      12609 seconds
    (i =   8 of  16)      14409 seconds
    (i =   9 of  16)      16224 seconds
    (i =  10 of  16)      18064 seconds
    (i =  11 of  16)      19864 seconds
    (i =  12 of  16)      21694 seconds
    (i =  13 of  16)      23501 seconds
    (i =  14 of  16)      25333 seconds
    (i =  15 of  16)      27136 seconds
    (i =  16 of  16)      28953 seconds

    Disp202 (T)         =    -0.000636186222 H

    Disp22 (T)          =    -0.001272372602 H

    SAPT Results  
  -----------------------------------------------------------------------
    Electrostatics          -2.99185027 mH      -1.87741446 kcal mol^-1
      Elst10,r              -2.43381247 mH      -1.52724045 kcal mol^-1
      Elst12,r              -0.55803779 mH      -0.35017402 kcal mol^-1

    Exchange                10.38051661 mH       6.51387279 kcal mol^-1
      Exch10                 9.05281840 mH       5.68072955 kcal mol^-1
      Exch10(S^2)            9.00511086 mH       5.65079261 kcal mol^-1
      Exch11(S^2)            0.26297454 mH       0.16501902 kcal mol^-1
      Exch12(S^2)            1.06472367 mH       0.66812422 kcal mol^-1

    Induction               -1.00123710 mH      -0.62828579 kcal mol^-1
      Ind20,r               -1.27629975 mH      -0.80089022 kcal mol^-1
      Ind22                 -0.27152644 mH      -0.17038542 kcal mol^-1
      Exch-Ind20,r           1.02204504 mH       0.64134297 kcal mol^-1
      Exch-Ind22             0.21743501 mH       0.13644254 kcal mol^-1
      delta HF,r (2)        -0.69289097 mH      -0.43479566 kcal mol^-1

    Dispersion              -8.68492163 mH      -5.44987083 kcal mol^-1
      Disp20                -8.87399862 mH      -5.56851843 kcal mol^-1
      Disp21                 0.49455165 mH       0.31033586 kcal mol^-1
      Disp22 (SDQ)           0.13291569 mH       0.08340586 kcal mol^-1
      Disp22 (T)            -1.27237260 mH      -0.79842590 kcal mol^-1
      Exch-Disp20            0.83398225 mH       0.52333179 kcal mol^-1

    Total HF                 5.67186026 mH       3.55914619 kcal mol^-1
    Total SAPT0             -2.36815611 mH      -1.48604045 kcal mol^-1
    Total SAPT2             -1.65258712 mH      -1.03701412 kcal mol^-1
    Total SAPT2+            -2.29749238 mH      -1.44169830 kcal mol^-1

*** tstop() called on node125.bme.utexas.edu at Fri Oct  4 10:31:58 2013
Module time:
	user time   =  373928.62 seconds =    6232.14 minutes
	system time =     921.75 seconds =      15.36 minutes
	total time  =      62601 seconds =    1043.35 minutes
Total time:
	user time   =  374946.06 seconds =    6249.10 minutes
	system time =     932.58 seconds =      15.54 minutes
	total time  =      62750 seconds =    1045.83 minutes

*** PSI4 exiting successfully. Buy a developer a beer!
