    -----------------------------------------------------------------------
          PSI4: An Open-Source Ab Initio Electronic Structure Package
                              PSI 4.0.0-beta4 Driver

    J. M. Turney, A. C. Simmonett, R. M. Parrish, E. G. Hohenstein,
    F. A. Evangelista, J. T. Fermann, B. J. Mintz, L. A. Burns, J. J. Wilke,
    M. L. Abrams, N. J. Russ, M. L. Leininger, C. L. Janssen, E. T. Seidl,
    W. D. Allen, H. F. Schaefer, R. A. King, E. F. Valeev, C. D. Sherrill,
    and T. D. Crawford, WIREs Comput. Mol. Sci., (2011) (doi: 10.1002/wcms.93)

                         Additional Contributions by
    A. E. DePrince, M. Saitow, U. Bozkaya, A. Yu. Sokolov
    -----------------------------------------------------------------------

    Process ID:  22950
    PSI4DATADIR: /home/xzhu216/psi4/psi4-install/share/psi

    Using LocalCommunicator (Number of processes = 1)

    Memory level set to 256.000 MB

  ==> Input File <==

--------------------------------------------------------------------------
#psi4
#
memory 7 gb

molecule Neopentane_Neopentane {
0 1
    C     0.382522206    -0.070606972     0.766895817
    C    -1.040639472     0.396811255     1.060935933
    H    -1.771574596    -0.281500248     0.618330233
    H    -1.224717770     0.435735085     2.135518899
    H    -1.214066031     1.393724437     0.653090647
    C     0.590847472    -1.466818137     1.347977909
    H     1.602913797    -1.822949997     1.150102854
    H     0.438968582    -1.466745983     2.428286685
    H    -0.109919056    -2.178684250     0.909313901
    C     1.378269048     0.898435362     1.399149440
    H     2.404393972     0.585440740     1.200733652
    H     1.243780924     0.945974298     2.480709914
    H     1.248373180     1.905022619     0.998950707
    C     0.601960941    -0.111034194    -0.743096590
    H     0.459211824     0.877039098    -1.182898192
    H     1.613693987    -0.443459451    -0.979672098
    H    -0.099530783    -0.797549823    -1.219220690
--
0 1
    C    -0.285430100     0.052763314     5.351503977
    C     1.137382353    -0.416202686     5.058104436
    H     1.321821555    -0.455531837     3.983583970
    H     1.868816502     0.261470142     5.500840011
    H     1.309646020    -1.413208728     5.466225008
    C    -0.491826910     1.449324840     4.770673502
    H    -1.503790005     1.806310287     4.967521028
    H     0.209091688     2.160396313     5.210395270
    H    -0.338717694     1.449521455     3.690531147
    C    -0.505724591     0.092939528     6.861357605
    H    -1.516940746     0.427216514     7.097430793
    H     0.196787864     0.777888560     7.338195825
    H    -0.365161498    -0.895580811     7.300809343
    C    -1.281892818    -0.915014346     4.718357581
    H    -1.152966809    -1.921989727     5.117936553
    H    -2.307781915    -0.601241490     4.916745434
    H    -1.147188452    -0.961988740     3.636780919
units angstrom
no_reorient  #important for SAPT in psi4, default
symmetry c1  #important for SAPT in psi4, default
}

set {
basis aug-cc-pVDZ
scf_type DF
freeze_core True
}
energy('sapt2+')
--------------------------------------------------------------------------

  Memory set to   7.000 GiB by Python script.

  //>>>>>>>>>>>>>>>>>>>>>>>>>>>>>>>>>>>//
  //              Dimer HF             //
  //<<<<<<<<<<<<<<<<<<<<<<<<<<<<<<<<<<<//


  No DF_BASIS_SCF auxiliary basis selected, defaulting to aug-cc-pvdz-jkfit


*** tstart() called on node100.bme.utexas.edu
*** at Mon Feb 17 10:21:41 2014


         ---------------------------------------------------------
                                   SCF
            by Justin Turney, Rob Parrish, and Andy Simmonett
                              RHF Reference
                        4 Threads,   7000 MiB Core
         ---------------------------------------------------------

  ==> Geometry <==

    Molecular point group: c1
    Full point group: C1

    Geometry (in Angstrom), charge = 0, multiplicity = 1:

       Center              X                  Y                   Z       
    ------------   -----------------  -----------------  -----------------
           C          0.333975246104    -0.061665883154    -2.292288597529
           C         -1.089186431896     0.405752343846    -1.998248481529
           H         -1.820121555896    -0.272559159154    -2.440854181529
           H         -1.273264729896     0.444676173846    -0.923665515529
           H         -1.262612990896     1.402665525846    -2.406093767529
           C          0.542300512104    -1.457877048154    -1.711206505529
           H          1.554366837104    -1.814008908154    -1.909081560529
           H          0.390421622104    -1.457804894154    -0.630897729529
           H         -0.158466015896    -2.169743161154    -2.149870513529
           C          1.329722088104     0.907376450846    -1.660034974529
           H          2.355847012104     0.594381828846    -1.858450762529
           H          1.195233964104     0.954915386846    -0.578474500529
           H          1.199826220104     1.913963707846    -2.060233707529
           C          0.553413981104    -0.102093105154    -3.802281004529
           H          0.410664864104     0.885980186846    -4.242082606529
           H          1.565147027104    -0.434518362154    -4.038856512529
           H         -0.148077742896    -0.788608734154    -4.278405104529
           C         -0.333977059896     0.061704402846     2.292319562471
           C          1.088835393104    -0.407261597154     1.998920021471
           H          1.273274595104    -0.446590748154     0.924399555471
           H          1.820269542104     0.270411230846     2.441655596471
           H          1.261099060104    -1.404267639154     2.407040593471
           C         -0.540373869896     1.458265928846     1.711489087471
           H         -1.552336964896     1.815251375846     1.908336613471
           H          0.160544728104     2.169337401846     2.151210855471
           H         -0.387264653896     1.458462543846     0.631346732471
           C         -0.554271550896     0.101880616846     3.802173190471
           H         -1.565487705896     0.436157602846     4.038246378471
           H          0.148240904104     0.786829648846     4.279011410471
           H         -0.413708457896    -0.886639722154     4.241624928471
           C         -1.330439777896    -0.906073257154     1.659173166471
           H         -1.201513768896    -1.913048638154     2.058752138471
           H         -2.356328874896    -0.592300401154     1.857561019471
           H         -1.195735411896    -0.953047651154     0.577596504471

  Running in c1 symmetry.

  Nuclear repulsion =  594.874622767104484

  Charge       = 0
  Multiplicity = 1
  Electrons    = 84
  Nalpha       = 42
  Nbeta        = 42

  ==> Algorithm <==

  SCF Algorithm Type is DF.
  DIIS enabled.
  MOM disabled.
  Fractional occupation disabled.
  Guess Type is CORE.
  Energy threshold   = 1.00e-08
  Density threshold  = 1.00e-08
  Integral threshold = 0.00e+00

  ==> Primary Basis <==

  Basis Set: AUG-CC-PVDZ
    Number of shells: 210
    Number of basis function: 446
    Number of Cartesian functions: 466
    Spherical Harmonics?: true
    Max angular momentum: 2

  ==> Pre-Iterations <==

   -------------------------------------------------------
    Irrep   Nso     Nmo     Nalpha   Nbeta   Ndocc  Nsocc
   -------------------------------------------------------
     A        446     446       0       0       0       0
   -------------------------------------------------------
    Total     446     446      42      42      42       0
   -------------------------------------------------------

 OEINTS: Wrapper to libmints.
   by Justin Turney

   Calculation information:
      Number of atoms:                  34
      Number of AO shells:             210
      Number of SO shells:             210
      Number of primitives:            418
      Number of atomic orbitals:       466
      Number of basis functions:       446

      Number of irreps:                  1
      Number of functions per irrep: [ 446 ]

      Overlap, kinetic, potential, dipole, and quadrupole integrals
        stored in file 35.

  ==> Integral Setup <==

  ==> DFJK: Density-Fitted J/K Matrices <==

    J tasked:                  Yes
    K tasked:                  Yes
    wK tasked:                  No
    OpenMP threads:              4
    Integrals threads:           4
    Memory (MB):              5006
    Algorithm:                Core
    Integral Cache:           SAVE
    Schwarz Cutoff:          0E+00
    Fitting Condition:       1E-12

   => Auxiliary Basis Set <=

  Basis Set: aug-cc-pvdz-jkfit
    Number of shells: 568
    Number of basis function: 1628
    Number of Cartesian functions: 1850
    Spherical Harmonics?: true
    Max angular momentum: 3

  Minimum eigenvalue in the overlap matrix is 3.9058594871E-06.
  Using Symmetric Orthogonalization.
  SCF Guess: Core (One-Electron) Hamiltonian.

  Guess energy:  -330.07775850107714

  ==> Iterations <==

                        Total Energy        Delta E     RMS |[F,P]|

   @RHF iter   1:  -274.83597872314044   -2.74836e+02   2.34212e-02 
   @RHF iter   2:  -203.52872008483519    7.13073e+01   1.71116e-02 DIIS
   @RHF iter   3:  -329.46970379719698   -1.25941e+02   1.70207e-02 DIIS
   @RHF iter   4:  -385.84058627933234   -5.63709e+01   7.58164e-03 DIIS
   @RHF iter   5:  -391.51518995214008   -5.67460e+00   2.81047e-03 DIIS
   @RHF iter   6:  -392.53757880973444   -1.02239e+00   9.40628e-04 DIIS
   @RHF iter   7:  -392.68786267096687   -1.50284e-01   2.15450e-04 DIIS
   @RHF iter   8:  -392.69646862662114   -8.60596e-03   4.72688e-05 DIIS
   @RHF iter   9:  -392.69686827346368   -3.99647e-04   1.85293e-05 DIIS
   @RHF iter  10:  -392.69693225140691   -6.39779e-05   5.16250e-06 DIIS
   @RHF iter  11:  -392.69693760067480   -5.34927e-06   1.35350e-06 DIIS
   @RHF iter  12:  -392.69693796258093   -3.61906e-07   3.26930e-07 DIIS
   @RHF iter  13:  -392.69693798442040   -2.18395e-08   9.21023e-08 DIIS
   @RHF iter  14:  -392.69693798556659   -1.14619e-09   2.18855e-08 DIIS
   @RHF iter  15:  -392.69693798564867   -8.20819e-11   3.85745e-09 DIIS

  ==> Post-Iterations <==

	Orbital Energies (a.u.)
	-----------------------

	Doubly Occupied:                                                      

	   1A    -11.231442     2A    -11.231441     3A    -11.211523  
	   4A    -11.211518     5A    -11.210903     6A    -11.210902  
	   7A    -11.210899     8A    -11.210897     9A    -11.210872  
	  10A    -11.210866    11A     -1.110184    12A     -1.106677  
	  13A     -0.933678    14A     -0.933668    15A     -0.933158  
	  16A     -0.927711    17A     -0.927707    18A     -0.927300  
	  19A     -0.736466    20A     -0.726420    21A     -0.629216  
	  22A     -0.612976    23A     -0.612967    24A     -0.611779  
	  25A     -0.611769    26A     -0.596645    27A     -0.564837  
	  28A     -0.564816    29A     -0.545164    30A     -0.545159  
	  31A     -0.514587    32A     -0.514567    33A     -0.509453  
	  34A     -0.507865    35A     -0.501016    36A     -0.500984  
	  37A     -0.467059    38A     -0.452829    39A     -0.452825  
	  40A     -0.450641    41A     -0.450637    42A     -0.432365  

	Virtual:                                                              

	  43A      0.034149    44A      0.040052    45A      0.044085  
	  46A      0.044086    47A      0.054971    48A      0.057397  
	  49A      0.057397    50A      0.061787    51A      0.061790  
	  52A      0.074328    53A      0.076200    54A      0.076201  
	  55A      0.081037    56A      0.081038    57A      0.087979  
	  58A      0.099330    59A      0.099331    60A      0.102156  
	  61A      0.105438    62A      0.105616    63A      0.124347  
	  64A      0.124348    65A      0.129878    66A      0.129883  
	  67A      0.140149    68A      0.145240    69A      0.156990  
	  70A      0.158030    71A      0.168027    72A      0.168028  
	  73A      0.170943    74A      0.170947    75A      0.173157  
	  76A      0.180228    77A      0.180232    78A      0.184749  
	  79A      0.184750    80A      0.188606    81A      0.194280  
	  82A      0.194286    83A      0.207634    84A      0.207636  
	  85A      0.211987    86A      0.217611    87A      0.217612  
	  88A      0.218294    89A      0.221680    90A      0.221692  
	  91A      0.224386    92A      0.236429    93A      0.236435  
	  94A      0.242476    95A      0.243651    96A      0.244736  
	  97A      0.244745    98A      0.247360    99A      0.257797  
	 100A      0.258804   101A      0.258807   102A      0.276110  
	 103A      0.276133   104A      0.291646   105A      0.291670  
	 106A      0.293371   107A      0.307030   108A      0.312256  
	 109A      0.321063   110A      0.340782   111A      0.340796  
	 112A      0.351190   113A      0.371929   114A      0.371968  
	 115A      0.372529   116A      0.372533   117A      0.390640  
	 118A      0.390667   119A      0.402844   120A      0.403138  
	 121A      0.403146   122A      0.404368   123A      0.408754  
	 124A      0.408756   125A      0.425587   126A      0.425598  
	 127A      0.426687   128A      0.427924   129A      0.427925  
	 130A      0.439551   131A      0.448962   132A      0.448998  
	 133A      0.456726   134A      0.473104   135A      0.478208  
	 136A      0.479267   137A      0.479272   138A      0.484573  
	 139A      0.488798   140A      0.488822   141A      0.490681  
	 142A      0.495385   143A      0.495681   144A      0.495683  
	 145A      0.499586   146A      0.506971   147A      0.506982  
	 148A      0.529673   149A      0.532725   150A      0.533437  
	 151A      0.533445   152A      0.535128   153A      0.535138  
	 154A      0.550156   155A      0.551675   156A      0.551703  
	 157A      0.557199   158A      0.557206   159A      0.578512  
	 160A      0.578532   161A      0.580534   162A      0.586324  
	 163A      0.594056   164A      0.594105   165A      0.601436  
	 166A      0.601446   167A      0.604980   168A      0.604992  
	 169A      0.611227   170A      0.612052   171A      0.612059  
	 172A      0.626444   173A      0.639341   174A      0.656907  
	 175A      0.659308   176A      0.659313   177A      0.663099  
	 178A      0.663112   179A      0.685269   180A      0.686853  
	 181A      0.688286   182A      0.688291   183A      0.690216  
	 184A      0.694943   185A      0.700593   186A      0.700607  
	 187A      0.703397   188A      0.703439   189A      0.703455  
	 190A      0.703835   191A      0.718306   192A      0.719127  
	 193A      0.729937   194A      0.729977   195A      0.747455  
	 196A      0.747461   197A      0.768571   198A      0.777045  
	 199A      0.777415   200A      0.777416   201A      0.777664  
	 202A      0.777667   203A      0.795215   204A      0.799603  
	 205A      0.815274   206A      0.826400   207A      0.831618  
	 208A      0.831643   209A      0.845083   210A      0.845086  
	 211A      0.853775   212A      0.853787   213A      0.859553  
	 214A      0.859560   215A      0.860764   216A      0.869720  
	 217A      0.870102   218A      0.875380   219A      0.875430  
	 220A      0.893188   221A      0.893222   222A      0.894723  
	 223A      0.903257   224A      0.903261   225A      0.905642  
	 226A      0.905667   227A      0.920447   228A      0.920450  
	 229A      0.927739   230A      0.927743   231A      0.935313  
	 232A      0.943246   233A      0.954377   234A      0.969896  
	 235A      0.971054   236A      0.971068   237A      0.972880  
	 238A      0.973061   239A      0.990670   240A      0.992677  
	 241A      0.992685   242A      0.999842   243A      1.005498  
	 244A      1.005575   245A      1.037257   246A      1.037307  
	 247A      1.063201   248A      1.063257   249A      1.071673  
	 250A      1.071688   251A      1.080155   252A      1.090137  
	 253A      1.115872   254A      1.134164   255A      1.134205  
	 256A      1.146387   257A      1.159253   258A      1.159290  
	 259A      1.161480   260A      1.172884   261A      1.172895  
	 262A      1.173923   263A      1.187924   264A      1.188000  
	 265A      1.201871   266A      1.201920   267A      1.207806  
	 268A      1.273544   269A      1.277298   270A      1.277322  
	 271A      1.292282   272A      1.292307   273A      1.365166  
	 274A      1.365218   275A      1.382531   276A      1.382940  
	 277A      1.388279   278A      1.401474   279A      1.401511  
	 280A      1.429430   281A      1.446050   282A      1.447504  
	 283A      1.447509   284A      1.479971   285A      1.482135  
	 286A      1.482180   287A      1.494134   288A      1.559760  
	 289A      1.559826   290A      1.572679   291A      1.572690  
	 292A      1.609687   293A      1.637731   294A      1.656351  
	 295A      1.656372   296A      1.685172   297A      1.712733  
	 298A      1.712759   299A      1.720241   300A      1.720276  
	 301A      1.736007   302A      1.736013   303A      1.756236  
	 304A      1.756259   305A      1.770551   306A      1.781813  
	 307A      1.814916   308A      1.814936   309A      1.828859  
	 310A      1.831812   311A      1.839765   312A      1.839797  
	 313A      1.840121   314A      1.870600   315A      1.876128  
	 316A      1.876129   317A      1.937553   318A      1.937591  
	 319A      1.946710   320A      1.946733   321A      1.968369  
	 322A      1.971416   323A      1.990769   324A      2.002222  
	 325A      2.002264   326A      2.015455   327A      2.015492  
	 328A      2.032860   329A      2.059137   330A      2.059147  
	 331A      2.078692   332A      2.085309   333A      2.085372  
	 334A      2.094006   335A      2.107268   336A      2.107273  
	 337A      2.107749   338A      2.107766   339A      2.120683  
	 340A      2.144409   341A      2.144424   342A      2.163276  
	 343A      2.169169   344A      2.169360   345A      2.172045  
	 346A      2.208810   347A      2.208896   348A      2.217400  
	 349A      2.217415   350A      2.236208   351A      2.245949  
	 352A      2.245986   353A      2.264257   354A      2.264262  
	 355A      2.267886   356A      2.311121   357A      2.323425  
	 358A      2.336447   359A      2.336462   360A      2.364506  
	 361A      2.371707   362A      2.371744   363A      2.373901  
	 364A      2.389723   365A      2.389791   366A      2.397035  
	 367A      2.397166   368A      2.397192   369A      2.432687  
	 370A      2.432753   371A      2.442474   372A      2.479140  
	 373A      2.479163   374A      2.483566   375A      2.518307  
	 376A      2.518584   377A      2.526996   378A      2.527096  
	 379A      2.540388   380A      2.553439   381A      2.553504  
	 382A      2.594555   383A      2.601620   384A      2.601650  
	 385A      2.604821   386A      2.607948   387A      2.613218  
	 388A      2.613250   389A      2.639006   390A      2.639144  
	 391A      2.655802   392A      2.661069   393A      2.664780  
	 394A      2.664797   395A      2.670707   396A      2.670776  
	 397A      2.690897   398A      2.707489   399A      2.707514  
	 400A      2.717643   401A      2.723606   402A      2.723624  
	 403A      2.732372   404A      2.839571   405A      2.839612  
	 406A      2.850340   407A      2.874565   408A      2.874608  
	 409A      2.888301   410A      2.914524   411A      2.914545  
	 412A      2.928492   413A      2.948178   414A      2.948289  
	 415A      2.960930   416A      2.975552   417A      3.009184  
	 418A      3.009224   419A      3.012847   420A      3.012880  
	 421A      3.027008   422A      3.052931   423A      3.052949  
	 424A      3.053350   425A      3.053398   426A      3.069644  
	 427A      3.102325   428A      3.117109   429A      3.124161  
	 430A      3.134969   431A      3.234941   432A      3.234994  
	 433A      3.247632   434A      3.247837   435A      3.341294  
	 436A      3.354608   437A      3.391117   438A      3.391186  
	 439A      3.508774   440A      3.508971   441A      3.707341  
	 442A      3.707553   443A      3.752668   444A      3.806659  
	 445A      3.807155   446A      3.914896  

	Final Occupation by Irrep:
	          A 
	DOCC [    42 ]

  Energy converged.

  @RHF Final Energy:  -392.69693798564867

   => Energetics <=

    Nuclear Repulsion Energy =            594.8746227671044835
    One-Electron Energy =               -1709.0143489105689696
    Two-Electron Energy =                 721.4427881578166080
    DFT Exchange-Correlation Energy =       0.0000000000000000
    Empirical Dispersion Energy =           0.0000000000000000
    Total Energy =                       -392.6969379856478781



Properties will be evaluated at   0.000000,   0.000000,   0.000000 Bohr
  ==> Properties <==


Properties computed using the SCF density density matrix
  Nuclear Dipole Moment: (a.u.)
     X:     0.0000      Y:    -0.0001      Z:    -0.0002

  Electronic Dipole Moment: (a.u.)
     X:    -0.0000      Y:     0.0001      Z:     0.0002

  Dipole Moment: (a.u.)
     X:    -0.0000      Y:     0.0000      Z:     0.0000     Total:     0.0000

  Dipole Moment: (Debye)
     X:    -0.0000      Y:     0.0000      Z:     0.0001     Total:     0.0001


  Saving occupied orbitals to File 180.

  Saving SAPT 2-DIMER file.

*** tstop() called on node100.bme.utexas.edu at Mon Feb 17 10:24:15 2014
Module time:
	user time   =     551.96 seconds =       9.20 minutes
	system time =       7.79 seconds =       0.13 minutes
	total time  =        154 seconds =       2.57 minutes
Total time:
	user time   =     551.96 seconds =       9.20 minutes
	system time =       7.79 seconds =       0.13 minutes
	total time  =        154 seconds =       2.57 minutes

  //>>>>>>>>>>>>>>>>>>>>>>>>>>>>>>>>>>>//
  //            Monomer A HF           //
  //<<<<<<<<<<<<<<<<<<<<<<<<<<<<<<<<<<<//


  No DF_BASIS_SCF auxiliary basis selected, defaulting to aug-cc-pvdz-jkfit


*** tstart() called on node100.bme.utexas.edu
*** at Mon Feb 17 10:24:15 2014


         ---------------------------------------------------------
                                   SCF
            by Justin Turney, Rob Parrish, and Andy Simmonett
                              RHF Reference
                        4 Threads,   7000 MiB Core
         ---------------------------------------------------------

  ==> Geometry <==

    Molecular point group: c1
    Full point group: C1

    Geometry (in Angstrom), charge = 0, multiplicity = 1:

       Center              X                  Y                   Z       
    ------------   -----------------  -----------------  -----------------
           C          0.333975246104    -0.061665883154    -2.292288597529
           C         -1.089186431896     0.405752343846    -1.998248481529
           H         -1.820121555896    -0.272559159154    -2.440854181529
           H         -1.273264729896     0.444676173846    -0.923665515529
           H         -1.262612990896     1.402665525846    -2.406093767529
           C          0.542300512104    -1.457877048154    -1.711206505529
           H          1.554366837104    -1.814008908154    -1.909081560529
           H          0.390421622104    -1.457804894154    -0.630897729529
           H         -0.158466015896    -2.169743161154    -2.149870513529
           C          1.329722088104     0.907376450846    -1.660034974529
           H          2.355847012104     0.594381828846    -1.858450762529
           H          1.195233964104     0.954915386846    -0.578474500529
           H          1.199826220104     1.913963707846    -2.060233707529
           C          0.553413981104    -0.102093105154    -3.802281004529
           H          0.410664864104     0.885980186846    -4.242082606529
           H          1.565147027104    -0.434518362154    -4.038856512529
           H         -0.148077742896    -0.788608734154    -4.278405104529
           C(Gh)     -0.333977059896     0.061704402846     2.292319562471
           C(Gh)      1.088835393104    -0.407261597154     1.998920021471
           H(Gh)      1.273274595104    -0.446590748154     0.924399555471
           H(Gh)      1.820269542104     0.270411230846     2.441655596471
           H(Gh)      1.261099060104    -1.404267639154     2.407040593471
           C(Gh)     -0.540373869896     1.458265928846     1.711489087471
           H(Gh)     -1.552336964896     1.815251375846     1.908336613471
           H(Gh)      0.160544728104     2.169337401846     2.151210855471
           H(Gh)     -0.387264653896     1.458462543846     0.631346732471
           C(Gh)     -0.554271550896     0.101880616846     3.802173190471
           H(Gh)     -1.565487705896     0.436157602846     4.038246378471
           H(Gh)      0.148240904104     0.786829648846     4.279011410471
           H(Gh)     -0.413708457896    -0.886639722154     4.241624928471
           C(Gh)     -1.330439777896    -0.906073257154     1.659173166471
           H(Gh)     -1.201513768896    -1.913048638154     2.058752138471
           H(Gh)     -2.356328874896    -0.592300401154     1.857561019471
           H(Gh)     -1.195735411896    -0.953047651154     0.577596504471

  Running in c1 symmetry.

  Nuclear repulsion =  199.354937351533778

  Charge       = 0
  Multiplicity = 1
  Electrons    = 42
  Nalpha       = 21
  Nbeta        = 21

  ==> Algorithm <==

  SCF Algorithm Type is DF.
  DIIS enabled.
  MOM disabled.
  Fractional occupation disabled.
  Guess Type is CORE.
  Energy threshold   = 1.00e-08
  Density threshold  = 1.00e-08
  Integral threshold = 0.00e+00

  ==> Primary Basis <==

  Basis Set: AUG-CC-PVDZ
    Number of shells: 210
    Number of basis function: 446
    Number of Cartesian functions: 466
    Spherical Harmonics?: true
    Max angular momentum: 2

  ==> Pre-Iterations <==

   -------------------------------------------------------
    Irrep   Nso     Nmo     Nalpha   Nbeta   Ndocc  Nsocc
   -------------------------------------------------------
     A        446     446       0       0       0       0
   -------------------------------------------------------
    Total     446     446      21      21      21       0
   -------------------------------------------------------

 OEINTS: Wrapper to libmints.
   by Justin Turney

   Calculation information:
      Number of atoms:                  34
      Number of AO shells:             210
      Number of SO shells:             210
      Number of primitives:            418
      Number of atomic orbitals:       466
      Number of basis functions:       446

      Number of irreps:                  1
      Number of functions per irrep: [ 446 ]

      Overlap, kinetic, potential, dipole, and quadrupole integrals
        stored in file 35.

  ==> Integral Setup <==

  ==> DFJK: Density-Fitted J/K Matrices <==

    J tasked:                  Yes
    K tasked:                  Yes
    wK tasked:                  No
    OpenMP threads:              4
    Integrals threads:           4
    Memory (MB):              5006
    Algorithm:                Core
    Integral Cache:           LOAD
    Schwarz Cutoff:          0E+00
    Fitting Condition:       1E-12

   => Auxiliary Basis Set <=

  Basis Set: aug-cc-pvdz-jkfit
    Number of shells: 568
    Number of basis function: 1628
    Number of Cartesian functions: 1850
    Spherical Harmonics?: true
    Max angular momentum: 3

  Minimum eigenvalue in the overlap matrix is 3.9058594867E-06.
  Using Symmetric Orthogonalization.
  SCF Guess: Core (One-Electron) Hamiltonian.

  Guess energy:  -162.55967509774322

  ==> Iterations <==

                        Total Energy        Delta E     RMS |[F,P]|

   @RHF iter   1:  -148.38496169856782   -1.48385e+02   1.50517e-02 
   @RHF iter   2:  -117.42591023899203    3.09591e+01   1.20355e-02 DIIS
   @RHF iter   3:  -191.89537373749872   -7.44695e+01   5.97749e-03 DIIS
   @RHF iter   4:  -195.41085461634796   -3.51548e+00   2.89124e-03 DIIS
   @RHF iter   5:  -196.28742781899578   -8.76573e-01   6.49644e-04 DIIS
   @RHF iter   6:  -196.35358747955578   -6.61597e-02   1.02776e-04 DIIS
   @RHF iter   7:  -196.35542678419498   -1.83930e-03   2.08531e-05 DIIS
   @RHF iter   8:  -196.35550820991503   -8.14257e-05   3.41831e-06 DIIS
   @RHF iter   9:  -196.35551074741593   -2.53750e-06   9.15894e-07 DIIS
   @RHF iter  10:  -196.35551087663944   -1.29224e-07   2.84701e-07 DIIS
   @RHF iter  11:  -196.35551088875965   -1.21202e-08   4.99781e-08 DIIS
   @RHF iter  12:  -196.35551088920536   -4.45709e-10   8.99183e-09 DIIS

  ==> Post-Iterations <==

	Orbital Energies (a.u.)
	-----------------------

	Doubly Occupied:                                                      

	   1A    -11.231314     2A    -11.211947     3A    -11.211784  
	   4A    -11.211782     5A    -11.211749     6A     -1.107802  
	   7A     -0.929785     8A     -0.929780     9A     -0.929669  
	  10A     -0.730301    11A     -0.611559    12A     -0.611555  
	  13A     -0.611103    14A     -0.552380    15A     -0.552371  
	  16A     -0.508425    17A     -0.508264    18A     -0.508262  
	  19A     -0.451761    20A     -0.451746    21A     -0.451625  

	Virtual:                                                              

	  22A      0.022770    23A      0.037081    24A      0.039183  
	  25A      0.039183    26A      0.052028    27A      0.055113  
	  28A      0.055113    29A      0.060891    30A      0.060894  
	  31A      0.071314    32A      0.075372    33A      0.075373  
	  34A      0.080656    35A      0.080658    36A      0.083104  
	  37A      0.087705    38A      0.098111    39A      0.098113  
	  40A      0.102884    41A      0.105475    42A      0.107708  
	  43A      0.116702    44A      0.116705    45A      0.125754  
	  46A      0.125758    47A      0.128893    48A      0.141442  
	  49A      0.141445    50A      0.147328    51A      0.157654  
	  52A      0.166108    53A      0.166117    54A      0.166299  
	  55A      0.173549    56A      0.173555    57A      0.177323  
	  58A      0.184006    59A      0.184009    60A      0.189571  
	  61A      0.189575    62A      0.195193    63A      0.199011  
	  64A      0.199025    65A      0.210812    66A      0.211620  
	  67A      0.211625    68A      0.212735    69A      0.217404  
	  70A      0.217411    71A      0.220912    72A      0.230879  
	  73A      0.230884    74A      0.236352    75A      0.241694  
	  76A      0.247021    77A      0.247036    78A      0.250316  
	  79A      0.254002    80A      0.254007    81A      0.254186  
	  82A      0.270498    83A      0.270513    84A      0.294454  
	  85A      0.301658    86A      0.318827    87A      0.318839  
	  88A      0.325559    89A      0.332065    90A      0.332066  
	  91A      0.352022    92A      0.352045    93A      0.371616  
	  94A      0.371626    95A      0.372434    96A      0.379317  
	  97A      0.397989    98A      0.398009    99A      0.399549  
	 100A      0.406137   101A      0.406145   102A      0.417413  
	 103A      0.417438   104A      0.423183   105A      0.430282  
	 106A      0.430294   107A      0.431117   108A      0.442148  
	 109A      0.451084   110A      0.451104   111A      0.452237  
	 112A      0.459859   113A      0.467207   114A      0.467233  
	 115A      0.475151   116A      0.475155   117A      0.479399  
	 118A      0.482412   119A      0.489055   120A      0.489066  
	 121A      0.491638   122A      0.497942   123A      0.501292  
	 124A      0.501301   125A      0.514398   126A      0.514419  
	 127A      0.519893   128A      0.529060   129A      0.529097  
	 130A      0.539864   131A      0.540005   132A      0.540014  
	 133A      0.562744   134A      0.562778   135A      0.570306  
	 136A      0.570333   137A      0.574390   138A      0.575377  
	 139A      0.583134   140A      0.583157   141A      0.595122  
	 142A      0.605160   143A      0.605212   144A      0.606961  
	 145A      0.615758   146A      0.615785   147A      0.626128  
	 148A      0.641034   149A      0.641069   150A      0.652315  
	 151A      0.657055   152A      0.657087   153A      0.657202  
	 154A      0.679921   155A      0.679942   156A      0.685258  
	 157A      0.687171   158A      0.687242   159A      0.691020  
	 160A      0.693771   161A      0.697186   162A      0.710002  
	 163A      0.716913   164A      0.716947   165A      0.717180  
	 166A      0.731474   167A      0.731500   168A      0.736290  
	 169A      0.745672   170A      0.745683   171A      0.751848  
	 172A      0.751861   173A      0.752672   174A      0.777672  
	 175A      0.777706   176A      0.785624   177A      0.788682  
	 178A      0.788689   179A      0.795526   180A      0.810159  
	 181A      0.810167   182A      0.817402   183A      0.819314  
	 184A      0.835092   185A      0.836213   186A      0.836259  
	 187A      0.854972   188A      0.859773   189A      0.859789  
	 190A      0.869334   191A      0.874156   192A      0.876146  
	 193A      0.877392   194A      0.877408   195A      0.890449  
	 196A      0.890484   197A      0.898312   198A      0.898396  
	 199A      0.907598   200A      0.910287   201A      0.910311  
	 202A      0.915632   203A      0.915677   204A      0.925754  
	 205A      0.925813   206A      0.937841   207A      0.946729  
	 208A      0.949383   209A      0.961754   210A      0.961798  
	 211A      0.970927   212A      0.970980   213A      0.982053  
	 214A      0.982074   215A      0.983493   216A      0.994246  
	 217A      0.994285   218A      1.001045   219A      1.008413  
	 220A      1.008459   221A      1.016041   222A      1.035945  
	 223A      1.036007   224A      1.039338   225A      1.054986  
	 226A      1.055032   227A      1.109628   228A      1.109688  
	 229A      1.114154   230A      1.117257   231A      1.117287  
	 232A      1.133380   233A      1.140033   234A      1.140049  
	 235A      1.155752   236A      1.156701   237A      1.168585  
	 238A      1.168639   239A      1.184484   240A      1.194675  
	 241A      1.195179   242A      1.195186   243A      1.215768  
	 244A      1.215826   245A      1.219886   246A      1.228063  
	 247A      1.228158   248A      1.246195   249A      1.247099  
	 250A      1.247166   251A      1.260220   252A      1.272716  
	 253A      1.272806   254A      1.333851   255A      1.333882  
	 256A      1.344837   257A      1.371920   258A      1.371959  
	 259A      1.406946   260A      1.406990   261A      1.413622  
	 262A      1.427845   263A      1.427869   264A      1.429626  
	 265A      1.471219   266A      1.477707   267A      1.477751  
	 268A      1.489306   269A      1.620878   270A      1.620943  
	 271A      1.665112   272A      1.677295   273A      1.677370  
	 274A      1.699284   275A      1.726693   276A      1.726951  
	 277A      1.726977   278A      1.784005   279A      1.784088  
	 280A      1.826710   281A      1.842874   282A      1.863212  
	 283A      1.863274   284A      1.923129   285A      1.923191  
	 286A      1.966762   287A      1.978424   288A      1.995929  
	 289A      1.995943   290A      2.007021   291A      2.047689  
	 292A      2.072701   293A      2.072742   294A      2.103156  
	 295A      2.103168   296A      2.110757   297A      2.110861  
	 298A      2.118690   299A      2.145281   300A      2.151170  
	 301A      2.151249   302A      2.165089   303A      2.195928  
	 304A      2.195941   305A      2.226718   306A      2.226810  
	 307A      2.232368   308A      2.235195   309A      2.251255  
	 310A      2.251354   311A      2.271734   312A      2.271776  
	 313A      2.273686   314A      2.285974   315A      2.286015  
	 316A      2.318908   317A      2.318927   318A      2.323636  
	 319A      2.324573   320A      2.335089   321A      2.335179  
	 322A      2.356039   323A      2.356076   324A      2.363022  
	 325A      2.380042   326A      2.382861   327A      2.382911  
	 328A      2.398739   329A      2.398766   330A      2.416761  
	 331A      2.431822   332A      2.431896   333A      2.434018  
	 334A      2.457861   335A      2.457950   336A      2.478426  
	 337A      2.478568   338A      2.478847   339A      2.486558  
	 340A      2.515450   341A      2.515458   342A      2.517643  
	 343A      2.520695   344A      2.532304   345A      2.532324  
	 346A      2.567906   347A      2.567981   348A      2.587484  
	 349A      2.597674   350A      2.597762   351A      2.617908  
	 352A      2.617971   353A      2.627599   354A      2.640425  
	 355A      2.642909   356A      2.654728   357A      2.654870  
	 358A      2.660393   359A      2.660430   360A      2.663309  
	 361A      2.693910   362A      2.693926   363A      2.710327  
	 364A      2.710361   365A      2.744311   366A      2.744373  
	 367A      2.746957   368A      2.775718   369A      2.822416  
	 370A      2.822478   371A      2.834147   372A      2.848703  
	 373A      2.848748   374A      2.877377   375A      2.893507  
	 376A      2.910099   377A      2.910139   378A      2.931445  
	 379A      2.937082   380A      2.937156   381A      2.962902  
	 382A      2.991946   383A      2.992054   384A      3.006751  
	 385A      3.006806   386A      3.016711   387A      3.044771  
	 388A      3.044792   389A      3.054583   390A      3.056512  
	 391A      3.056635   392A      3.075308   393A      3.090162  
	 394A      3.126240   395A      3.179342   396A      3.179390  
	 397A      3.221084   398A      3.221121   399A      3.281925  
	 400A      3.300454   401A      3.323136   402A      3.323163  
	 403A      3.388148   404A      3.392956   405A      3.423529  
	 406A      3.423645   407A      3.494321   408A      3.494334  
	 409A      3.515757   410A      3.515849   411A      3.528917  
	 412A      3.557337   413A      3.567672   414A      3.567733  
	 415A      3.667134   416A      3.667161   417A      3.751252  
	 418A      3.764924   419A      3.765041   420A      3.839950  
	 421A      3.886448   422A      3.886484   423A      4.033779  
	 424A      4.272039   425A      4.388183   426A      4.388420  
	 427A      4.586446   428A      4.680438   429A      4.680617  
	 430A      4.712197   431A      4.749690   432A      4.749770  
	 433A      4.859079   434A      5.128767   435A      5.138458  
	 436A      5.138486   437A      5.245198   438A      5.245248  
	 439A      5.256450   440A      5.256474   441A      5.345374  
	 442A     18.239512   443A     18.874665   444A     18.920704  
	 445A     18.920851   446A     19.150875  

	Final Occupation by Irrep:
	          A 
	DOCC [    21 ]

  Energy converged.

  @RHF Final Energy:  -196.35551088920536

   => Energetics <=

    Nuclear Repulsion Energy =            199.3549373515337777
    One-Electron Energy =                -658.3709855692860629
    Two-Electron Energy =                 262.6605373285458427
    DFT Exchange-Correlation Energy =       0.0000000000000000
    Empirical Dispersion Energy =           0.0000000000000000
    Total Energy =                       -196.3555108892064709



Properties will be evaluated at   0.000000,   0.000000,   0.000000 Bohr
  ==> Properties <==


Properties computed using the SCF density density matrix
  Nuclear Dipole Moment: (a.u.)
     X:    26.5135      Y:    -4.8976      Z:  -181.9831

  Electronic Dipole Moment: (a.u.)
     X:   -26.5136      Y:     4.8976      Z:   181.9840

  Dipole Moment: (a.u.)
     X:    -0.0001      Y:     0.0000      Z:     0.0008     Total:     0.0008

  Dipole Moment: (Debye)
     X:    -0.0003      Y:     0.0001      Z:     0.0021     Total:     0.0021


  Saving occupied orbitals to File 180.

  Saving SAPT 2-MONOMER_A file.

*** tstop() called on node100.bme.utexas.edu at Mon Feb 17 10:25:38 2014
Module time:
	user time   =     305.10 seconds =       5.08 minutes
	system time =       2.70 seconds =       0.05 minutes
	total time  =         83 seconds =       1.38 minutes
Total time:
	user time   =     857.08 seconds =      14.28 minutes
	system time =      10.49 seconds =       0.17 minutes
	total time  =        237 seconds =       3.95 minutes

  //>>>>>>>>>>>>>>>>>>>>>>>>>>>>>>>>>>>//
  //            Monomer B HF           //
  //<<<<<<<<<<<<<<<<<<<<<<<<<<<<<<<<<<<//


  No DF_BASIS_SCF auxiliary basis selected, defaulting to aug-cc-pvdz-jkfit


*** tstart() called on node100.bme.utexas.edu
*** at Mon Feb 17 10:25:38 2014


         ---------------------------------------------------------
                                   SCF
            by Justin Turney, Rob Parrish, and Andy Simmonett
                              RHF Reference
                        4 Threads,   7000 MiB Core
         ---------------------------------------------------------

  ==> Geometry <==

    Molecular point group: c1
    Full point group: C1

    Geometry (in Angstrom), charge = 0, multiplicity = 1:

       Center              X                  Y                   Z       
    ------------   -----------------  -----------------  -----------------
           C(Gh)      0.333975246104    -0.061665883154    -2.292288597529
           C(Gh)     -1.089186431896     0.405752343846    -1.998248481529
           H(Gh)     -1.820121555896    -0.272559159154    -2.440854181529
           H(Gh)     -1.273264729896     0.444676173846    -0.923665515529
           H(Gh)     -1.262612990896     1.402665525846    -2.406093767529
           C(Gh)      0.542300512104    -1.457877048154    -1.711206505529
           H(Gh)      1.554366837104    -1.814008908154    -1.909081560529
           H(Gh)      0.390421622104    -1.457804894154    -0.630897729529
           H(Gh)     -0.158466015896    -2.169743161154    -2.149870513529
           C(Gh)      1.329722088104     0.907376450846    -1.660034974529
           H(Gh)      2.355847012104     0.594381828846    -1.858450762529
           H(Gh)      1.195233964104     0.954915386846    -0.578474500529
           H(Gh)      1.199826220104     1.913963707846    -2.060233707529
           C(Gh)      0.553413981104    -0.102093105154    -3.802281004529
           H(Gh)      0.410664864104     0.885980186846    -4.242082606529
           H(Gh)      1.565147027104    -0.434518362154    -4.038856512529
           H(Gh)     -0.148077742896    -0.788608734154    -4.278405104529
           C         -0.333977059896     0.061704402846     2.292319562471
           C          1.088835393104    -0.407261597154     1.998920021471
           H          1.273274595104    -0.446590748154     0.924399555471
           H          1.820269542104     0.270411230846     2.441655596471
           H          1.261099060104    -1.404267639154     2.407040593471
           C         -0.540373869896     1.458265928846     1.711489087471
           H         -1.552336964896     1.815251375846     1.908336613471
           H          0.160544728104     2.169337401846     2.151210855471
           H         -0.387264653896     1.458462543846     0.631346732471
           C         -0.554271550896     0.101880616846     3.802173190471
           H         -1.565487705896     0.436157602846     4.038246378471
           H          0.148240904104     0.786829648846     4.279011410471
           H         -0.413708457896    -0.886639722154     4.241624928471
           C         -1.330439777896    -0.906073257154     1.659173166471
           H         -1.201513768896    -1.913048638154     2.058752138471
           H         -2.356328874896    -0.592300401154     1.857561019471
           H         -1.195735411896    -0.953047651154     0.577596504471

  Running in c1 symmetry.

  Nuclear repulsion =  199.354964757216464

  Charge       = 0
  Multiplicity = 1
  Electrons    = 42
  Nalpha       = 21
  Nbeta        = 21

  ==> Algorithm <==

  SCF Algorithm Type is DF.
  DIIS enabled.
  MOM disabled.
  Fractional occupation disabled.
  Guess Type is CORE.
  Energy threshold   = 1.00e-08
  Density threshold  = 1.00e-08
  Integral threshold = 0.00e+00

  ==> Primary Basis <==

  Basis Set: AUG-CC-PVDZ
    Number of shells: 210
    Number of basis function: 446
    Number of Cartesian functions: 466
    Spherical Harmonics?: true
    Max angular momentum: 2

  ==> Pre-Iterations <==

   -------------------------------------------------------
    Irrep   Nso     Nmo     Nalpha   Nbeta   Ndocc  Nsocc
   -------------------------------------------------------
     A        446     446       0       0       0       0
   -------------------------------------------------------
    Total     446     446      21      21      21       0
   -------------------------------------------------------

 OEINTS: Wrapper to libmints.
   by Justin Turney

   Calculation information:
      Number of atoms:                  34
      Number of AO shells:             210
      Number of SO shells:             210
      Number of primitives:            418
      Number of atomic orbitals:       466
      Number of basis functions:       446

      Number of irreps:                  1
      Number of functions per irrep: [ 446 ]

      Overlap, kinetic, potential, dipole, and quadrupole integrals
        stored in file 35.

  ==> Integral Setup <==

  ==> DFJK: Density-Fitted J/K Matrices <==

    J tasked:                  Yes
    K tasked:                  Yes
    wK tasked:                  No
    OpenMP threads:              4
    Integrals threads:           4
    Memory (MB):              5006
    Algorithm:                Core
    Integral Cache:           LOAD
    Schwarz Cutoff:          0E+00
    Fitting Condition:       1E-12

   => Auxiliary Basis Set <=

  Basis Set: aug-cc-pvdz-jkfit
    Number of shells: 568
    Number of basis function: 1628
    Number of Cartesian functions: 1850
    Spherical Harmonics?: true
    Max angular momentum: 3

  Minimum eigenvalue in the overlap matrix is 3.9058594867E-06.
  Using Symmetric Orthogonalization.
  SCF Guess: Core (One-Electron) Hamiltonian.

  Guess energy:  -162.55963476571753

  ==> Iterations <==

                        Total Energy        Delta E     RMS |[F,P]|

   @RHF iter   1:  -148.38502158119587   -1.48385e+02   1.50517e-02 
   @RHF iter   2:  -117.42508908340125    3.09599e+01   1.20357e-02 DIIS
   @RHF iter   3:  -191.89553108943704   -7.44704e+01   5.97739e-03 DIIS
   @RHF iter   4:  -195.41093820983593   -3.51541e+00   2.89112e-03 DIIS
   @RHF iter   5:  -196.28744163655614   -8.76503e-01   6.49569e-04 DIIS
   @RHF iter   6:  -196.35358758635795   -6.61459e-02   1.02772e-04 DIIS
   @RHF iter   7:  -196.35542670459898   -1.83912e-03   2.08518e-05 DIIS
   @RHF iter   8:  -196.35550812416761   -8.14196e-05   3.41676e-06 DIIS
   @RHF iter   9:  -196.35551066098623   -2.53682e-06   9.13425e-07 DIIS
   @RHF iter  10:  -196.35551078971201   -1.28726e-07   2.83818e-07 DIIS
   @RHF iter  11:  -196.35551080174804   -1.20360e-08   4.99909e-08 DIIS
   @RHF iter  12:  -196.35551080219335   -4.45311e-10   9.00088e-09 DIIS

  ==> Post-Iterations <==

	Orbital Energies (a.u.)
	-----------------------

	Doubly Occupied:                                                      

	   1A    -11.231314     2A    -11.211942     3A    -11.211785  
	   4A    -11.211784     5A    -11.211751     6A     -1.107802  
	   7A     -0.929780     8A     -0.929777     9A     -0.929677  
	  10A     -0.730301    11A     -0.611559    12A     -0.611557  
	  13A     -0.611101    14A     -0.552379    15A     -0.552374  
	  16A     -0.508424    17A     -0.508266    18A     -0.508262  
	  19A     -0.451752    20A     -0.451744    21A     -0.451634  

	Virtual:                                                              

	  22A      0.022771    23A      0.037080    24A      0.039183  
	  25A      0.039183    26A      0.052028    27A      0.055113  
	  28A      0.055113    29A      0.060891    30A      0.060894  
	  31A      0.071314    32A      0.075372    33A      0.075372  
	  34A      0.080656    35A      0.080658    36A      0.083105  
	  37A      0.087705    38A      0.098111    39A      0.098113  
	  40A      0.102884    41A      0.105475    42A      0.107708  
	  43A      0.116702    44A      0.116706    45A      0.125753  
	  46A      0.125759    47A      0.128894    48A      0.141443  
	  49A      0.141444    50A      0.147328    51A      0.157653  
	  52A      0.166108    53A      0.166117    54A      0.166298  
	  55A      0.173549    56A      0.173554    57A      0.177324  
	  58A      0.184006    59A      0.184009    60A      0.189572  
	  61A      0.189575    62A      0.195193    63A      0.199012  
	  64A      0.199026    65A      0.210812    66A      0.211621  
	  67A      0.211625    68A      0.212735    69A      0.217403  
	  70A      0.217411    71A      0.220913    72A      0.230881  
	  73A      0.230883    74A      0.236351    75A      0.241695  
	  76A      0.247020    77A      0.247037    78A      0.250317  
	  79A      0.254003    80A      0.254006    81A      0.254185  
	  82A      0.270498    83A      0.270512    84A      0.294454  
	  85A      0.301658    86A      0.318828    87A      0.318837  
	  88A      0.325561    89A      0.332062    90A      0.332068  
	  91A      0.352023    92A      0.352044    93A      0.371616  
	  94A      0.371627    95A      0.372433    96A      0.379319  
	  97A      0.397990    98A      0.398008    99A      0.399550  
	 100A      0.406139   101A      0.406142   102A      0.417413  
	 103A      0.417439   104A      0.423184   105A      0.430283  
	 106A      0.430294   107A      0.431117   108A      0.442147  
	 109A      0.451081   110A      0.451104   111A      0.452237  
	 112A      0.459858   113A      0.467208   114A      0.467229  
	 115A      0.475149   116A      0.475158   117A      0.479397  
	 118A      0.482413   119A      0.489054   120A      0.489069  
	 121A      0.491639   122A      0.497942   123A      0.501294  
	 124A      0.501299   125A      0.514398   126A      0.514419  
	 127A      0.519894   128A      0.529059   129A      0.529098  
	 130A      0.539866   131A      0.540000   132A      0.540015  
	 133A      0.562743   134A      0.562780   135A      0.570309  
	 136A      0.570331   137A      0.574389   138A      0.575380  
	 139A      0.583133   140A      0.583156   141A      0.595126  
	 142A      0.605160   143A      0.605207   144A      0.606960  
	 145A      0.615760   146A      0.615783   147A      0.626130  
	 148A      0.641033   149A      0.641069   150A      0.652316  
	 151A      0.657056   152A      0.657085   153A      0.657202  
	 154A      0.679920   155A      0.679941   156A      0.685260  
	 157A      0.687171   158A      0.687243   159A      0.691021  
	 160A      0.693775   161A      0.697189   162A      0.710001  
	 163A      0.716913   164A      0.716949   165A      0.717179  
	 166A      0.731472   167A      0.731503   168A      0.736293  
	 169A      0.745672   170A      0.745680   171A      0.751845  
	 172A      0.751864   173A      0.752673   174A      0.777671  
	 175A      0.777710   176A      0.785625   177A      0.788681  
	 178A      0.788687   179A      0.795528   180A      0.810161  
	 181A      0.810166   182A      0.817398   183A      0.819311  
	 184A      0.835095   185A      0.836212   186A      0.836264  
	 187A      0.854970   188A      0.859772   189A      0.859788  
	 190A      0.869334   191A      0.874153   192A      0.876147  
	 193A      0.877393   194A      0.877410   195A      0.890448  
	 196A      0.890479   197A      0.898321   198A      0.898383  
	 199A      0.907599   200A      0.910284   201A      0.910312  
	 202A      0.915637   203A      0.915677   204A      0.925754  
	 205A      0.925815   206A      0.937843   207A      0.946725  
	 208A      0.949379   209A      0.961755   210A      0.961798  
	 211A      0.970923   212A      0.970985   213A      0.982055  
	 214A      0.982076   215A      0.983490   216A      0.994247  
	 217A      0.994285   218A      1.001047   219A      1.008413  
	 220A      1.008456   221A      1.016047   222A      1.035949  
	 223A      1.036007   224A      1.039341   225A      1.054987  
	 226A      1.055034   227A      1.109629   228A      1.109692  
	 229A      1.114155   230A      1.117247   231A      1.117280  
	 232A      1.133381   233A      1.140030   234A      1.140051  
	 235A      1.155807   236A      1.156634   237A      1.168585  
	 238A      1.168637   239A      1.184489   240A      1.194675  
	 241A      1.195169   242A      1.195194   243A      1.215772  
	 244A      1.215826   245A      1.219891   246A      1.228069  
	 247A      1.228153   248A      1.246196   249A      1.247107  
	 250A      1.247158   251A      1.260219   252A      1.272722  
	 253A      1.272806   254A      1.333849   255A      1.333880  
	 256A      1.344840   257A      1.371921   258A      1.371961  
	 259A      1.406939   260A      1.407003   261A      1.413623  
	 262A      1.427849   263A      1.427871   264A      1.429623  
	 265A      1.471221   266A      1.477702   267A      1.477752  
	 268A      1.489306   269A      1.620879   270A      1.620945  
	 271A      1.665110   272A      1.677296   273A      1.677370  
	 274A      1.699290   275A      1.726698   276A      1.726952  
	 277A      1.726982   278A      1.784009   279A      1.784080  
	 280A      1.826715   281A      1.842872   282A      1.863214  
	 283A      1.863270   284A      1.923122   285A      1.923195  
	 286A      1.966758   287A      1.978425   288A      1.995909  
	 289A      1.995965   290A      2.007020   291A      2.047696  
	 292A      2.072704   293A      2.072739   294A      2.103147  
	 295A      2.103175   296A      2.110756   297A      2.110859  
	 298A      2.118688   299A      2.145281   300A      2.151167  
	 301A      2.151251   302A      2.165110   303A      2.195910  
	 304A      2.195936   305A      2.226717   306A      2.226814  
	 307A      2.232375   308A      2.235179   309A      2.251263  
	 310A      2.251353   311A      2.271719   312A      2.271779  
	 313A      2.273690   314A      2.285972   315A      2.286018  
	 316A      2.318900   317A      2.318935   318A      2.323627  
	 319A      2.324580   320A      2.335092   321A      2.335187  
	 322A      2.356042   323A      2.356067   324A      2.363021  
	 325A      2.380040   326A      2.382857   327A      2.382906  
	 328A      2.398740   329A      2.398758   330A      2.416759  
	 331A      2.431808   332A      2.431908   333A      2.434024  
	 334A      2.457870   335A      2.457948   336A      2.478423  
	 337A      2.478557   338A      2.478855   339A      2.486550  
	 340A      2.515449   341A      2.515463   342A      2.517656  
	 343A      2.520681   344A      2.532306   345A      2.532327  
	 346A      2.567900   347A      2.567986   348A      2.587488  
	 349A      2.597688   350A      2.597758   351A      2.617902  
	 352A      2.617967   353A      2.627606   354A      2.640432  
	 355A      2.642905   356A      2.654737   357A      2.654881  
	 358A      2.660387   359A      2.660431   360A      2.663302  
	 361A      2.693917   362A      2.693937   363A      2.710341  
	 364A      2.710349   365A      2.744316   366A      2.744359  
	 367A      2.746954   368A      2.775706   369A      2.822384  
	 370A      2.822504   371A      2.834146   372A      2.848714  
	 373A      2.848731   374A      2.877372   375A      2.893522  
	 376A      2.910098   377A      2.910142   378A      2.931433  
	 379A      2.937105   380A      2.937157   381A      2.962910  
	 382A      2.991952   383A      2.992060   384A      3.006746  
	 385A      3.006807   386A      3.016698   387A      3.044778  
	 388A      3.044795   389A      3.054589   390A      3.056525  
	 391A      3.056625   392A      3.075312   393A      3.090139  
	 394A      3.126244   395A      3.179341   396A      3.179376  
	 397A      3.221071   398A      3.221119   399A      3.281930  
	 400A      3.300478   401A      3.323145   402A      3.323176  
	 403A      3.388160   404A      3.392940   405A      3.423540  
	 406A      3.423641   407A      3.494307   408A      3.494348  
	 409A      3.515772   410A      3.515846   411A      3.528911  
	 412A      3.557315   413A      3.567668   414A      3.567735  
	 415A      3.667134   416A      3.667155   417A      3.751258  
	 418A      3.764930   419A      3.765061   420A      3.839864  
	 421A      3.886406   422A      3.886540   423A      4.033769  
	 424A      4.272049   425A      4.388193   426A      4.388404  
	 427A      4.586442   428A      4.680419   429A      4.680605  
	 430A      4.712176   431A      4.749717   432A      4.749805  
	 433A      4.859112   434A      5.128774   435A      5.138433  
	 436A      5.138464   437A      5.245163   438A      5.245191  
	 439A      5.256465   440A      5.256483   441A      5.345451  
	 442A     18.239514   443A     18.874639   444A     18.920707  
	 445A     18.920850   446A     19.150927  

	Final Occupation by Irrep:
	          A 
	DOCC [    21 ]

  Energy converged.

  @RHF Final Energy:  -196.35551080219335

   => Energetics <=

    Nuclear Repulsion Energy =            199.3549647572164645
    One-Electron Energy =                -658.3710399517683527
    Two-Electron Energy =                 262.6605643923570597
    DFT Exchange-Correlation Energy =       0.0000000000000000
    Empirical Dispersion Energy =           0.0000000000000000
    Total Energy =                       -196.3555108021948286



Properties will be evaluated at   0.000000,   0.000000,   0.000000 Bohr
  ==> Properties <==


Properties computed using the SCF density density matrix
  Nuclear Dipole Moment: (a.u.)
     X:   -26.5134      Y:     4.8975      Z:   181.9830

  Electronic Dipole Moment: (a.u.)
     X:    26.5136      Y:    -4.8975      Z:  -181.9838

  Dipole Moment: (a.u.)
     X:     0.0001      Y:    -0.0000      Z:    -0.0008     Total:     0.0008

  Dipole Moment: (Debye)
     X:     0.0003      Y:    -0.0000      Z:    -0.0020     Total:     0.0020


  Saving occupied orbitals to File 180.

  Saving SAPT 2-MONOMER_B file.

*** tstop() called on node100.bme.utexas.edu at Mon Feb 17 10:27:00 2014
Module time:
	user time   =     304.55 seconds =       5.08 minutes
	system time =       2.75 seconds =       0.05 minutes
	total time  =         82 seconds =       1.37 minutes
Total time:
	user time   =    1161.65 seconds =      19.36 minutes
	system time =      13.24 seconds =       0.22 minutes
	total time  =        319 seconds =       5.32 minutes
  No DF_BASIS_SAPT auxiliary basis selected, defaulting to aug-cc-pvdz-ri

  //>>>>>>>>>>>>>>>>>>>>>>>>>>>>>>>>>>>//
  //               SAPT2+              //
  //<<<<<<<<<<<<<<<<<<<<<<<<<<<<<<<<<<<//


*** tstart() called on node100.bme.utexas.edu
*** at Mon Feb 17 10:27:00 2014

        SAPT2+  
    Ed Hohenstein
     6 June 2009

      Orbital Information
  --------------------------
    NSO        =       446
    NMO        =       446
    NRI        =      1272
    NOCC A     =        21
    NOCC B     =        21
    FOCC A     =         5
    FOCC B     =         5
    NVIR A     =       425
    NVIR B     =       425

    Estimated memory usage: 3749.8 MB

    Elst10,r            =    -0.006611494212 H
    Exch10 (S^2)        =     0.022821302866 H
    Exch10              =     0.023083958285 H
    Ind20,r (A<-B)      =    -0.001932218252 H
    Ind20,r (B<-A)      =    -0.001932267908 H
    Ind20,r             =    -0.003864486160 H
    Exch-Ind20,r (A<-B) =     0.001592129721 H
    Exch-Ind20,r (B<-A) =     0.001592191303 H
    Exch-Ind20,r        =     0.003184321024 H
    Disp20              =    -0.015104491592 H
    Exch-Disp20         =     0.001878948438 H
    Elst12,r            =    -0.001186133656 H
    Exch11              =     0.000679345616 H
    Exch12              =     0.002105124284 H
    Ind22               =    -0.000709980052 H
    Disp21              =     0.000891033139 H
    Disp22 (SDQ)        =     0.000223463820 H

    (i =   1 of  16)       3112 seconds
    (i =   2 of  16)       6236 seconds
    (i =   3 of  16)       9361 seconds
    (i =   4 of  16)      12485 seconds
    (i =   5 of  16)      15611 seconds
    (i =   6 of  16)      18736 seconds
    (i =   7 of  16)      21861 seconds
    (i =   8 of  16)      24987 seconds
    (i =   9 of  16)      28113 seconds
    (i =  10 of  16)      31239 seconds
    (i =  11 of  16)      34363 seconds
    (i =  12 of  16)      37490 seconds
    (i =  13 of  16)      40603 seconds
    (i =  14 of  16)      43718 seconds
    (i =  15 of  16)      46831 seconds
    (i =  16 of  16)      49943 seconds

    Disp220 (T)         =    -0.001038401629 H

    (i =   1 of  16)       3116 seconds
    (i =   2 of  16)       6230 seconds
    (i =   3 of  16)       9348 seconds
    (i =   4 of  16)      12464 seconds
    (i =   5 of  16)      15579 seconds
    (i =   6 of  16)      18697 seconds
    (i =   7 of  16)      21813 seconds
    (i =   8 of  16)      24928 seconds
    (i =   9 of  16)      28045 seconds
    (i =  10 of  16)      31177 seconds
    (i =  11 of  16)      34305 seconds
    (i =  12 of  16)      37424 seconds
    (i =  13 of  16)      40597 seconds
    (i =  14 of  16)      43725 seconds
    (i =  15 of  16)      46862 seconds
    (i =  16 of  16)      50106 seconds

    Disp202 (T)         =    -0.001038401897 H

    Disp22 (T)          =    -0.002076803525 H

    SAPT Results  
  -----------------------------------------------------------------------
    Electrostatics          -7.79762787 mH      -4.89308556 kcal mol^-1
      Elst10,r              -6.61149421 mH      -4.14877543 kcal mol^-1
      Elst12,r              -1.18613366 mH      -0.74431014 kcal mol^-1

    Exchange                25.86842818 mH      16.23268444 kcal mol^-1
      Exch10                23.08395828 mH      14.48540312 kcal mol^-1
      Exch10(S^2)           22.82130287 mH      14.32058435 kcal mol^-1
      Exch11(S^2)            0.67934562 mH       0.42629583 kcal mol^-1
      Exch12(S^2)            2.10512428 mH       1.32098549 kcal mol^-1

    Induction               -2.51371767 mH      -1.57738172 kcal mol^-1
      Ind20,r               -3.86448616 mH      -2.42500178 kcal mol^-1
      Ind22                 -0.70998005 mH      -0.44551923 kcal mol^-1
      Exch-Ind20,r           3.18432102 mH       1.99819169 kcal mol^-1
      Exch-Ind22             0.58502070 mH       0.36710605 kcal mol^-1
      delta HF,r (2)        -1.70859319 mH      -1.07215846 kcal mol^-1

    Dispersion             -14.18784972 mH      -8.90301048 kcal mol^-1
      Disp20               -15.10449159 mH      -9.47821197 kcal mol^-1
      Disp21                 0.89103314 mH       0.55913176 kcal mol^-1
      Disp22 (SDQ)           0.22346382 mH       0.14022567 kcal mol^-1
      Disp22 (T)            -2.07680353 mH      -1.30321394 kcal mol^-1
      Exch-Disp20            1.87894844 mH       1.17905799 kcal mol^-1

    Total HF                14.08370575 mH       8.83765915 kcal mol^-1
    Total SAPT0              0.85816260 mH       0.53850518 kcal mol^-1
    Total SAPT2              2.33153949 mH       1.46306318 kcal mol^-1
    Total SAPT2+             1.36923293 mH       0.85920667 kcal mol^-1

*** tstop() called on node100.bme.utexas.edu at Tue Feb 18 16:33:36 2014
Module time:
	user time   =  376903.37 seconds =    6281.72 minutes
	system time =     451.91 seconds =       7.53 minutes
	total time  =     108396 seconds =    1806.60 minutes
Total time:
	user time   =  378065.02 seconds =    6301.08 minutes
	system time =     465.15 seconds =       7.75 minutes
	total time  =     108715 seconds =    1811.92 minutes

*** PSI4 exiting successfully. Buy a developer a beer!
