    -----------------------------------------------------------------------
          PSI4: An Open-Source Ab Initio Electronic Structure Package
                              PSI 4.0.0-beta4 Driver

    J. M. Turney, A. C. Simmonett, R. M. Parrish, E. G. Hohenstein,
    F. A. Evangelista, J. T. Fermann, B. J. Mintz, L. A. Burns, J. J. Wilke,
    M. L. Abrams, N. J. Russ, M. L. Leininger, C. L. Janssen, E. T. Seidl,
    W. D. Allen, H. F. Schaefer, R. A. King, E. F. Valeev, C. D. Sherrill,
    and T. D. Crawford, WIREs Comput. Mol. Sci., (2011) (doi: 10.1002/wcms.93)

                         Additional Contributions by
    A. E. DePrince, M. Saitow, U. Bozkaya, A. Yu. Sokolov
    -----------------------------------------------------------------------

    Process ID:   5312
    PSI4DATADIR: /home/xzhu216/psi4/psi4-install/share/psi

    Using LocalCommunicator (Number of processes = 1)

    Memory level set to 256.000 MB

  ==> Input File <==

--------------------------------------------------------------------------
#psi4
#
memory 7 gb

molecule Neopentane_Neopentane {
0 1
    C     0.382522206    -0.070606972     0.766895817
    C    -1.040639472     0.396811255     1.060935933
    H    -1.771574596    -0.281500248     0.618330233
    H    -1.224717770     0.435735085     2.135518899
    H    -1.214066031     1.393724437     0.653090647
    C     0.590847472    -1.466818137     1.347977909
    H     1.602913797    -1.822949997     1.150102854
    H     0.438968582    -1.466745983     2.428286685
    H    -0.109919056    -2.178684250     0.909313901
    C     1.378269048     0.898435362     1.399149440
    H     2.404393972     0.585440740     1.200733652
    H     1.243780924     0.945974298     2.480709914
    H     1.248373180     1.905022619     0.998950707
    C     0.601960941    -0.111034194    -0.743096590
    H     0.459211824     0.877039098    -1.182898192
    H     1.613693987    -0.443459451    -0.979672098
    H    -0.099530783    -0.797549823    -1.219220690
--
0 1
    C    -0.227910018     0.042138386     4.956698029
    C     1.194902435    -0.426827614     4.663298488
    H     1.379341637    -0.466156765     3.588778022
    H     1.926336584     0.250845214     5.106034063
    H     1.367166102    -1.423833656     5.071419060
    C    -0.434306828     1.438699912     4.375867554
    H    -1.446269923     1.795685359     4.572715080
    H     0.266611770     2.149771385     4.815589322
    H    -0.281197612     1.438896527     3.295725199
    C    -0.448204509     0.082314600     6.466551657
    H    -1.459420664     0.416591586     6.702624845
    H     0.254307946     0.767263632     6.943389877
    H    -0.307641416    -0.906205739     6.906003395
    C    -1.224372736    -0.925639274     4.323551633
    H    -1.095446727    -1.932614655     4.723130605
    H    -2.250261833    -0.611866418     4.521939486
    H    -1.089668370    -0.972613668     3.241974971
units angstrom
no_reorient  #important for SAPT in psi4, default
symmetry c1  #important for SAPT in psi4, default
}

set {
basis aug-cc-pVDZ
scf_type DF
freeze_core True
}
energy('sapt2+')
--------------------------------------------------------------------------

  Memory set to   7.000 GiB by Python script.

  //>>>>>>>>>>>>>>>>>>>>>>>>>>>>>>>>>>>//
  //              Dimer HF             //
  //<<<<<<<<<<<<<<<<<<<<<<<<<<<<<<<<<<<//


  No DF_BASIS_SCF auxiliary basis selected, defaulting to aug-cc-pvdz-jkfit


*** tstart() called on node59.bme.utexas.edu
*** at Mon Feb 17 08:10:58 2014


         ---------------------------------------------------------
                                   SCF
            by Justin Turney, Rob Parrish, and Andy Simmonett
                              RHF Reference
                        4 Threads,   7000 MiB Core
         ---------------------------------------------------------

  ==> Geometry <==

    Molecular point group: c1
    Full point group: C1

    Geometry (in Angstrom), charge = 0, multiplicity = 1:

       Center              X                  Y                   Z       
    ------------   -----------------  -----------------  -----------------
           C          0.305215205104    -0.056353419154    -2.094885623529
           C         -1.117946472896     0.411064807846    -1.800845507529
           H         -1.848881596896    -0.267246695154    -2.243451207529
           H         -1.302024770896     0.449988637846    -0.726262541529
           H         -1.291373031896     1.407977989846    -2.208690793529
           C          0.513540471104    -1.452564584154    -1.513803531529
           H          1.525606796104    -1.808696444154    -1.711678586529
           H          0.361661581104    -1.452492430154    -0.433494755529
           H         -0.187226056896    -2.164430697154    -1.952467539529
           C          1.300962047104     0.912688914846    -1.462632000529
           H          2.327086971104     0.599694292846    -1.661047788529
           H          1.166473923104     0.960227850846    -0.381071526529
           H          1.171066179104     1.919276171846    -1.862830733529
           C          0.524653940104    -0.096780641154    -3.604878030529
           H          0.381904823104     0.891292650846    -4.044679632529
           H          1.536386986104    -0.429205898154    -3.841453538529
           H         -0.176837783896    -0.783296270154    -4.081002130529
           C         -0.305217018896     0.056391938846     2.094916588471
           C          1.117595434104    -0.412574061154     1.801517047471
           H          1.302034636104    -0.451903212154     0.726996581471
           H          1.849029583104     0.265098766846     2.244252622471
           H          1.289859101104    -1.409580103154     2.209637619471
           C         -0.511613828896     1.452953464846     1.514086113471
           H         -1.523576923896     1.809938911846     1.710933639471
           H          0.189304769104     2.164024937846     1.953807881471
           H         -0.358504612896     1.453150079846     0.433943758471
           C         -0.525511509896     0.096568152846     3.604770216471
           H         -1.536727664896     0.430845138846     3.840843404471
           H          0.177000945104     0.781517184846     4.081608436471
           H         -0.384948416896    -0.891952186154     4.044221954471
           C         -1.301679736896    -0.911385721154     1.461770192471
           H         -1.172753727896    -1.918361102154     1.861349164471
           H         -2.327568833896    -0.597612865154     1.660158045471
           H         -1.166975370896    -0.958360115154     0.380193530471

  Running in c1 symmetry.

  Nuclear repulsion =  611.768295748474088

  Charge       = 0
  Multiplicity = 1
  Electrons    = 84
  Nalpha       = 42
  Nbeta        = 42

  ==> Algorithm <==

  SCF Algorithm Type is DF.
  DIIS enabled.
  MOM disabled.
  Fractional occupation disabled.
  Guess Type is CORE.
  Energy threshold   = 1.00e-08
  Density threshold  = 1.00e-08
  Integral threshold = 0.00e+00

  ==> Primary Basis <==

  Basis Set: AUG-CC-PVDZ
    Number of shells: 210
    Number of basis function: 446
    Number of Cartesian functions: 466
    Spherical Harmonics?: true
    Max angular momentum: 2

  ==> Pre-Iterations <==

   -------------------------------------------------------
    Irrep   Nso     Nmo     Nalpha   Nbeta   Ndocc  Nsocc
   -------------------------------------------------------
     A        446     446       0       0       0       0
   -------------------------------------------------------
    Total     446     446      42      42      42       0
   -------------------------------------------------------

 OEINTS: Wrapper to libmints.
   by Justin Turney

   Calculation information:
      Number of atoms:                  34
      Number of AO shells:             210
      Number of SO shells:             210
      Number of primitives:            418
      Number of atomic orbitals:       466
      Number of basis functions:       446

      Number of irreps:                  1
      Number of functions per irrep: [ 446 ]

      Overlap, kinetic, potential, dipole, and quadrupole integrals
        stored in file 35.

  ==> Integral Setup <==

  ==> DFJK: Density-Fitted J/K Matrices <==

    J tasked:                  Yes
    K tasked:                  Yes
    wK tasked:                  No
    OpenMP threads:              4
    Integrals threads:           4
    Memory (MB):              5006
    Algorithm:                Core
    Integral Cache:           SAVE
    Schwarz Cutoff:          0E+00
    Fitting Condition:       1E-12

   => Auxiliary Basis Set <=

  Basis Set: aug-cc-pvdz-jkfit
    Number of shells: 568
    Number of basis function: 1628
    Number of Cartesian functions: 1850
    Spherical Harmonics?: true
    Max angular momentum: 3

  Minimum eigenvalue in the overlap matrix is 3.5167614811E-06.
  Using Symmetric Orthogonalization.
  SCF Guess: Core (One-Electron) Hamiltonian.

  Guess energy:  -332.08380433436071

  ==> Iterations <==

                        Total Energy        Delta E     RMS |[F,P]|

   @RHF iter   1:  -272.96563627305875   -2.72966e+02   2.36607e-02 
   @RHF iter   2:  -198.19746701337306    7.47682e+01   1.73808e-02 DIIS
   @RHF iter   3:  -327.33907880319452   -1.29142e+02   1.75701e-02 DIIS
   @RHF iter   4:  -385.45582107086261   -5.81167e+01   7.70790e-03 DIIS
   @RHF iter   5:  -391.44446226565515   -5.98864e+00   2.85469e-03 DIIS
   @RHF iter   6:  -392.51260182069279   -1.06814e+00   9.55943e-04 DIIS
   @RHF iter   7:  -392.66680283818744   -1.54201e-01   1.86023e-04 DIIS
   @RHF iter   8:  -392.67342437692491   -6.62154e-03   5.20383e-05 DIIS
   @RHF iter   9:  -392.67398245443906   -5.58078e-04   1.55422e-05 DIIS
   @RHF iter  10:  -392.67403807160235   -5.56172e-05   4.49220e-06 DIIS
   @RHF iter  11:  -392.67404187553404   -3.80393e-06   1.56135e-06 DIIS
   @RHF iter  12:  -392.67404228913142   -4.13597e-07   3.33470e-07 DIIS
   @RHF iter  13:  -392.67404231035437   -2.12229e-08   5.54221e-08 DIIS
   @RHF iter  14:  -392.67404231097873   -6.24368e-10   1.76020e-08 DIIS
   @RHF iter  15:  -392.67404231102546   -4.67253e-11   4.13932e-09 DIIS

  ==> Post-Iterations <==

	Orbital Energies (a.u.)
	-----------------------

	Doubly Occupied:                                                      

	   1A    -11.231405     2A    -11.231404     3A    -11.211063  
	   4A    -11.211057     5A    -11.208830     6A    -11.208828  
	   7A    -11.208822     8A    -11.208820     9A    -11.208799  
	  10A    -11.208790    11A     -1.113212    12A     -1.105006  
	  13A     -0.938007    14A     -0.937988    15A     -0.936879  
	  16A     -0.925090    17A     -0.925081    18A     -0.924827  
	  19A     -0.741442    20A     -0.723600    21A     -0.640710  
	  22A     -0.615338    23A     -0.615323    24A     -0.611261  
	  25A     -0.611237    26A     -0.586487    27A     -0.575750  
	  28A     -0.575721    29A     -0.540781    30A     -0.540775  
	  31A     -0.515686    32A     -0.515660    33A     -0.510400  
	  34A     -0.506656    35A     -0.495186    36A     -0.495124  
	  37A     -0.470901    38A     -0.453265    39A     -0.453261  
	  40A     -0.449185    41A     -0.449182    42A     -0.420687  

	Virtual:                                                              

	  43A      0.034004    44A      0.040340    45A      0.043963  
	  46A      0.043965    47A      0.054731    48A      0.057953  
	  49A      0.057953    50A      0.061172    51A      0.061175  
	  52A      0.076414    53A      0.077213    54A      0.077214  
	  55A      0.081803    56A      0.081804    57A      0.087644  
	  58A      0.097922    59A      0.101286    60A      0.101287  
	  61A      0.106364    62A      0.107314    63A      0.125911  
	  64A      0.125913    65A      0.132346    66A      0.132351  
	  67A      0.141535    68A      0.146675    69A      0.156842  
	  70A      0.159612    71A      0.167676    72A      0.167677  
	  73A      0.168447    74A      0.168452    75A      0.170461  
	  76A      0.178530    77A      0.178534    78A      0.187592  
	  79A      0.187593    80A      0.191156    81A      0.191164  
	  82A      0.191650    83A      0.204110    84A      0.206657  
	  85A      0.206658    86A      0.219333    87A      0.223198  
	  88A      0.223200    89A      0.226833    90A      0.227567  
	  91A      0.227571    92A      0.238698    93A      0.238710  
	  94A      0.244336    95A      0.245238    96A      0.246817  
	  97A      0.246826    98A      0.247478    99A      0.264493  
	 100A      0.264499   101A      0.275467   102A      0.280352  
	 103A      0.280360   104A      0.294197   105A      0.294197  
	 106A      0.298158   107A      0.315404   108A      0.318550  
	 109A      0.347217   110A      0.351982   111A      0.352000  
	 112A      0.353497   113A      0.367042   114A      0.367050  
	 115A      0.381590   116A      0.381639   117A      0.391448  
	 118A      0.401143   119A      0.401150   120A      0.408816  
	 121A      0.408840   122A      0.409336   123A      0.409339  
	 124A      0.409460   125A      0.418013   126A      0.418022  
	 127A      0.424468   128A      0.431075   129A      0.431077  
	 130A      0.452834   131A      0.452872   132A      0.455702  
	 133A      0.469822   134A      0.472355   135A      0.473898  
	 136A      0.473902   137A      0.486294   138A      0.488223  
	 139A      0.490087   140A      0.490499   141A      0.494549  
	 142A      0.494576   143A      0.496523   144A      0.496528  
	 145A      0.501571   146A      0.510886   147A      0.510904  
	 148A      0.537974   149A      0.537984   150A      0.539059  
	 151A      0.539861   152A      0.539874   153A      0.542265  
	 154A      0.552752   155A      0.552783   156A      0.554346  
	 157A      0.565196   158A      0.565234   159A      0.571035  
	 160A      0.575820   161A      0.575836   162A      0.595099  
	 163A      0.597920   164A      0.597932   165A      0.611143  
	 166A      0.614771   167A      0.614778   168A      0.621120  
	 169A      0.621134   170A      0.632734   171A      0.632758  
	 172A      0.649326   173A      0.661209   174A      0.662265  
	 175A      0.663984   176A      0.663998   177A      0.667073  
	 178A      0.667080   179A      0.686209   180A      0.687399  
	 181A      0.690779   182A      0.698239   183A      0.703560  
	 184A      0.703566   185A      0.706378   186A      0.707423  
	 187A      0.707439   188A      0.714828   189A      0.717449  
	 190A      0.717464   191A      0.751066   192A      0.752287  
	 193A      0.752308   194A      0.757769   195A      0.757802  
	 196A      0.769485   197A      0.779974   198A      0.779982  
	 199A      0.782174   200A      0.794995   201A      0.797670  
	 202A      0.797937   203A      0.797953   204A      0.808209  
	 205A      0.825926   206A      0.828047   207A      0.843099  
	 208A      0.843133   209A      0.849003   210A      0.849025  
	 211A      0.868301   212A      0.868324   213A      0.884914  
	 214A      0.884916   215A      0.885894   216A      0.888309  
	 217A      0.888320   218A      0.895361   219A      0.901322  
	 220A      0.901334   221A      0.904976   222A      0.908971  
	 223A      0.908992   224A      0.909970   225A      0.909986  
	 226A      0.924309   227A      0.939567   228A      0.939653  
	 229A      0.945520   230A      0.945976   231A      0.945995  
	 232A      0.947809   233A      0.947824   234A      0.948980  
	 235A      0.958129   236A      0.960287   237A      0.988776  
	 238A      0.988780   239A      1.000189   240A      1.000245  
	 241A      1.004020   242A      1.026825   243A      1.026920  
	 244A      1.034796   245A      1.044155   246A      1.060499  
	 247A      1.060527   248A      1.074933   249A      1.074970  
	 250A      1.081560   251A      1.081596   252A      1.118716  
	 253A      1.121458   254A      1.121506   255A      1.123236  
	 256A      1.143637   257A      1.175399   258A      1.186085  
	 259A      1.186100   260A      1.202251   261A      1.215851  
	 262A      1.215856   263A      1.218721   264A      1.218767  
	 265A      1.221438   266A      1.249277   267A      1.249318  
	 268A      1.275592   269A      1.275635   270A      1.287050  
	 271A      1.323027   272A      1.323065   273A      1.380142  
	 274A      1.383475   275A      1.383509   276A      1.389165  
	 277A      1.419133   278A      1.434087   279A      1.434157  
	 280A      1.453433   281A      1.453440   282A      1.454341  
	 283A      1.478688   284A      1.490944   285A      1.531159  
	 286A      1.531180   287A      1.595184   288A      1.608376  
	 289A      1.608394   290A      1.631003   291A      1.631164  
	 292A      1.642096   293A      1.642105   294A      1.660596  
	 295A      1.670703   296A      1.670796   297A      1.676166  
	 298A      1.708376   299A      1.726000   300A      1.726004  
	 301A      1.749805   302A      1.749857   303A      1.761398  
	 304A      1.761424   305A      1.807758   306A      1.807776  
	 307A      1.811461   308A      1.820599   309A      1.829247  
	 310A      1.853512   311A      1.867550   312A      1.868470  
	 313A      1.868509   314A      1.879391   315A      1.899812  
	 316A      1.899876   317A      1.916079   318A      1.957103  
	 319A      1.971367   320A      1.971391   321A      1.973573  
	 322A      1.973595   323A      1.991133   324A      2.013798  
	 325A      2.013820   326A      2.030558   327A      2.030582  
	 328A      2.054673   329A      2.060355   330A      2.085008  
	 331A      2.085088   332A      2.095271   333A      2.095308  
	 334A      2.100476   335A      2.120666   336A      2.120697  
	 337A      2.132384   338A      2.132396   339A      2.154137  
	 340A      2.177893   341A      2.178153   342A      2.183194  
	 343A      2.193654   344A      2.193738   345A      2.194172  
	 346A      2.223242   347A      2.223351   348A      2.233530  
	 349A      2.233611   350A      2.256987   351A      2.257021  
	 352A      2.292645   353A      2.295947   354A      2.295951  
	 355A      2.326396   356A      2.343385   357A      2.361283  
	 358A      2.361309   359A      2.373698   360A      2.373762  
	 361A      2.381221   362A      2.383583   363A      2.412042  
	 364A      2.412095   365A      2.428247   366A      2.435012  
	 367A      2.435043   368A      2.443644   369A      2.452743  
	 370A      2.452838   371A      2.475177   372A      2.505771  
	 373A      2.537417   374A      2.537473   375A      2.551903  
	 376A      2.551939   377A      2.564436   378A      2.584842  
	 379A      2.585833   380A      2.585957   381A      2.585999  
	 382A      2.589985   383A      2.590031   384A      2.616250  
	 385A      2.619743   386A      2.619884   387A      2.650119  
	 388A      2.650161   389A      2.667916   390A      2.677114  
	 391A      2.677131   392A      2.683420   393A      2.685598  
	 394A      2.685622   395A      2.691962   396A      2.705010  
	 397A      2.705053   398A      2.738301   399A      2.739622  
	 400A      2.739662   401A      2.777632   402A      2.777669  
	 403A      2.817715   404A      2.838609   405A      2.856540  
	 406A      2.856556   407A      2.912503   408A      2.914500  
	 409A      2.914621   410A      2.925572   411A      2.930497  
	 412A      2.930544   413A      2.970928   414A      2.981773  
	 415A      2.981971   416A      3.006775   417A      3.035163  
	 418A      3.035204   419A      3.035362   420A      3.041171  
	 421A      3.041202   422A      3.077956   423A      3.078070  
	 424A      3.093902   425A      3.110076   426A      3.155591  
	 427A      3.155781   428A      3.170558   429A      3.219660  
	 430A      3.219808   431A      3.227864   432A      3.291223  
	 433A      3.291235   434A      3.324083   435A      3.358386  
	 436A      3.450374   437A      3.450490   438A      3.470247  
	 439A      3.472121   440A      3.472303   441A      3.820198  
	 442A      3.847659   443A      3.847945   444A      3.893635  
	 445A      4.053585   446A      4.054194  

	Final Occupation by Irrep:
	          A 
	DOCC [    42 ]

  Energy converged.

  @RHF Final Energy:  -392.67404231102546

   => Energetics <=

    Nuclear Repulsion Energy =            611.7682957484740882
    One-Electron Energy =               -1742.7696316086849038
    Two-Electron Energy =                 738.3272935491846738
    DFT Exchange-Correlation Energy =       0.0000000000000000
    Empirical Dispersion Energy =           0.0000000000000000
    Total Energy =                       -392.6740423110262554



Properties will be evaluated at   0.000000,   0.000000,   0.000000 Bohr
  ==> Properties <==


Properties computed using the SCF density density matrix
  Nuclear Dipole Moment: (a.u.)
     X:     0.0000      Y:    -0.0001      Z:    -0.0002

  Electronic Dipole Moment: (a.u.)
     X:     0.0000      Y:     0.0001      Z:     0.0002

  Dipole Moment: (a.u.)
     X:     0.0000      Y:     0.0000      Z:     0.0000     Total:     0.0000

  Dipole Moment: (Debye)
     X:     0.0001      Y:     0.0001      Z:     0.0001     Total:     0.0001


  Saving occupied orbitals to File 180.

  Saving SAPT 2-DIMER file.

*** tstop() called on node59.bme.utexas.edu at Mon Feb 17 08:13:33 2014
Module time:
	user time   =     555.54 seconds =       9.26 minutes
	system time =       7.76 seconds =       0.13 minutes
	total time  =        155 seconds =       2.58 minutes
Total time:
	user time   =     555.54 seconds =       9.26 minutes
	system time =       7.76 seconds =       0.13 minutes
	total time  =        155 seconds =       2.58 minutes

  //>>>>>>>>>>>>>>>>>>>>>>>>>>>>>>>>>>>//
  //            Monomer A HF           //
  //<<<<<<<<<<<<<<<<<<<<<<<<<<<<<<<<<<<//


  No DF_BASIS_SCF auxiliary basis selected, defaulting to aug-cc-pvdz-jkfit


*** tstart() called on node59.bme.utexas.edu
*** at Mon Feb 17 08:13:33 2014


         ---------------------------------------------------------
                                   SCF
            by Justin Turney, Rob Parrish, and Andy Simmonett
                              RHF Reference
                        4 Threads,   7000 MiB Core
         ---------------------------------------------------------

  ==> Geometry <==

    Molecular point group: c1
    Full point group: C1

    Geometry (in Angstrom), charge = 0, multiplicity = 1:

       Center              X                  Y                   Z       
    ------------   -----------------  -----------------  -----------------
           C          0.305215205104    -0.056353419154    -2.094885623529
           C         -1.117946472896     0.411064807846    -1.800845507529
           H         -1.848881596896    -0.267246695154    -2.243451207529
           H         -1.302024770896     0.449988637846    -0.726262541529
           H         -1.291373031896     1.407977989846    -2.208690793529
           C          0.513540471104    -1.452564584154    -1.513803531529
           H          1.525606796104    -1.808696444154    -1.711678586529
           H          0.361661581104    -1.452492430154    -0.433494755529
           H         -0.187226056896    -2.164430697154    -1.952467539529
           C          1.300962047104     0.912688914846    -1.462632000529
           H          2.327086971104     0.599694292846    -1.661047788529
           H          1.166473923104     0.960227850846    -0.381071526529
           H          1.171066179104     1.919276171846    -1.862830733529
           C          0.524653940104    -0.096780641154    -3.604878030529
           H          0.381904823104     0.891292650846    -4.044679632529
           H          1.536386986104    -0.429205898154    -3.841453538529
           H         -0.176837783896    -0.783296270154    -4.081002130529
           C(Gh)     -0.305217018896     0.056391938846     2.094916588471
           C(Gh)      1.117595434104    -0.412574061154     1.801517047471
           H(Gh)      1.302034636104    -0.451903212154     0.726996581471
           H(Gh)      1.849029583104     0.265098766846     2.244252622471
           H(Gh)      1.289859101104    -1.409580103154     2.209637619471
           C(Gh)     -0.511613828896     1.452953464846     1.514086113471
           H(Gh)     -1.523576923896     1.809938911846     1.710933639471
           H(Gh)      0.189304769104     2.164024937846     1.953807881471
           H(Gh)     -0.358504612896     1.453150079846     0.433943758471
           C(Gh)     -0.525511509896     0.096568152846     3.604770216471
           H(Gh)     -1.536727664896     0.430845138846     3.840843404471
           H(Gh)      0.177000945104     0.781517184846     4.081608436471
           H(Gh)     -0.384948416896    -0.891952186154     4.044221954471
           C(Gh)     -1.301679736896    -0.911385721154     1.461770192471
           H(Gh)     -1.172753727896    -1.918361102154     1.861349164471
           H(Gh)     -2.327568833896    -0.597612865154     1.660158045471
           H(Gh)     -1.166975370896    -0.958360115154     0.380193530471

  Running in c1 symmetry.

  Nuclear repulsion =  199.354937351533835

  Charge       = 0
  Multiplicity = 1
  Electrons    = 42
  Nalpha       = 21
  Nbeta        = 21

  ==> Algorithm <==

  SCF Algorithm Type is DF.
  DIIS enabled.
  MOM disabled.
  Fractional occupation disabled.
  Guess Type is CORE.
  Energy threshold   = 1.00e-08
  Density threshold  = 1.00e-08
  Integral threshold = 0.00e+00

  ==> Primary Basis <==

  Basis Set: AUG-CC-PVDZ
    Number of shells: 210
    Number of basis function: 446
    Number of Cartesian functions: 466
    Spherical Harmonics?: true
    Max angular momentum: 2

  ==> Pre-Iterations <==

   -------------------------------------------------------
    Irrep   Nso     Nmo     Nalpha   Nbeta   Ndocc  Nsocc
   -------------------------------------------------------
     A        446     446       0       0       0       0
   -------------------------------------------------------
    Total     446     446      21      21      21       0
   -------------------------------------------------------

 OEINTS: Wrapper to libmints.
   by Justin Turney

   Calculation information:
      Number of atoms:                  34
      Number of AO shells:             210
      Number of SO shells:             210
      Number of primitives:            418
      Number of atomic orbitals:       466
      Number of basis functions:       446

      Number of irreps:                  1
      Number of functions per irrep: [ 446 ]

      Overlap, kinetic, potential, dipole, and quadrupole integrals
        stored in file 35.

  ==> Integral Setup <==

  ==> DFJK: Density-Fitted J/K Matrices <==

    J tasked:                  Yes
    K tasked:                  Yes
    wK tasked:                  No
    OpenMP threads:              4
    Integrals threads:           4
    Memory (MB):              5006
    Algorithm:                Core
    Integral Cache:           LOAD
    Schwarz Cutoff:          0E+00
    Fitting Condition:       1E-12

   => Auxiliary Basis Set <=

  Basis Set: aug-cc-pvdz-jkfit
    Number of shells: 568
    Number of basis function: 1628
    Number of Cartesian functions: 1850
    Spherical Harmonics?: true
    Max angular momentum: 3

  Minimum eigenvalue in the overlap matrix is 3.5167614813E-06.
  Using Symmetric Orthogonalization.
  SCF Guess: Core (One-Electron) Hamiltonian.

  Guess energy:  -162.58163143334295

  ==> Iterations <==

                        Total Energy        Delta E     RMS |[F,P]|

   @RHF iter   1:  -148.29205962441594   -1.48292e+02   1.51159e-02 
   @RHF iter   2:  -118.15557920324412    3.01365e+01   1.19446e-02 DIIS
   @RHF iter   3:  -191.76033194063658   -7.36048e+01   6.06143e-03 DIIS
   @RHF iter   4:  -195.34806862649313   -3.58774e+00   2.97949e-03 DIIS
   @RHF iter   5:  -196.27680973230341   -9.28741e-01   7.07823e-04 DIIS
   @RHF iter   6:  -196.35371253095926   -7.69028e-02   1.05596e-04 DIIS
   @RHF iter   7:  -196.35571437644350   -2.00185e-03   2.15376e-05 DIIS
   @RHF iter   8:  -196.35580151589207   -8.71394e-05   3.57541e-06 DIIS
   @RHF iter   9:  -196.35580428999455   -2.77410e-06   9.06018e-07 DIIS
   @RHF iter  10:  -196.35580442245075   -1.32456e-07   2.74620e-07 DIIS
   @RHF iter  11:  -196.35580443359922   -1.11485e-08   5.07325e-08 DIIS
   @RHF iter  12:  -196.35580443404783   -4.48608e-10   8.97702e-09 DIIS

  ==> Post-Iterations <==

	Orbital Energies (a.u.)
	-----------------------

	Doubly Occupied:                                                      

	   1A    -11.231292     2A    -11.211956     3A    -11.211666  
	   4A    -11.211664     5A    -11.211632     6A     -1.107783  
	   7A     -0.929770     8A     -0.929765     9A     -0.929664  
	  10A     -0.730285    11A     -0.611550    12A     -0.611547  
	  13A     -0.611095    14A     -0.552364    15A     -0.552355  
	  16A     -0.508424    17A     -0.508262    18A     -0.508261  
	  19A     -0.451734    20A     -0.451719    21A     -0.451613  

	Virtual:                                                              

	  22A      0.023291    23A      0.037175    24A      0.039351  
	  25A      0.039351    26A      0.052316    27A      0.055645  
	  28A      0.055645    29A      0.060496    30A      0.060499  
	  31A      0.072856    32A      0.076438    33A      0.076439  
	  34A      0.081597    35A      0.081598    36A      0.085492  
	  37A      0.087451    38A      0.099238    39A      0.100083  
	  40A      0.100084    41A      0.106413    42A      0.109854  
	  43A      0.118207    44A      0.118210    45A      0.126863  
	  46A      0.126865    47A      0.130455    48A      0.143639  
	  49A      0.143641    50A      0.149711    51A      0.158037  
	  52A      0.163668    53A      0.163677    54A      0.168441  
	  55A      0.173303    56A      0.173308    57A      0.176707  
	  58A      0.185600    59A      0.185604    60A      0.186885  
	  61A      0.186888    62A      0.197892    63A      0.201420  
	  64A      0.201434    65A      0.208215    66A      0.213728  
	  67A      0.215089    68A      0.215095    69A      0.221741  
	  70A      0.221748    71A      0.223141    72A      0.230314  
	  73A      0.230318    74A      0.240902    75A      0.242783  
	  76A      0.248258    77A      0.248270    78A      0.249064  
	  79A      0.256076    80A      0.256083    81A      0.265069  
	  82A      0.281506    83A      0.281519    84A      0.298898  
	  85A      0.306294    86A      0.318079    87A      0.318084  
	  88A      0.329944    89A      0.336517    90A      0.336529  
	  91A      0.357183    92A      0.357195    93A      0.371546  
	  94A      0.371560    95A      0.379511    96A      0.397730  
	  97A      0.400963    98A      0.402278    99A      0.402289  
	 100A      0.405875   101A      0.405882   102A      0.420005  
	 103A      0.427278   104A      0.427298   105A      0.431371  
	 106A      0.431397   107A      0.438661   108A      0.448330  
	 109A      0.450095   110A      0.453307   111A      0.453329  
	 112A      0.467688   113A      0.471541   114A      0.471563  
	 115A      0.480406   116A      0.480408   117A      0.486081  
	 118A      0.490024   119A      0.490031   120A      0.491019  
	 121A      0.494020   122A      0.501487   123A      0.501783  
	 124A      0.501799   125A      0.524360   126A      0.530354  
	 127A      0.530380   128A      0.542315   129A      0.542352  
	 130A      0.548070   131A      0.548097   132A      0.551677  
	 133A      0.555828   134A      0.555865   135A      0.568733  
	 136A      0.568758   137A      0.585859   138A      0.587337  
	 139A      0.590810   140A      0.595762   141A      0.595798  
	 142A      0.607370   143A      0.607399   144A      0.607938  
	 145A      0.637461   146A      0.637480   147A      0.646075  
	 148A      0.646099   149A      0.649878   150A      0.661101  
	 151A      0.661126   152A      0.672510   153A      0.676891  
	 154A      0.681127   155A      0.681137   156A      0.690078  
	 157A      0.692826   158A      0.696472   159A      0.696666  
	 160A      0.696723   161A      0.709142   162A      0.711734  
	 163A      0.725331   164A      0.725364   165A      0.735980  
	 166A      0.736014   167A      0.738931   168A      0.743267  
	 169A      0.756152   170A      0.756163   171A      0.771659  
	 172A      0.771672   173A      0.775255   174A      0.798844  
	 175A      0.798875   176A      0.800165   177A      0.804677  
	 178A      0.810699   179A      0.810752   180A      0.816686  
	 181A      0.820354   182A      0.825680   183A      0.825687  
	 184A      0.837019   185A      0.837058   186A      0.844293  
	 187A      0.865986   188A      0.877391   189A      0.877427  
	 190A      0.880266   191A      0.892409   192A      0.892460  
	 193A      0.901095   194A      0.902578   195A      0.902604  
	 196A      0.906255   197A      0.910804   198A      0.910828  
	 199A      0.914498   200A      0.914543   201A      0.936494  
	 202A      0.936551   203A      0.936700   204A      0.940670  
	 205A      0.940720   206A      0.942579   207A      0.963523  
	 208A      0.973599   209A      0.973653   210A      0.979121  
	 211A      0.979148   212A      0.982249   213A      0.985433  
	 214A      0.985463   215A      1.000740   216A      1.005393  
	 217A      1.006655   218A      1.006730   219A      1.025478  
	 220A      1.025502   221A      1.030726   222A      1.055409  
	 223A      1.055423   224A      1.058871   225A      1.082203  
	 226A      1.087537   227A      1.087566   228A      1.116835  
	 229A      1.116874   230A      1.117194   231A      1.136320  
	 232A      1.136363   233A      1.156349   234A      1.156370  
	 235A      1.176122   236A      1.176150   237A      1.183370  
	 238A      1.196843   239A      1.199151   240A      1.199186  
	 241A      1.206292   242A      1.225219   243A      1.235276  
	 244A      1.235308   245A      1.249225   246A      1.251885  
	 247A      1.251979   248A      1.287746   249A      1.287837  
	 250A      1.288352   251A      1.298217   252A      1.298276  
	 253A      1.313247   254A      1.350577   255A      1.350589  
	 256A      1.351042   257A      1.400666   258A      1.400712  
	 259A      1.402394   260A      1.432198   261A      1.432249  
	 262A      1.444388   263A      1.453535   264A      1.453580  
	 265A      1.483912   266A      1.503534   267A      1.515088  
	 268A      1.515149   269A      1.634620   270A      1.634684  
	 271A      1.698815   272A      1.698904   273A      1.721287  
	 274A      1.727915   275A      1.727948   276A      1.737099  
	 277A      1.756283   278A      1.793737   279A      1.793808  
	 280A      1.827357   281A      1.861965   282A      1.895971  
	 283A      1.896037   284A      1.948718   285A      1.948754  
	 286A      1.980910   287A      1.995285   288A      2.021697  
	 289A      2.021717   290A      2.024907   291A      2.062382  
	 292A      2.062391   293A      2.063939   294A      2.120909  
	 295A      2.120914   296A      2.139143   297A      2.139310  
	 298A      2.162793   299A      2.165037   300A      2.168788  
	 301A      2.168868   302A      2.174461   303A      2.209703  
	 304A      2.209724   305A      2.237395   306A      2.248590  
	 307A      2.248656   308A      2.255260   309A      2.255374  
	 310A      2.282553   311A      2.284932   312A      2.294896  
	 313A      2.294926   314A      2.325413   315A      2.325455  
	 316A      2.338837   317A      2.347908   318A      2.348960  
	 319A      2.349045   320A      2.359252   321A      2.359319  
	 322A      2.364417   323A      2.374942   324A      2.374990  
	 325A      2.399056   326A      2.410831   327A      2.410907  
	 328A      2.422012   329A      2.422120   330A      2.439833  
	 331A      2.450117   332A      2.450183   333A      2.459697  
	 334A      2.463350   335A      2.492738   336A      2.492790  
	 337A      2.518704   338A      2.520955   339A      2.520975  
	 340A      2.534673   341A      2.534723   342A      2.550188  
	 343A      2.560134   344A      2.560244   345A      2.564513  
	 346A      2.591632   347A      2.591665   348A      2.595274  
	 349A      2.616409   350A      2.616445   351A      2.637998  
	 352A      2.638070   353A      2.646257   354A      2.666075  
	 355A      2.666103   356A      2.669212   357A      2.687013  
	 358A      2.687066   359A      2.690594   360A      2.693858  
	 361A      2.729456   362A      2.729479   363A      2.756140  
	 364A      2.774184   365A      2.774318   366A      2.805133  
	 367A      2.805353   368A      2.805614   369A      2.853400  
	 370A      2.855756   371A      2.855849   372A      2.896315  
	 373A      2.896378   374A      2.902985   375A      2.909301  
	 376A      2.929377   377A      2.929477   378A      2.950732  
	 379A      2.957429   380A      2.957529   381A      2.968791  
	 382A      3.024066   383A      3.024158   384A      3.045940  
	 385A      3.046049   386A      3.050459   387A      3.059914  
	 388A      3.060080   389A      3.062977   390A      3.064859  
	 391A      3.119661   392A      3.119710   393A      3.160602  
	 394A      3.188552   395A      3.211928   396A      3.212105  
	 397A      3.271460   398A      3.271564   399A      3.293803  
	 400A      3.306595   401A      3.306653   402A      3.321496  
	 403A      3.454465   404A      3.454623   405A      3.455524  
	 406A      3.515253   407A      3.515349   408A      3.537862  
	 409A      3.537875   410A      3.539101   411A      3.543713  
	 412A      3.626764   413A      3.626888   414A      3.657442  
	 415A      3.676340   416A      3.676452   417A      3.838890  
	 418A      3.852253   419A      3.852365   420A      3.948339  
	 421A      4.035200   422A      4.035453   423A      4.107789  
	 424A      4.378257   425A      4.547140   426A      4.547426  
	 427A      4.597867   428A      4.728411   429A      4.748092  
	 430A      4.748123   431A      4.840627   432A      4.840875  
	 433A      4.853198   434A      5.131405   435A      5.142469  
	 436A      5.142498   437A      5.249161   438A      5.249195  
	 439A      5.264151   440A      5.264165   441A      5.374631  
	 442A     18.255871   443A     18.878808   444A     19.053809  
	 445A     19.054109   446A     19.177062  

	Final Occupation by Irrep:
	          A 
	DOCC [    21 ]

  Energy converged.

  @RHF Final Energy:  -196.35580443404783

   => Energetics <=

    Nuclear Repulsion Energy =            199.3549373515338345
    One-Electron Energy =                -658.3726996487955603
    Two-Electron Energy =                 262.6619578632122511
    DFT Exchange-Correlation Energy =       0.0000000000000000
    Empirical Dispersion Energy =           0.0000000000000000
    Total Energy =                       -196.3558044340494462



Properties will be evaluated at   0.000000,   0.000000,   0.000000 Bohr
  ==> Properties <==


Properties computed using the SCF density density matrix
  Nuclear Dipole Moment: (a.u.)
     X:    24.2308      Y:    -4.4760      Z:  -166.3156

  Electronic Dipole Moment: (a.u.)
     X:   -24.2309      Y:     4.4760      Z:   166.3163

  Dipole Moment: (a.u.)
     X:    -0.0001      Y:     0.0000      Z:     0.0007     Total:     0.0007

  Dipole Moment: (Debye)
     X:    -0.0003      Y:     0.0001      Z:     0.0018     Total:     0.0018


  Saving occupied orbitals to File 180.

  Saving SAPT 2-MONOMER_A file.

*** tstop() called on node59.bme.utexas.edu at Mon Feb 17 08:14:56 2014
Module time:
	user time   =     305.20 seconds =       5.09 minutes
	system time =       2.72 seconds =       0.05 minutes
	total time  =         83 seconds =       1.38 minutes
Total time:
	user time   =     860.76 seconds =      14.35 minutes
	system time =      10.48 seconds =       0.17 minutes
	total time  =        238 seconds =       3.97 minutes

  //>>>>>>>>>>>>>>>>>>>>>>>>>>>>>>>>>>>//
  //            Monomer B HF           //
  //<<<<<<<<<<<<<<<<<<<<<<<<<<<<<<<<<<<//


  No DF_BASIS_SCF auxiliary basis selected, defaulting to aug-cc-pvdz-jkfit


*** tstart() called on node59.bme.utexas.edu
*** at Mon Feb 17 08:14:56 2014


         ---------------------------------------------------------
                                   SCF
            by Justin Turney, Rob Parrish, and Andy Simmonett
                              RHF Reference
                        4 Threads,   7000 MiB Core
         ---------------------------------------------------------

  ==> Geometry <==

    Molecular point group: c1
    Full point group: C1

    Geometry (in Angstrom), charge = 0, multiplicity = 1:

       Center              X                  Y                   Z       
    ------------   -----------------  -----------------  -----------------
           C(Gh)      0.305215205104    -0.056353419154    -2.094885623529
           C(Gh)     -1.117946472896     0.411064807846    -1.800845507529
           H(Gh)     -1.848881596896    -0.267246695154    -2.243451207529
           H(Gh)     -1.302024770896     0.449988637846    -0.726262541529
           H(Gh)     -1.291373031896     1.407977989846    -2.208690793529
           C(Gh)      0.513540471104    -1.452564584154    -1.513803531529
           H(Gh)      1.525606796104    -1.808696444154    -1.711678586529
           H(Gh)      0.361661581104    -1.452492430154    -0.433494755529
           H(Gh)     -0.187226056896    -2.164430697154    -1.952467539529
           C(Gh)      1.300962047104     0.912688914846    -1.462632000529
           H(Gh)      2.327086971104     0.599694292846    -1.661047788529
           H(Gh)      1.166473923104     0.960227850846    -0.381071526529
           H(Gh)      1.171066179104     1.919276171846    -1.862830733529
           C(Gh)      0.524653940104    -0.096780641154    -3.604878030529
           H(Gh)      0.381904823104     0.891292650846    -4.044679632529
           H(Gh)      1.536386986104    -0.429205898154    -3.841453538529
           H(Gh)     -0.176837783896    -0.783296270154    -4.081002130529
           C         -0.305217018896     0.056391938846     2.094916588471
           C          1.117595434104    -0.412574061154     1.801517047471
           H          1.302034636104    -0.451903212154     0.726996581471
           H          1.849029583104     0.265098766846     2.244252622471
           H          1.289859101104    -1.409580103154     2.209637619471
           C         -0.511613828896     1.452953464846     1.514086113471
           H         -1.523576923896     1.809938911846     1.710933639471
           H          0.189304769104     2.164024937846     1.953807881471
           H         -0.358504612896     1.453150079846     0.433943758471
           C         -0.525511509896     0.096568152846     3.604770216471
           H         -1.536727664896     0.430845138846     3.840843404471
           H          0.177000945104     0.781517184846     4.081608436471
           H         -0.384948416896    -0.891952186154     4.044221954471
           C         -1.301679736896    -0.911385721154     1.461770192471
           H         -1.172753727896    -1.918361102154     1.861349164471
           H         -2.327568833896    -0.597612865154     1.660158045471
           H         -1.166975370896    -0.958360115154     0.380193530471

  Running in c1 symmetry.

  Nuclear repulsion =  199.354964757216464

  Charge       = 0
  Multiplicity = 1
  Electrons    = 42
  Nalpha       = 21
  Nbeta        = 21

  ==> Algorithm <==

  SCF Algorithm Type is DF.
  DIIS enabled.
  MOM disabled.
  Fractional occupation disabled.
  Guess Type is CORE.
  Energy threshold   = 1.00e-08
  Density threshold  = 1.00e-08
  Integral threshold = 0.00e+00

  ==> Primary Basis <==

  Basis Set: AUG-CC-PVDZ
    Number of shells: 210
    Number of basis function: 446
    Number of Cartesian functions: 466
    Spherical Harmonics?: true
    Max angular momentum: 2

  ==> Pre-Iterations <==

   -------------------------------------------------------
    Irrep   Nso     Nmo     Nalpha   Nbeta   Ndocc  Nsocc
   -------------------------------------------------------
     A        446     446       0       0       0       0
   -------------------------------------------------------
    Total     446     446      21      21      21       0
   -------------------------------------------------------

 OEINTS: Wrapper to libmints.
   by Justin Turney

   Calculation information:
      Number of atoms:                  34
      Number of AO shells:             210
      Number of SO shells:             210
      Number of primitives:            418
      Number of atomic orbitals:       466
      Number of basis functions:       446

      Number of irreps:                  1
      Number of functions per irrep: [ 446 ]

      Overlap, kinetic, potential, dipole, and quadrupole integrals
        stored in file 35.

  ==> Integral Setup <==

  ==> DFJK: Density-Fitted J/K Matrices <==

    J tasked:                  Yes
    K tasked:                  Yes
    wK tasked:                  No
    OpenMP threads:              4
    Integrals threads:           4
    Memory (MB):              5006
    Algorithm:                Core
    Integral Cache:           LOAD
    Schwarz Cutoff:          0E+00
    Fitting Condition:       1E-12

   => Auxiliary Basis Set <=

  Basis Set: aug-cc-pvdz-jkfit
    Number of shells: 568
    Number of basis function: 1628
    Number of Cartesian functions: 1850
    Spherical Harmonics?: true
    Max angular momentum: 3

  Minimum eigenvalue in the overlap matrix is 3.5167614813E-06.
  Using Symmetric Orthogonalization.
  SCF Guess: Core (One-Electron) Hamiltonian.

  Guess energy:  -162.58159134761473

  ==> Iterations <==

                        Total Energy        Delta E     RMS |[F,P]|

   @RHF iter   1:  -148.29211891035658   -1.48292e+02   1.51159e-02 
   @RHF iter   2:  -118.15485559996370    3.01373e+01   1.19447e-02 DIIS
   @RHF iter   3:  -191.76043092927802   -7.36056e+01   6.06136e-03 DIIS
   @RHF iter   4:  -195.34812383109170   -3.58769e+00   2.97941e-03 DIIS
   @RHF iter   5:  -196.27681954674995   -9.28696e-01   7.07774e-04 DIIS
   @RHF iter   6:  -196.35371257471166   -7.68930e-02   1.05594e-04 DIIS
   @RHF iter   7:  -196.35571429139810   -2.00172e-03   2.15367e-05 DIIS
   @RHF iter   8:  -196.35580142706613   -8.71357e-05   3.57422e-06 DIIS
   @RHF iter   9:  -196.35580420068646   -2.77362e-06   9.03827e-07 DIIS
   @RHF iter  10:  -196.35580433275294   -1.32066e-07   2.73291e-07 DIIS
   @RHF iter  11:  -196.35580434379182   -1.10389e-08   5.07279e-08 DIIS
   @RHF iter  12:  -196.35580434423952   -4.47699e-10   8.98846e-09 DIIS

  ==> Post-Iterations <==

	Orbital Energies (a.u.)
	-----------------------

	Doubly Occupied:                                                      

	   1A    -11.231291     2A    -11.211950     3A    -11.211667  
	   4A    -11.211666     5A    -11.211634     6A     -1.107783  
	   7A     -0.929765     8A     -0.929762     9A     -0.929672  
	  10A     -0.730284    11A     -0.611551    12A     -0.611549  
	  13A     -0.611093    14A     -0.552362    15A     -0.552358  
	  16A     -0.508423    17A     -0.508265    18A     -0.508261  
	  19A     -0.451725    20A     -0.451718    21A     -0.451621  

	Virtual:                                                              

	  22A      0.023292    23A      0.037175    24A      0.039351  
	  25A      0.039351    26A      0.052316    27A      0.055644  
	  28A      0.055645    29A      0.060496    30A      0.060499  
	  31A      0.072856    32A      0.076438    33A      0.076439  
	  34A      0.081597    35A      0.081598    36A      0.085492  
	  37A      0.087451    38A      0.099238    39A      0.100083  
	  40A      0.100084    41A      0.106413    42A      0.109854  
	  43A      0.118206    44A      0.118210    45A      0.126863  
	  46A      0.126866    47A      0.130456    48A      0.143639  
	  49A      0.143641    50A      0.149710    51A      0.158036  
	  52A      0.163668    53A      0.163677    54A      0.168441  
	  55A      0.173303    56A      0.173308    57A      0.176707  
	  58A      0.185601    59A      0.185603    60A      0.186884  
	  61A      0.186889    62A      0.197892    63A      0.201421  
	  64A      0.201435    65A      0.208214    66A      0.213727  
	  67A      0.215088    68A      0.215096    69A      0.221741  
	  70A      0.221747    71A      0.223142    72A      0.230315  
	  73A      0.230318    74A      0.240902    75A      0.242784  
	  76A      0.248257    77A      0.248272    78A      0.249064  
	  79A      0.256075    80A      0.256084    81A      0.265071  
	  82A      0.281507    83A      0.281518    84A      0.298898  
	  85A      0.306294    86A      0.318077    87A      0.318085  
	  88A      0.329947    89A      0.336514    90A      0.336531  
	  91A      0.357183    92A      0.357196    93A      0.371546  
	  94A      0.371560    95A      0.379511    96A      0.397731  
	  97A      0.400964    98A      0.402277    99A      0.402288  
	 100A      0.405876   101A      0.405882   102A      0.420003  
	 103A      0.427278   104A      0.427300   105A      0.431373  
	 106A      0.431396   107A      0.438663   108A      0.448327  
	 109A      0.450097   110A      0.453305   111A      0.453328  
	 112A      0.467689   113A      0.471542   114A      0.471559  
	 115A      0.480405   116A      0.480410   117A      0.486079  
	 118A      0.490026   119A      0.490030   120A      0.491020  
	 121A      0.494019   122A      0.501489   123A      0.501785  
	 124A      0.501797   125A      0.524362   126A      0.530352  
	 127A      0.530382   128A      0.542316   129A      0.542348  
	 130A      0.548067   131A      0.548096   132A      0.551678  
	 133A      0.555831   134A      0.555864   135A      0.568735  
	 136A      0.568756   137A      0.585862   138A      0.587339  
	 139A      0.590809   140A      0.595762   141A      0.595797  
	 142A      0.607369   143A      0.607396   144A      0.607938  
	 145A      0.637462   146A      0.637480   147A      0.646074  
	 148A      0.646097   149A      0.649882   150A      0.661104  
	 151A      0.661124   152A      0.672509   153A      0.676891  
	 154A      0.681126   155A      0.681139   156A      0.690077  
	 157A      0.692832   158A      0.696472   159A      0.696664  
	 160A      0.696725   161A      0.709136   162A      0.711741  
	 163A      0.725330   164A      0.725367   165A      0.735979  
	 166A      0.736017   167A      0.738924   168A      0.743278  
	 169A      0.756151   170A      0.756163   171A      0.771657  
	 172A      0.771671   173A      0.775254   174A      0.798841  
	 175A      0.798876   176A      0.800164   177A      0.804679  
	 178A      0.810694   179A      0.810762   180A      0.816684  
	 181A      0.820350   182A      0.825682   183A      0.825687  
	 184A      0.837016   185A      0.837062   186A      0.844296  
	 187A      0.865983   188A      0.877391   189A      0.877423  
	 190A      0.880266   191A      0.892418   192A      0.892452  
	 193A      0.901090   194A      0.902576   195A      0.902598  
	 196A      0.906257   197A      0.910800   198A      0.910827  
	 199A      0.914508   200A      0.914542   201A      0.936497  
	 202A      0.936545   203A      0.936701   204A      0.940671  
	 205A      0.940721   206A      0.942577   207A      0.963520  
	 208A      0.973601   209A      0.973659   210A      0.979124  
	 211A      0.979148   212A      0.982251   213A      0.985428  
	 214A      0.985466   215A      1.000736   216A      1.005396  
	 217A      1.006658   218A      1.006724   219A      1.025479  
	 220A      1.025502   221A      1.030731   222A      1.055405  
	 223A      1.055434   224A      1.058874   225A      1.082200  
	 226A      1.087537   227A      1.087566   228A      1.116834  
	 229A      1.116876   230A      1.117196   231A      1.136317  
	 232A      1.136362   233A      1.156342   234A      1.156366  
	 235A      1.176118   236A      1.176146   237A      1.183369  
	 238A      1.196834   239A      1.199157   240A      1.199185  
	 241A      1.206300   242A      1.225221   243A      1.235272  
	 244A      1.235308   245A      1.249224   246A      1.251882  
	 247A      1.251984   248A      1.287740   249A      1.287847  
	 250A      1.288352   251A      1.298215   252A      1.298282  
	 253A      1.313254   254A      1.350578   255A      1.350589  
	 256A      1.351045   257A      1.400669   258A      1.400711  
	 259A      1.402393   260A      1.432198   261A      1.432253  
	 262A      1.444385   263A      1.453539   264A      1.453583  
	 265A      1.483909   266A      1.503530   267A      1.515082  
	 268A      1.515151   269A      1.634624   270A      1.634689  
	 271A      1.698822   272A      1.698897   273A      1.721288  
	 274A      1.727919   275A      1.727946   276A      1.737112  
	 277A      1.756289   278A      1.793738   279A      1.793803  
	 280A      1.827362   281A      1.861960   282A      1.895969  
	 283A      1.896038   284A      1.948717   285A      1.948758  
	 286A      1.980911   287A      1.995277   288A      2.021676  
	 289A      2.021733   290A      2.024905   291A      2.062371  
	 292A      2.062398   293A      2.063948   294A      2.120909  
	 295A      2.120922   296A      2.139143   297A      2.139311  
	 298A      2.162802   299A      2.165042   300A      2.168789  
	 301A      2.168861   302A      2.174460   303A      2.209675  
	 304A      2.209725   305A      2.237388   306A      2.248596  
	 307A      2.248653   308A      2.255257   309A      2.255376  
	 310A      2.282550   311A      2.284936   312A      2.294896  
	 313A      2.294929   314A      2.325416   315A      2.325455  
	 316A      2.338838   317A      2.347904   318A      2.348970  
	 319A      2.349038   320A      2.359250   321A      2.359326  
	 322A      2.364416   323A      2.374938   324A      2.374983  
	 325A      2.399064   326A      2.410837   327A      2.410895  
	 328A      2.422008   329A      2.422120   330A      2.439839  
	 331A      2.450118   332A      2.450180   333A      2.459691  
	 334A      2.463355   335A      2.492742   336A      2.492795  
	 337A      2.518700   338A      2.520954   339A      2.520988  
	 340A      2.534681   341A      2.534721   342A      2.550185  
	 343A      2.560130   344A      2.560241   345A      2.564522  
	 346A      2.591636   347A      2.591661   348A      2.595284  
	 349A      2.616420   350A      2.616435   351A      2.638002  
	 352A      2.638067   353A      2.646257   354A      2.666080  
	 355A      2.666104   356A      2.669215   357A      2.687003  
	 358A      2.687082   359A      2.690618   360A      2.693827  
	 361A      2.729455   362A      2.729481   363A      2.756135  
	 364A      2.774191   365A      2.774311   366A      2.805137  
	 367A      2.805339   368A      2.805613   369A      2.853405  
	 370A      2.855735   371A      2.855855   372A      2.896327  
	 373A      2.896377   374A      2.903018   375A      2.909246  
	 376A      2.929377   377A      2.929481   378A      2.950741  
	 379A      2.957442   380A      2.957533   381A      2.968788  
	 382A      3.024062   383A      3.024156   384A      3.045951  
	 385A      3.046027   386A      3.050452   387A      3.059918  
	 388A      3.060084   389A      3.062995   390A      3.064821  
	 391A      3.119678   392A      3.119694   393A      3.160596  
	 394A      3.188548   395A      3.211940   396A      3.212100  
	 397A      3.271467   398A      3.271543   399A      3.293806  
	 400A      3.306585   401A      3.306663   402A      3.321499  
	 403A      3.454458   404A      3.454602   405A      3.455507  
	 406A      3.515267   407A      3.515354   408A      3.537869  
	 409A      3.537877   410A      3.539208   411A      3.543570  
	 412A      3.626753   413A      3.626913   414A      3.657428  
	 415A      3.676352   416A      3.676469   417A      3.838885  
	 418A      3.852242   419A      3.852397   420A      3.948324  
	 421A      4.035167   422A      4.035498   423A      4.107785  
	 424A      4.378293   425A      4.547168   426A      4.547408  
	 427A      4.597860   428A      4.728388   429A      4.748067  
	 430A      4.748188   431A      4.840648   432A      4.840821  
	 433A      4.853228   434A      5.131411   435A      5.142440  
	 436A      5.142477   437A      5.249126   438A      5.249162  
	 439A      5.264154   440A      5.264162   441A      5.374707  
	 442A     18.255878   443A     18.878781   444A     19.053820  
	 445A     19.054110   446A     19.177114  

	Final Occupation by Irrep:
	          A 
	DOCC [    21 ]

  Energy converged.

  @RHF Final Energy:  -196.35580434423952

   => Energetics <=

    Nuclear Repulsion Energy =            199.3549647572164645
    One-Electron Energy =                -658.3727540490094725
    Two-Electron Energy =                 262.6619849475532078
    DFT Exchange-Correlation Energy =       0.0000000000000000
    Empirical Dispersion Energy =           0.0000000000000000
    Total Energy =                       -196.3558043442398002



Properties will be evaluated at   0.000000,   0.000000,   0.000000 Bohr
  ==> Properties <==


Properties computed using the SCF density density matrix
  Nuclear Dipole Moment: (a.u.)
     X:   -24.2308      Y:     4.4759      Z:   166.3154

  Electronic Dipole Moment: (a.u.)
     X:    24.2309      Y:    -4.4759      Z:  -166.3161

  Dipole Moment: (a.u.)
     X:     0.0001      Y:    -0.0000      Z:    -0.0007     Total:     0.0007

  Dipole Moment: (Debye)
     X:     0.0003      Y:    -0.0000      Z:    -0.0017     Total:     0.0018


  Saving occupied orbitals to File 180.

  Saving SAPT 2-MONOMER_B file.

*** tstop() called on node59.bme.utexas.edu at Mon Feb 17 08:16:18 2014
Module time:
	user time   =     306.06 seconds =       5.10 minutes
	system time =       2.74 seconds =       0.05 minutes
	total time  =         82 seconds =       1.37 minutes
Total time:
	user time   =    1166.84 seconds =      19.45 minutes
	system time =      13.22 seconds =       0.22 minutes
	total time  =        320 seconds =       5.33 minutes
  No DF_BASIS_SAPT auxiliary basis selected, defaulting to aug-cc-pvdz-ri

  //>>>>>>>>>>>>>>>>>>>>>>>>>>>>>>>>>>>//
  //               SAPT2+              //
  //<<<<<<<<<<<<<<<<<<<<<<<<<<<<<<<<<<<//


*** tstart() called on node59.bme.utexas.edu
*** at Mon Feb 17 08:16:18 2014

        SAPT2+  
    Ed Hohenstein
     6 June 2009

      Orbital Information
  --------------------------
    NSO        =       446
    NMO        =       446
    NRI        =      1272
    NOCC A     =        21
    NOCC B     =        21
    FOCC A     =         5
    FOCC B     =         5
    NVIR A     =       425
    NVIR B     =       425

    Estimated memory usage: 3749.8 MB

    Elst10,r            =    -0.018890688494 H
    Exch10 (S^2)        =     0.061022211999 H
    Exch10              =     0.062613599440 H
    Ind20,r (A<-B)      =    -0.006421773436 H
    Ind20,r (B<-A)      =    -0.006422011855 H
    Ind20,r             =    -0.012843785291 H
    Exch-Ind20,r (A<-B) =     0.005287033659 H
    Exch-Ind20,r (B<-A) =     0.005287304764 H
    Exch-Ind20,r        =     0.010574338423 H
    Disp20              =    -0.028041591587 H
    Exch-Disp20         =     0.004386949524 H
    Elst12,r            =    -0.002620528117 H
    Exch11              =     0.001717440868 H
    Exch12              =     0.004077310167 H
    Ind22               =    -0.001975587189 H
    Disp21              =     0.002019791150 H
    Disp22 (SDQ)        =     0.000383137826 H

    (i =   1 of  16)       3114 seconds
    (i =   2 of  16)       6229 seconds
    (i =   3 of  16)       9338 seconds
    (i =   4 of  16)      12450 seconds
    (i =   5 of  16)      15569 seconds
    (i =   6 of  16)      18686 seconds
    (i =   7 of  16)      21799 seconds
    (i =   8 of  16)      24912 seconds
    (i =   9 of  16)      28028 seconds
    (i =  10 of  16)      31144 seconds
    (i =  11 of  16)      34263 seconds
    (i =  12 of  16)      37380 seconds
    (i =  13 of  16)      40496 seconds
    (i =  14 of  16)      43612 seconds
    (i =  15 of  16)      46729 seconds
    (i =  16 of  16)      49848 seconds

    Disp220 (T)         =    -0.001824195824 H

    (i =   1 of  16)       3140 seconds
    (i =   2 of  16)       6280 seconds
    (i =   3 of  16)       9419 seconds
    (i =   4 of  16)      12554 seconds
    (i =   5 of  16)      15690 seconds
    (i =   6 of  16)      18822 seconds
    (i =   7 of  16)      21953 seconds
    (i =   8 of  16)      25087 seconds
    (i =   9 of  16)      28224 seconds
    (i =  10 of  16)      31361 seconds
    (i =  11 of  16)      34497 seconds
    (i =  12 of  16)      37638 seconds
    (i =  13 of  16)      40774 seconds
    (i =  14 of  16)      43910 seconds
    (i =  15 of  16)      47047 seconds
    (i =  16 of  16)      50180 seconds

    Disp202 (T)         =    -0.001824197326 H

    Disp22 (T)          =    -0.003648393150 H

    SAPT Results  
  -----------------------------------------------------------------------
    Electrostatics         -21.51121661 mH     -13.49849278 kcal mol^-1
      Elst10,r             -18.89068849 mH     -11.85408649 kcal mol^-1
      Elst12,r              -2.62052812 mH      -1.64440629 kcal mol^-1

    Exchange                68.40835047 mH      42.92688980 kcal mol^-1
      Exch10                62.61359944 mH      39.29062848 kcal mol^-1
      Exch10(S^2)           61.02221200 mH      38.29201774 kcal mol^-1
      Exch11(S^2)            1.71744087 mH       1.07771046 kcal mol^-1
      Exch12(S^2)            4.07731017 mH       2.55855086 kcal mol^-1

    Induction               -6.50552225 mH      -4.08227701 kcal mol^-1
      Ind20,r              -12.84378529 mH      -8.05959729 kcal mol^-1
      Ind22                 -1.97558719 mH      -1.23969973 kcal mol^-1
      Exch-Ind20,r          10.57433842 mH       6.63549782 kcal mol^-1
      Exch-Ind22             1.62650862 mH       1.02064961 kcal mol^-1
      delta HF,r (2)        -3.88699682 mH      -2.43912743 kcal mol^-1

    Dispersion             -24.90010624 mH     -15.62505321 kcal mol^-1
      Disp20               -28.04159159 mH     -17.59636512 kcal mol^-1
      Disp21                 2.01979115 mH       1.26743813 kcal mol^-1
      Disp22 (SDQ)           0.38313783 mH       0.24042263 kcal mol^-1
      Disp22 (T)            -3.64839315 mH      -2.28940136 kcal mol^-1
      Exch-Disp20            4.38694952 mH       2.75285250 kcal mol^-1

    Total HF                37.56646726 mH      23.57331509 kcal mol^-1
    Total SAPT0             13.91182520 mH       8.72980247 kcal mol^-1
    Total SAPT2             16.73696955 mH      10.50260739 kcal mol^-1
    Total SAPT2+            15.49150538 mH       9.72106679 kcal mol^-1

*** tstop() called on node59.bme.utexas.edu at Tue Feb 18 14:14:04 2014
Module time:
	user time   =  376372.00 seconds =    6272.87 minutes
	system time =     419.31 seconds =       6.99 minutes
	total time  =     107866 seconds =    1797.77 minutes
Total time:
	user time   =  377538.84 seconds =    6292.31 minutes
	system time =     432.53 seconds =       7.21 minutes
	total time  =     108186 seconds =    1803.10 minutes

*** PSI4 exiting successfully. Buy a developer a beer!
