    -----------------------------------------------------------------------
          PSI4: An Open-Source Ab Initio Electronic Structure Package
                              PSI 4.0.0-beta4 Driver

    J. M. Turney, A. C. Simmonett, R. M. Parrish, E. G. Hohenstein,
    F. A. Evangelista, J. T. Fermann, B. J. Mintz, L. A. Burns, J. J. Wilke,
    M. L. Abrams, N. J. Russ, M. L. Leininger, C. L. Janssen, E. T. Seidl,
    W. D. Allen, H. F. Schaefer, R. A. King, E. F. Valeev, C. D. Sherrill,
    and T. D. Crawford, WIREs Comput. Mol. Sci., (2011) (doi: 10.1002/wcms.93)

                         Additional Contributions by
    A. E. DePrince, M. Saitow, U. Bozkaya, A. Yu. Sokolov
    -----------------------------------------------------------------------

    Process ID:  28874
    PSI4DATADIR: /home/xzhu216/psi4/psi4-install/share/psi

    Using LocalCommunicator (Number of processes = 1)

    Memory level set to 256.000 MB

  ==> Input File <==

--------------------------------------------------------------------------
#psi4
#
memory 7 gb

molecule Cyclopentane_Neopentane {
0 1
    C     0.799914079    -1.022051643     0.687736956
    H     0.853555876    -1.122051012    -0.398014355
    H     1.491402098    -1.744169358     1.119720403
    C     1.116887003     0.424952788     1.099662054
    H     1.838142304     0.890145042     0.430452563
    H     1.555569586     0.439824638     2.097083555
    C    -0.244559155     1.165689590     1.102977140
    H    -0.258077602     2.000863135     0.405323332
    H    -0.448804499     1.576995819     2.090984469
    C    -1.298714178     0.103811907     0.739308994
    H    -1.473560779     0.105243377    -0.338005451
    H    -2.256734278     0.278041178     1.227158427
    C    -0.646879933    -1.220068359     1.136306600
    H    -1.124439184    -2.087627024     0.682993267
    H    -0.686018645    -1.345283315     2.220220065
--
0 1
    C     0.034581030     0.064479659     4.932421982
    C    -0.061763167    -0.087606317     6.448062461
    H     0.930783201    -0.103072521     6.900419682
    H    -0.620687935     0.740278184     6.886497373
    H    -0.568927865    -1.016272396     6.713412051
    C     0.748634273     1.371384773     4.596797102
    H     0.830153819     1.504883905     3.517115228
    H     0.205161886     2.226073208     5.002298486
    H     1.756238816     1.382035188     5.015030103
    C    -1.370430783     0.084304307     4.335102459
    H    -1.333499195     0.201494242     3.251253493
    H    -1.952730315     0.911727865     4.743448379
    H    -1.900333843    -0.843482537     4.556431752
    C     0.822480844    -1.109005245     4.355083809
    H     0.327260528    -2.055995982     4.575326957
    H     0.917324017    -1.021822481     3.271949032
    H     1.827198928    -1.146409883     4.778832265
units angstrom
no_reorient  #important for SAPT in psi4, default
symmetry c1  #important for SAPT in psi4, default
}

set {
basis aug-cc-pVDZ
scf_type DF
freeze_core True
}
energy('sapt2+')
--------------------------------------------------------------------------

  Memory set to   7.000 GiB by Python script.

  //>>>>>>>>>>>>>>>>>>>>>>>>>>>>>>>>>>>//
  //              Dimer HF             //
  //<<<<<<<<<<<<<<<<<<<<<<<<<<<<<<<<<<<//


  No DF_BASIS_SCF auxiliary basis selected, defaulting to aug-cc-pvdz-jkfit


*** tstart() called on node104.bme.utexas.edu
*** at Mon Feb 17 11:11:06 2014


         ---------------------------------------------------------
                                   SCF
            by Justin Turney, Rob Parrish, and Andy Simmonett
                              RHF Reference
                        4 Threads,   7000 MiB Core
         ---------------------------------------------------------

  ==> Geometry <==

    Molecular point group: c1
    Full point group: C1

    Geometry (in Angstrom), charge = 0, multiplicity = 1:

       Center              X                  Y                   Z       
    ------------   -----------------  -----------------  -----------------
           C          0.808987130066    -1.001515470163    -2.283937975264
           H          0.862628927066    -1.101514839163    -3.369689286264
           H          1.500475149066    -1.723633185163    -1.851954528264
           C          1.125960054066     0.445488960837    -1.872012877264
           H          1.847215355066     0.910681214837    -2.541222368264
           H          1.564642637066     0.460360810837    -0.874591376264
           C         -0.235486103934     1.186225762837    -1.868697791264
           H         -0.249004550934     2.021399307837    -2.566351599264
           H         -0.439731447934     1.597531991837    -0.880690462264
           C         -1.289641126934     0.124348079837    -2.232365937264
           H         -1.464487727934     0.125779549837    -3.309680382264
           H         -2.247661226934     0.298577350837    -1.744516504264
           C         -0.637806881934    -1.199532186163    -1.835368331264
           H         -1.115366132934    -2.067090851163    -2.288681664264
           H         -0.676945593934    -1.324747142163    -0.751454866264
           C          0.043654081066     0.085015831837     1.960747050736
           C         -0.052690115934    -0.067070144163     3.476387529736
           H          0.939856252066    -0.082536348163     3.928744750736
           H         -0.611614883934     0.760814356837     3.914822441736
           H         -0.559854813934    -0.995736223163     3.741737119736
           C          0.757707324066     1.391920945837     1.625122170736
           H          0.839226870066     1.525420077837     0.545440296736
           H          0.214234937066     2.246609380837     2.030623554736
           H          1.765311867066     1.402571360837     2.043355171736
           C         -1.361357731934     0.104840479837     1.363427527736
           H         -1.324426143934     0.222030414837     0.279578561736
           H         -1.943657263934     0.932264037837     1.771773447736
           H         -1.891260791934    -0.822946364163     1.584756820736
           C          0.831553895066    -1.088469072163     1.383408877736
           H          0.336333579066    -2.035459809163     1.603652025736
           H          0.926397068066    -1.001286308163     0.300274100736
           H          1.836271979066    -1.125873710163     1.807157333736

  Running in c1 symmetry.

  Nuclear repulsion =  596.911214696533307

  Charge       = 0
  Multiplicity = 1
  Electrons    = 82
  Nalpha       = 41
  Nbeta        = 41

  ==> Algorithm <==

  SCF Algorithm Type is DF.
  DIIS enabled.
  MOM disabled.
  Fractional occupation disabled.
  Guess Type is CORE.
  Energy threshold   = 1.00e-08
  Density threshold  = 1.00e-08
  Integral threshold = 0.00e+00

  ==> Primary Basis <==

  Basis Set: AUG-CC-PVDZ
    Number of shells: 200
    Number of basis function: 428
    Number of Cartesian functions: 448
    Spherical Harmonics?: true
    Max angular momentum: 2

  ==> Pre-Iterations <==

   -------------------------------------------------------
    Irrep   Nso     Nmo     Nalpha   Nbeta   Ndocc  Nsocc
   -------------------------------------------------------
     A        428     428       0       0       0       0
   -------------------------------------------------------
    Total     428     428      41      41      41       0
   -------------------------------------------------------

 OEINTS: Wrapper to libmints.
   by Justin Turney

   Calculation information:
      Number of atoms:                  32
      Number of AO shells:             200
      Number of SO shells:             200
      Number of primitives:            404
      Number of atomic orbitals:       448
      Number of basis functions:       428

      Number of irreps:                  1
      Number of functions per irrep: [ 428 ]

      Overlap, kinetic, potential, dipole, and quadrupole integrals
        stored in file 35.

  ==> Integral Setup <==

  ==> DFJK: Density-Fitted J/K Matrices <==

    J tasked:                  Yes
    K tasked:                  Yes
    wK tasked:                  No
    OpenMP threads:              4
    Integrals threads:           4
    Memory (MB):              5006
    Algorithm:                Core
    Integral Cache:           SAVE
    Schwarz Cutoff:          0E+00
    Fitting Condition:       1E-12

   => Auxiliary Basis Set <=

  Basis Set: aug-cc-pvdz-jkfit
    Number of shells: 544
    Number of basis function: 1564
    Number of Cartesian functions: 1780
    Spherical Harmonics?: true
    Max angular momentum: 3

  Minimum eigenvalue in the overlap matrix is 5.0353901633E-06.
  Using Symmetric Orthogonalization.
  SCF Guess: Core (One-Electron) Hamiltonian.

  Guess energy:  -326.41423064601986

  ==> Iterations <==

                        Total Energy        Delta E     RMS |[F,P]|

   @RHF iter   1:  -287.50113203691626   -2.87501e+02   2.27560e-02 
   @RHF iter   2:   -95.58101549711262    1.91920e+02   2.99883e-02 DIIS
   @RHF iter   3:  -270.42684653948038   -1.74846e+02   1.92709e-02 DIIS
   @RHF iter   4:  -201.27035424324356    6.91565e+01   2.56547e-02 DIIS
   @RHF iter   5:  -381.57584237065976   -1.80305e+02   8.11621e-03 DIIS
   @RHF iter   6:  -390.36654533104354   -8.79070e+00   3.36121e-03 DIIS
   @RHF iter   7:  -391.46142690327656   -1.09488e+00   6.88816e-04 DIIS
   @RHF iter   8:  -391.50943189564407   -4.80050e-02   2.25449e-04 DIIS
   @RHF iter   9:  -391.51561546254788   -6.18357e-03   5.80797e-05 DIIS
   @RHF iter  10:  -391.51615316212235   -5.37700e-04   2.02296e-05 DIIS
   @RHF iter  11:  -391.51623152737693   -7.83653e-05   4.46245e-06 DIIS
   @RHF iter  12:  -391.51623481099318   -3.28362e-06   1.67142e-06 DIIS
   @RHF iter  13:  -391.51623530968720   -4.98694e-07   3.90953e-07 DIIS
   @RHF iter  14:  -391.51623534014936   -3.04622e-08   1.07723e-07 DIIS
   @RHF iter  15:  -391.51623534216696   -2.01760e-09   2.66134e-08 DIIS
   @RHF iter  16:  -391.51623534228622   -1.19257e-10   6.34699e-09 DIIS

  ==> Post-Iterations <==

	Orbital Energies (a.u.)
	-----------------------

	Doubly Occupied:                                                      

	   1A    -11.230489     2A    -11.216454     3A    -11.216381  
	   4A    -11.215512     5A    -11.214982     6A    -11.212851  
	   7A    -11.210599     8A    -11.209246     9A    -11.208999  
	  10A    -11.208663    11A     -1.121028    12A     -1.106370  
	  13A     -0.961366    14A     -0.960520    15A     -0.929741  
	  16A     -0.929302    17A     -0.928972    18A     -0.780489  
	  19A     -0.770389    20A     -0.731341    21A     -0.661279  
	  22A     -0.645740    23A     -0.613297    24A     -0.611999  
	  25A     -0.603374    26A     -0.584338    27A     -0.580069  
	  28A     -0.545673    29A     -0.542238    30A     -0.507858  
	  31A     -0.505769    32A     -0.505123    33A     -0.476427  
	  34A     -0.475706    35A     -0.465173    36A     -0.464563  
	  37A     -0.459990    38A     -0.452111    39A     -0.450111  
	  40A     -0.448364    41A     -0.436706  

	Virtual:                                                              

	  42A      0.032687    43A      0.040511    44A      0.041300  
	  45A      0.042701    46A      0.055481    47A      0.056717  
	  48A      0.057615    49A      0.058337    50A      0.059802  
	  51A      0.076439    52A      0.076732    53A      0.082051  
	  54A      0.082988    55A      0.084910    56A      0.091953  
	  57A      0.100299    58A      0.101931    59A      0.108259  
	  60A      0.115534    61A      0.118021    62A      0.127940  
	  63A      0.129016    64A      0.144209    65A      0.144813  
	  66A      0.146685    67A      0.153750    68A      0.153976  
	  69A      0.161228    70A      0.164795    71A      0.169582  
	  72A      0.171613    73A      0.174853    74A      0.175873  
	  75A      0.181684    76A      0.185762    77A      0.187482  
	  78A      0.191682    79A      0.195215    80A      0.198659  
	  81A      0.205565    82A      0.207819    83A      0.212546  
	  84A      0.212904    85A      0.216284    86A      0.219518  
	  87A      0.222537    88A      0.227216    89A      0.230374  
	  90A      0.234656    91A      0.234976    92A      0.241278  
	  93A      0.243322    94A      0.245795    95A      0.254711  
	  96A      0.263155    97A      0.264726    98A      0.276219  
	  99A      0.277028   100A      0.281666   101A      0.300206  
	 102A      0.300604   103A      0.306923   104A      0.322169  
	 105A      0.329155   106A      0.336758   107A      0.345345  
	 108A      0.353476   109A      0.359636   110A      0.370399  
	 111A      0.374066   112A      0.384494   113A      0.386539  
	 114A      0.400624   115A      0.403850   116A      0.406400  
	 117A      0.407018   118A      0.410025   119A      0.417482  
	 120A      0.421539   121A      0.428656   122A      0.429566  
	 123A      0.432609   124A      0.435676   125A      0.435996  
	 126A      0.439731   127A      0.444738   128A      0.446830  
	 129A      0.463764   130A      0.470849   131A      0.473678  
	 132A      0.474796   133A      0.478546   134A      0.479663  
	 135A      0.484109   136A      0.495322   137A      0.496191  
	 138A      0.497294   139A      0.501212   140A      0.502433  
	 141A      0.505063   142A      0.506897   143A      0.509523  
	 144A      0.518017   145A      0.520366   146A      0.533508  
	 147A      0.533953   148A      0.542671   149A      0.544649  
	 150A      0.555673   151A      0.566219   152A      0.571053  
	 153A      0.577611   154A      0.580294   155A      0.586178  
	 156A      0.588132   157A      0.592478   158A      0.603172  
	 159A      0.609779   160A      0.613285   161A      0.631442  
	 162A      0.635259   163A      0.636943   164A      0.647361  
	 165A      0.652299   166A      0.658825   167A      0.661109  
	 168A      0.667449   169A      0.669160   170A      0.673412  
	 171A      0.675831   172A      0.678046   173A      0.680923  
	 174A      0.687557   175A      0.688452   176A      0.698351  
	 177A      0.708396   178A      0.711124   179A      0.717007  
	 180A      0.719070   181A      0.729170   182A      0.733914  
	 183A      0.738990   184A      0.751814   185A      0.752852  
	 186A      0.759395   187A      0.762656   188A      0.764444  
	 189A      0.775776   190A      0.776779   191A      0.787763  
	 192A      0.790198   193A      0.793925   194A      0.798467  
	 195A      0.803387   196A      0.808680   197A      0.817527  
	 198A      0.818349   199A      0.832129   200A      0.833905  
	 201A      0.839718   202A      0.840422   203A      0.845170  
	 204A      0.852704   205A      0.858655   206A      0.865075  
	 207A      0.869677   208A      0.877264   209A      0.880003  
	 210A      0.882047   211A      0.894174   212A      0.899661  
	 213A      0.903459   214A      0.911494   215A      0.918882  
	 216A      0.921340   217A      0.922575   218A      0.935186  
	 219A      0.938784   220A      0.941358   221A      0.947188  
	 222A      0.948470   223A      0.956220   224A      0.962747  
	 225A      0.967922   226A      0.970402   227A      0.974402  
	 228A      0.991792   229A      0.998254   230A      1.004397  
	 231A      1.009013   232A      1.012990   233A      1.026674  
	 234A      1.030490   235A      1.037101   236A      1.044825  
	 237A      1.057423   238A      1.066863   239A      1.078449  
	 240A      1.081328   241A      1.089233   242A      1.091228  
	 243A      1.109814   244A      1.115272   245A      1.134105  
	 246A      1.143068   247A      1.153607   248A      1.173145  
	 249A      1.176047   250A      1.182785   251A      1.186502  
	 252A      1.192029   253A      1.207618   254A      1.226896  
	 255A      1.234954   256A      1.260835   257A      1.288650  
	 258A      1.294755   259A      1.338147   260A      1.352785  
	 261A      1.354833   262A      1.377003   263A      1.386871  
	 264A      1.392390   265A      1.395265   266A      1.407021  
	 267A      1.439198   268A      1.445469   269A      1.448248  
	 270A      1.458119   271A      1.467460   272A      1.477436  
	 273A      1.504279   274A      1.515986   275A      1.523177  
	 276A      1.528346   277A      1.551532   278A      1.564273  
	 279A      1.573011   280A      1.602067   281A      1.625939  
	 282A      1.651535   283A      1.676112   284A      1.687645  
	 285A      1.693416   286A      1.697726   287A      1.706349  
	 288A      1.711750   289A      1.726711   290A      1.731697  
	 291A      1.739446   292A      1.756614   293A      1.765535  
	 294A      1.792205   295A      1.800700   296A      1.810538  
	 297A      1.821583   298A      1.827601   299A      1.839459  
	 300A      1.842117   301A      1.878759   302A      1.896237  
	 303A      1.907419   304A      1.914439   305A      1.918760  
	 306A      1.929130   307A      1.952944   308A      1.966697  
	 309A      1.976508   310A      1.984286   311A      1.995612  
	 312A      2.005129   313A      2.022943   314A      2.025487  
	 315A      2.049484   316A      2.070932   317A      2.079564  
	 318A      2.086659   319A      2.090934   320A      2.098164  
	 321A      2.105894   322A      2.117795   323A      2.118649  
	 324A      2.121360   325A      2.123539   326A      2.138877  
	 327A      2.164897   328A      2.168894   329A      2.181214  
	 330A      2.196122   331A      2.197811   332A      2.204600  
	 333A      2.207946   334A      2.213779   335A      2.237596  
	 336A      2.245952   337A      2.255969   338A      2.263671  
	 339A      2.269747   340A      2.289853   341A      2.302161  
	 342A      2.321071   343A      2.326849   344A      2.335797  
	 345A      2.357601   346A      2.370884   347A      2.374933  
	 348A      2.384571   349A      2.392869   350A      2.408356  
	 351A      2.413330   352A      2.418861   353A      2.422697  
	 354A      2.430938   355A      2.435787   356A      2.455526  
	 357A      2.465561   358A      2.473373   359A      2.501845  
	 360A      2.502595   361A      2.515809   362A      2.526438  
	 363A      2.531904   364A      2.554621   365A      2.565796  
	 366A      2.576711   367A      2.586705   368A      2.592129  
	 369A      2.593428   370A      2.603641   371A      2.615072  
	 372A      2.624224   373A      2.637481   374A      2.645203  
	 375A      2.662100   376A      2.678750   377A      2.679321  
	 378A      2.698440   379A      2.706377   380A      2.708697  
	 381A      2.730980   382A      2.732301   383A      2.739140  
	 384A      2.766608   385A      2.767887   386A      2.821741  
	 387A      2.837107   388A      2.846050   389A      2.854674  
	 390A      2.870438   391A      2.884530   392A      2.888524  
	 393A      2.916297   394A      2.936529   395A      2.947015  
	 396A      2.961623   397A      2.967198   398A      2.974068  
	 399A      2.994746   400A      2.996611   401A      3.021078  
	 402A      3.034665   403A      3.053920   404A      3.069994  
	 405A      3.076761   406A      3.098084   407A      3.107275  
	 408A      3.138704   409A      3.149114   410A      3.164728  
	 411A      3.210151   412A      3.242230   413A      3.257045  
	 414A      3.271071   415A      3.337030   416A      3.347572  
	 417A      3.369930   418A      3.379447   419A      3.398524  
	 420A      3.489408   421A      3.517994   422A      3.539821  
	 423A      3.588466   424A      3.759695   425A      3.834449  
	 426A      3.857021   427A      3.994471   428A      4.618782  

	Final Occupation by Irrep:
	          A 
	DOCC [    41 ]

  Energy converged.

  @RHF Final Energy:  -391.51623534228622

   => Energetics <=

    Nuclear Repulsion Energy =            596.9112146965333068
    One-Electron Energy =               -1712.0556987657246282
    Two-Electron Energy =                 723.6282487269061221
    DFT Exchange-Correlation Energy =       0.0000000000000000
    Empirical Dispersion Energy =           0.0000000000000000
    Total Energy =                       -391.5162353422851993



Properties will be evaluated at   0.000000,   0.000000,   0.000000 Bohr
  ==> Properties <==


Properties computed using the SCF density density matrix
  Nuclear Dipole Moment: (a.u.)
     X:     0.1018      Y:     0.2093      Z:     3.1622

  Electronic Dipole Moment: (a.u.)
     X:    -0.1017      Y:    -0.2096      Z:    -3.2329

  Dipole Moment: (a.u.)
     X:     0.0000      Y:    -0.0004      Z:    -0.0708     Total:     0.0708

  Dipole Moment: (Debye)
     X:     0.0001      Y:    -0.0009      Z:    -0.1799     Total:     0.1799


  Saving occupied orbitals to File 180.

  Saving SAPT 2-DIMER file.

*** tstop() called on node104.bme.utexas.edu at Mon Feb 17 11:13:27 2014
Module time:
	user time   =     512.94 seconds =       8.55 minutes
	system time =       4.71 seconds =       0.08 minutes
	total time  =        141 seconds =       2.35 minutes
Total time:
	user time   =     512.94 seconds =       8.55 minutes
	system time =       4.71 seconds =       0.08 minutes
	total time  =        141 seconds =       2.35 minutes

  //>>>>>>>>>>>>>>>>>>>>>>>>>>>>>>>>>>>//
  //            Monomer A HF           //
  //<<<<<<<<<<<<<<<<<<<<<<<<<<<<<<<<<<<//


  No DF_BASIS_SCF auxiliary basis selected, defaulting to aug-cc-pvdz-jkfit


*** tstart() called on node104.bme.utexas.edu
*** at Mon Feb 17 11:13:27 2014


         ---------------------------------------------------------
                                   SCF
            by Justin Turney, Rob Parrish, and Andy Simmonett
                              RHF Reference
                        4 Threads,   7000 MiB Core
         ---------------------------------------------------------

  ==> Geometry <==

    Molecular point group: c1
    Full point group: C1

    Geometry (in Angstrom), charge = 0, multiplicity = 1:

       Center              X                  Y                   Z       
    ------------   -----------------  -----------------  -----------------
           C          0.808987130066    -1.001515470163    -2.283937975264
           H          0.862628927066    -1.101514839163    -3.369689286264
           H          1.500475149066    -1.723633185163    -1.851954528264
           C          1.125960054066     0.445488960837    -1.872012877264
           H          1.847215355066     0.910681214837    -2.541222368264
           H          1.564642637066     0.460360810837    -0.874591376264
           C         -0.235486103934     1.186225762837    -1.868697791264
           H         -0.249004550934     2.021399307837    -2.566351599264
           H         -0.439731447934     1.597531991837    -0.880690462264
           C         -1.289641126934     0.124348079837    -2.232365937264
           H         -1.464487727934     0.125779549837    -3.309680382264
           H         -2.247661226934     0.298577350837    -1.744516504264
           C         -0.637806881934    -1.199532186163    -1.835368331264
           H         -1.115366132934    -2.067090851163    -2.288681664264
           H         -0.676945593934    -1.324747142163    -0.751454866264
           C(Gh)      0.043654081066     0.085015831837     1.960747050736
           C(Gh)     -0.052690115934    -0.067070144163     3.476387529736
           H(Gh)      0.939856252066    -0.082536348163     3.928744750736
           H(Gh)     -0.611614883934     0.760814356837     3.914822441736
           H(Gh)     -0.559854813934    -0.995736223163     3.741737119736
           C(Gh)      0.757707324066     1.391920945837     1.625122170736
           H(Gh)      0.839226870066     1.525420077837     0.545440296736
           H(Gh)      0.214234937066     2.246609380837     2.030623554736
           H(Gh)      1.765311867066     1.402571360837     2.043355171736
           C(Gh)     -1.361357731934     0.104840479837     1.363427527736
           H(Gh)     -1.324426143934     0.222030414837     0.279578561736
           H(Gh)     -1.943657263934     0.932264037837     1.771773447736
           H(Gh)     -1.891260791934    -0.822946364163     1.584756820736
           C(Gh)      0.831553895066    -1.088469072163     1.383408877736
           H(Gh)      0.336333579066    -2.035459809163     1.603652025736
           H(Gh)      0.926397068066    -1.001286308163     0.300274100736
           H(Gh)      1.836271979066    -1.125873710163     1.807157333736

  Running in c1 symmetry.

  Nuclear repulsion =  188.289298286461616

  Charge       = 0
  Multiplicity = 1
  Electrons    = 40
  Nalpha       = 20
  Nbeta        = 20

  ==> Algorithm <==

  SCF Algorithm Type is DF.
  DIIS enabled.
  MOM disabled.
  Fractional occupation disabled.
  Guess Type is CORE.
  Energy threshold   = 1.00e-08
  Density threshold  = 1.00e-08
  Integral threshold = 0.00e+00

  ==> Primary Basis <==

  Basis Set: AUG-CC-PVDZ
    Number of shells: 200
    Number of basis function: 428
    Number of Cartesian functions: 448
    Spherical Harmonics?: true
    Max angular momentum: 2

  ==> Pre-Iterations <==

   -------------------------------------------------------
    Irrep   Nso     Nmo     Nalpha   Nbeta   Ndocc  Nsocc
   -------------------------------------------------------
     A        428     428       0       0       0       0
   -------------------------------------------------------
    Total     428     428      20      20      20       0
   -------------------------------------------------------

 OEINTS: Wrapper to libmints.
   by Justin Turney

   Calculation information:
      Number of atoms:                  32
      Number of AO shells:             200
      Number of SO shells:             200
      Number of primitives:            404
      Number of atomic orbitals:       448
      Number of basis functions:       428

      Number of irreps:                  1
      Number of functions per irrep: [ 428 ]

      Overlap, kinetic, potential, dipole, and quadrupole integrals
        stored in file 35.

  ==> Integral Setup <==

  ==> DFJK: Density-Fitted J/K Matrices <==

    J tasked:                  Yes
    K tasked:                  Yes
    wK tasked:                  No
    OpenMP threads:              4
    Integrals threads:           4
    Memory (MB):              5006
    Algorithm:                Core
    Integral Cache:           LOAD
    Schwarz Cutoff:          0E+00
    Fitting Condition:       1E-12

   => Auxiliary Basis Set <=

  Basis Set: aug-cc-pvdz-jkfit
    Number of shells: 544
    Number of basis function: 1564
    Number of Cartesian functions: 1780
    Spherical Harmonics?: true
    Max angular momentum: 3

  Minimum eigenvalue in the overlap matrix is 5.0353901634E-06.
  Using Symmetric Orthogonalization.
  SCF Guess: Core (One-Electron) Hamiltonian.

  Guess energy:  -157.62469795273265

  ==> Iterations <==

                        Total Energy        Delta E     RMS |[F,P]|

   @RHF iter   1:  -154.13991712840854   -1.54140e+02   1.41288e-02 
   @RHF iter   2:  -122.93848445027064    3.12014e+01   1.23147e-02 DIIS
   @RHF iter   3:  -192.57279758170151   -6.96343e+01   4.63677e-03 DIIS
   @RHF iter   4:  -194.99297099035320   -2.42017e+00   1.14703e-03 DIIS
   @RHF iter   5:  -195.17943321845556   -1.86462e-01   1.69307e-04 DIIS
   @RHF iter   6:  -195.18404152320434   -4.60830e-03   4.73247e-05 DIIS
   @RHF iter   7:  -195.18442437605833   -3.82853e-04   1.49411e-05 DIIS
   @RHF iter   8:  -195.18446549857507   -4.11225e-05   3.51820e-06 DIIS
   @RHF iter   9:  -195.18446760014106   -2.10157e-06   7.06701e-07 DIIS
   @RHF iter  10:  -195.18446768306373   -8.29227e-08   2.69464e-07 DIIS
   @RHF iter  11:  -195.18446769209643   -9.03270e-09   8.42479e-08 DIIS
   @RHF iter  12:  -195.18446769299098   -8.94545e-10   1.17132e-08 DIIS
   @RHF iter  13:  -195.18446769301326   -2.22826e-11   2.97803e-09 DIIS

  ==> Post-Iterations <==

	Orbital Energies (a.u.)
	-----------------------

	Doubly Occupied:                                                      

	   1A    -11.215757     2A    -11.215405     3A    -11.215333  
	   4A    -11.214698     5A    -11.214696     6A     -1.117167  
	   7A     -0.957771     8A     -0.957298     9A     -0.777021  
	  10A     -0.767865    11A     -0.649196    12A     -0.644062  
	  13A     -0.569117    14A     -0.567405    15A     -0.473999  
	  16A     -0.473522    17A     -0.463063    18A     -0.458995  
	  19A     -0.458897    20A     -0.447557  

	Virtual:                                                              

	  21A      0.022525    22A      0.036948    23A      0.037169  
	  24A      0.038683    25A      0.052572    26A      0.053453  
	  27A      0.054882    28A      0.057660    29A      0.059142  
	  30A      0.073838    31A      0.076026    32A      0.079427  
	  33A      0.081619    34A      0.082772    35A      0.085961  
	  36A      0.091459    37A      0.100332    38A      0.100594  
	  39A      0.108528    40A      0.113516    41A      0.116068  
	  42A      0.119384    43A      0.124061    44A      0.131346  
	  45A      0.136257    46A      0.143940    47A      0.146211  
	  48A      0.153035    49A      0.157424    50A      0.158602  
	  51A      0.161584    52A      0.165094    53A      0.169147  
	  54A      0.172781    55A      0.181668    56A      0.183715  
	  57A      0.187678    58A      0.189047    59A      0.193721  
	  60A      0.196291    61A      0.198934    62A      0.199628  
	  63A      0.209816    64A      0.210852    65A      0.213938  
	  66A      0.215522    67A      0.218575    68A      0.219851  
	  69A      0.225664    70A      0.226808    71A      0.230371  
	  72A      0.232726    73A      0.235774    74A      0.248413  
	  75A      0.250680    76A      0.251103    77A      0.266098  
	  78A      0.274456    79A      0.287835    80A      0.293898  
	  81A      0.294797    82A      0.301508    83A      0.309769  
	  84A      0.324489    85A      0.334994    86A      0.345566  
	  87A      0.350261    88A      0.352074    89A      0.373023  
	  90A      0.376558    91A      0.379636    92A      0.387585  
	  93A      0.394572    94A      0.402677    95A      0.404861  
	  96A      0.406477    97A      0.408144    98A      0.416867  
	  99A      0.427061   100A      0.427785   101A      0.429533  
	 102A      0.439098   103A      0.440462   104A      0.443568  
	 105A      0.444051   106A      0.450855   107A      0.456151  
	 108A      0.459618   109A      0.466604   110A      0.469996  
	 111A      0.475271   112A      0.480040   113A      0.485031  
	 114A      0.485853   115A      0.490305   116A      0.491954  
	 117A      0.501776   118A      0.504038   119A      0.508669  
	 120A      0.511345   121A      0.519392   122A      0.527276  
	 123A      0.531028   124A      0.534094   125A      0.540295  
	 126A      0.541800   127A      0.550332   128A      0.550891  
	 129A      0.567092   130A      0.571613   131A      0.586186  
	 132A      0.591647   133A      0.597464   134A      0.600658  
	 135A      0.602498   136A      0.607583   137A      0.616630  
	 138A      0.624061   139A      0.633409   140A      0.637309  
	 141A      0.647671   142A      0.653463   143A      0.659931  
	 144A      0.660893   145A      0.664565   146A      0.684694  
	 147A      0.688227   148A      0.694077   149A      0.694707  
	 150A      0.701269   151A      0.704689   152A      0.705792  
	 153A      0.709753   154A      0.718911   155A      0.720008  
	 156A      0.721176   157A      0.727117   158A      0.741408  
	 159A      0.745980   160A      0.747798   161A      0.751335  
	 162A      0.752852   163A      0.764280   164A      0.766363  
	 165A      0.773114   166A      0.786004   167A      0.792555  
	 168A      0.796189   169A      0.801590   170A      0.805693  
	 171A      0.809342   172A      0.811141   173A      0.818318  
	 174A      0.829029   175A      0.832240   176A      0.833787  
	 177A      0.836422   178A      0.846732   179A      0.847925  
	 180A      0.862686   181A      0.868387   182A      0.870277  
	 183A      0.880586   184A      0.883161   185A      0.888177  
	 186A      0.892509   187A      0.895187   188A      0.899517  
	 189A      0.901048   190A      0.904847   191A      0.913449  
	 192A      0.922534   193A      0.926355   194A      0.934544  
	 195A      0.942982   196A      0.944416   197A      0.957944  
	 198A      0.971116   199A      0.972193   200A      0.977708  
	 201A      0.977880   202A      0.981332   203A      0.984691  
	 204A      0.993679   205A      1.005187   206A      1.007621  
	 207A      1.011383   208A      1.020108   209A      1.025108  
	 210A      1.033808   211A      1.037442   212A      1.048960  
	 213A      1.052644   214A      1.056107   215A      1.061753  
	 216A      1.073245   217A      1.077488   218A      1.090751  
	 219A      1.101515   220A      1.109737   221A      1.127895  
	 222A      1.131854   223A      1.139463   224A      1.143538  
	 225A      1.151480   226A      1.162226   227A      1.172080  
	 228A      1.177312   229A      1.188429   230A      1.203393  
	 231A      1.205254   232A      1.215051   233A      1.230735  
	 234A      1.237670   235A      1.238395   236A      1.258354  
	 237A      1.275572   238A      1.289609   239A      1.294282  
	 240A      1.313742   241A      1.320717   242A      1.327139  
	 243A      1.359475   244A      1.363025   245A      1.376008  
	 246A      1.413267   247A      1.420372   248A      1.437241  
	 249A      1.441108   250A      1.444540   251A      1.451977  
	 252A      1.457246   253A      1.494505   254A      1.494703  
	 255A      1.509925   256A      1.537124   257A      1.548314  
	 258A      1.563546   259A      1.579811   260A      1.606536  
	 261A      1.609451   262A      1.639885   263A      1.708681  
	 264A      1.725453   265A      1.739543   266A      1.754044  
	 267A      1.815540   268A      1.836214   269A      1.842362  
	 270A      1.888226   271A      1.913525   272A      1.931312  
	 273A      1.949280   274A      1.986270   275A      2.004972  
	 276A      2.009332   277A      2.039163   278A      2.070520  
	 279A      2.095858   280A      2.098919   281A      2.103065  
	 282A      2.112329   283A      2.126156   284A      2.144494  
	 285A      2.157360   286A      2.159898   287A      2.170116  
	 288A      2.189980   289A      2.192293   290A      2.200928  
	 291A      2.207474   292A      2.215112   293A      2.235454  
	 294A      2.236431   295A      2.238090   296A      2.242996  
	 297A      2.250386   298A      2.274169   299A      2.284259  
	 300A      2.289107   301A      2.303923   302A      2.310665  
	 303A      2.321341   304A      2.338765   305A      2.342884  
	 306A      2.348984   307A      2.359321   308A      2.365435  
	 309A      2.369010   310A      2.376700   311A      2.382321  
	 312A      2.391196   313A      2.406416   314A      2.412767  
	 315A      2.424699   316A      2.432397   317A      2.439936  
	 318A      2.444364   319A      2.466515   320A      2.468312  
	 321A      2.477128   322A      2.486803   323A      2.492616  
	 324A      2.508230   325A      2.513127   326A      2.521484  
	 327A      2.524174   328A      2.527623   329A      2.533667  
	 330A      2.546746   331A      2.556422   332A      2.566846  
	 333A      2.591978   334A      2.609229   335A      2.622702  
	 336A      2.631895   337A      2.638944   338A      2.644010  
	 339A      2.658350   340A      2.665183   341A      2.674430  
	 342A      2.679260   343A      2.685571   344A      2.710150  
	 345A      2.720223   346A      2.729694   347A      2.750545  
	 348A      2.756173   349A      2.773845   350A      2.794343  
	 351A      2.807023   352A      2.814339   353A      2.820985  
	 354A      2.829768   355A      2.853795   356A      2.872286  
	 357A      2.879265   358A      2.881044   359A      2.895993  
	 360A      2.919348   361A      2.924218   362A      2.969480  
	 363A      2.992825   364A      2.995076   365A      2.999602  
	 366A      3.012780   367A      3.026770   368A      3.029098  
	 369A      3.042026   370A      3.046169   371A      3.049140  
	 372A      3.092929   373A      3.114135   374A      3.119977  
	 375A      3.175354   376A      3.186253   377A      3.220829  
	 378A      3.239923   379A      3.270536   380A      3.299465  
	 381A      3.328145   382A      3.332140   383A      3.364299  
	 384A      3.372150   385A      3.382729   386A      3.446358  
	 387A      3.459033   388A      3.475620   389A      3.499969  
	 390A      3.512275   391A      3.520847   392A      3.531849  
	 393A      3.542348   394A      3.568290   395A      3.625234  
	 396A      3.644195   397A      3.649294   398A      3.667960  
	 399A      3.703454   400A      3.778379   401A      3.886939  
	 402A      3.892184   403A      3.916042   404A      4.132684  
	 405A      4.288419   406A      4.433874   407A      4.548291  
	 408A      4.603401   409A      4.634841   410A      4.695742  
	 411A      4.740682   412A      4.750331   413A      4.779963  
	 414A      4.790606   415A      4.953403   416A      5.131035  
	 417A      5.139855   418A      5.149166   419A      5.251995  
	 420A      5.255167   421A      5.261460   422A      5.265743  
	 423A      5.384203   424A     18.242327   425A     18.875096  
	 426A     18.943726   427A     18.996119   428A     19.246708  

	Final Occupation by Irrep:
	          A 
	DOCC [    20 ]

  Energy converged.

  @RHF Final Energy:  -195.18446769301326

   => Energetics <=

    Nuclear Repulsion Energy =            188.2892982864616158
    One-Electron Energy =                -635.2298868164303940
    Two-Electron Energy =                 251.7561208369566828
    DFT Exchange-Correlation Energy =       0.0000000000000000
    Empirical Dispersion Energy =           0.0000000000000000
    Total Energy =                       -195.1844676930120670



Properties will be evaluated at   0.000000,   0.000000,   0.000000 Bohr
  ==> Properties <==


Properties computed using the SCF density density matrix
  Nuclear Dipole Moment: (a.u.)
     X:    -3.3753      Y:    -6.5622      Z:  -152.5635

  Electronic Dipole Moment: (a.u.)
     X:     3.3728      Y:     6.5565      Z:   152.5619

  Dipole Moment: (a.u.)
     X:    -0.0025      Y:    -0.0057      Z:    -0.0016     Total:     0.0065

  Dipole Moment: (Debye)
     X:    -0.0063      Y:    -0.0146      Z:    -0.0040     Total:     0.0164


  Saving occupied orbitals to File 180.

  Saving SAPT 2-MONOMER_A file.

*** tstop() called on node104.bme.utexas.edu at Mon Feb 17 11:14:46 2014
Module time:
	user time   =     294.79 seconds =       4.91 minutes
	system time =       2.50 seconds =       0.04 minutes
	total time  =         79 seconds =       1.32 minutes
Total time:
	user time   =     807.75 seconds =      13.46 minutes
	system time =       7.21 seconds =       0.12 minutes
	total time  =        220 seconds =       3.67 minutes

  //>>>>>>>>>>>>>>>>>>>>>>>>>>>>>>>>>>>//
  //            Monomer B HF           //
  //<<<<<<<<<<<<<<<<<<<<<<<<<<<<<<<<<<<//


  No DF_BASIS_SCF auxiliary basis selected, defaulting to aug-cc-pvdz-jkfit


*** tstart() called on node104.bme.utexas.edu
*** at Mon Feb 17 11:14:46 2014


         ---------------------------------------------------------
                                   SCF
            by Justin Turney, Rob Parrish, and Andy Simmonett
                              RHF Reference
                        4 Threads,   7000 MiB Core
         ---------------------------------------------------------

  ==> Geometry <==

    Molecular point group: c1
    Full point group: C1

    Geometry (in Angstrom), charge = 0, multiplicity = 1:

       Center              X                  Y                   Z       
    ------------   -----------------  -----------------  -----------------
           C(Gh)      0.808987130066    -1.001515470163    -2.283937975264
           H(Gh)      0.862628927066    -1.101514839163    -3.369689286264
           H(Gh)      1.500475149066    -1.723633185163    -1.851954528264
           C(Gh)      1.125960054066     0.445488960837    -1.872012877264
           H(Gh)      1.847215355066     0.910681214837    -2.541222368264
           H(Gh)      1.564642637066     0.460360810837    -0.874591376264
           C(Gh)     -0.235486103934     1.186225762837    -1.868697791264
           H(Gh)     -0.249004550934     2.021399307837    -2.566351599264
           H(Gh)     -0.439731447934     1.597531991837    -0.880690462264
           C(Gh)     -1.289641126934     0.124348079837    -2.232365937264
           H(Gh)     -1.464487727934     0.125779549837    -3.309680382264
           H(Gh)     -2.247661226934     0.298577350837    -1.744516504264
           C(Gh)     -0.637806881934    -1.199532186163    -1.835368331264
           H(Gh)     -1.115366132934    -2.067090851163    -2.288681664264
           H(Gh)     -0.676945593934    -1.324747142163    -0.751454866264
           C          0.043654081066     0.085015831837     1.960747050736
           C         -0.052690115934    -0.067070144163     3.476387529736
           H          0.939856252066    -0.082536348163     3.928744750736
           H         -0.611614883934     0.760814356837     3.914822441736
           H         -0.559854813934    -0.995736223163     3.741737119736
           C          0.757707324066     1.391920945837     1.625122170736
           H          0.839226870066     1.525420077837     0.545440296736
           H          0.214234937066     2.246609380837     2.030623554736
           H          1.765311867066     1.402571360837     2.043355171736
           C         -1.361357731934     0.104840479837     1.363427527736
           H         -1.324426143934     0.222030414837     0.279578561736
           H         -1.943657263934     0.932264037837     1.771773447736
           H         -1.891260791934    -0.822946364163     1.584756820736
           C          0.831553895066    -1.088469072163     1.383408877736
           H          0.336333579066    -2.035459809163     1.603652025736
           H          0.926397068066    -1.001286308163     0.300274100736
           H          1.836271979066    -1.125873710163     1.807157333736

  Running in c1 symmetry.

  Nuclear repulsion =  199.344815166686601

  Charge       = 0
  Multiplicity = 1
  Electrons    = 42
  Nalpha       = 21
  Nbeta        = 21

  ==> Algorithm <==

  SCF Algorithm Type is DF.
  DIIS enabled.
  MOM disabled.
  Fractional occupation disabled.
  Guess Type is CORE.
  Energy threshold   = 1.00e-08
  Density threshold  = 1.00e-08
  Integral threshold = 0.00e+00

  ==> Primary Basis <==

  Basis Set: AUG-CC-PVDZ
    Number of shells: 200
    Number of basis function: 428
    Number of Cartesian functions: 448
    Spherical Harmonics?: true
    Max angular momentum: 2

  ==> Pre-Iterations <==

   -------------------------------------------------------
    Irrep   Nso     Nmo     Nalpha   Nbeta   Ndocc  Nsocc
   -------------------------------------------------------
     A        428     428       0       0       0       0
   -------------------------------------------------------
    Total     428     428      21      21      21       0
   -------------------------------------------------------

 OEINTS: Wrapper to libmints.
   by Justin Turney

   Calculation information:
      Number of atoms:                  32
      Number of AO shells:             200
      Number of SO shells:             200
      Number of primitives:            404
      Number of atomic orbitals:       448
      Number of basis functions:       428

      Number of irreps:                  1
      Number of functions per irrep: [ 428 ]

      Overlap, kinetic, potential, dipole, and quadrupole integrals
        stored in file 35.

  ==> Integral Setup <==

  ==> DFJK: Density-Fitted J/K Matrices <==

    J tasked:                  Yes
    K tasked:                  Yes
    wK tasked:                  No
    OpenMP threads:              4
    Integrals threads:           4
    Memory (MB):              5006
    Algorithm:                Core
    Integral Cache:           LOAD
    Schwarz Cutoff:          0E+00
    Fitting Condition:       1E-12

   => Auxiliary Basis Set <=

  Basis Set: aug-cc-pvdz-jkfit
    Number of shells: 544
    Number of basis function: 1564
    Number of Cartesian functions: 1780
    Spherical Harmonics?: true
    Max angular momentum: 3

  Minimum eigenvalue in the overlap matrix is 5.0353901634E-06.
  Using Symmetric Orthogonalization.
  SCF Guess: Core (One-Electron) Hamiltonian.

  Guess energy:  -162.57435866468103

  ==> Iterations <==

                        Total Energy        Delta E     RMS |[F,P]|

   @RHF iter   1:  -148.31699443370223   -1.48317e+02   1.57354e-02 
   @RHF iter   2:  -118.21486648949491    3.01021e+01   1.24128e-02 DIIS
   @RHF iter   3:  -191.71172859476138   -7.34969e+01   6.35073e-03 DIIS
   @RHF iter   4:  -195.33466101484305   -3.62293e+00   3.12141e-03 DIIS
   @RHF iter   5:  -196.27504645763958   -9.40385e-01   7.47303e-04 DIIS
   @RHF iter   6:  -196.35363518394831   -7.85887e-02   1.11066e-04 DIIS
   @RHF iter   7:  -196.35567472092913   -2.03954e-03   2.26362e-05 DIIS
   @RHF iter   8:  -196.35576335057652   -8.86296e-05   3.71766e-06 DIIS
   @RHF iter   9:  -196.35576612471306   -2.77414e-06   9.70717e-07 DIIS
   @RHF iter  10:  -196.35576625995463   -1.35242e-07   3.10814e-07 DIIS
   @RHF iter  11:  -196.35576627314282   -1.31882e-08   5.36472e-08 DIIS
   @RHF iter  12:  -196.35576627362815   -4.85329e-10   9.29280e-09 DIIS

  ==> Post-Iterations <==

	Orbital Energies (a.u.)
	-----------------------

	Doubly Occupied:                                                      

	   1A    -11.231353     2A    -11.211924     3A    -11.211770  
	   4A    -11.211729     5A    -11.211699     6A     -1.107729  
	   7A     -0.929951     8A     -0.929742     9A     -0.929467  
	  10A     -0.730272    11A     -0.611665    12A     -0.611485  
	  13A     -0.610980    14A     -0.552565    15A     -0.552177  
	  16A     -0.508407    17A     -0.508300    18A     -0.508269  
	  19A     -0.451847    20A     -0.451670    21A     -0.451483  

	Virtual:                                                              

	  22A      0.023234    23A      0.037296    24A      0.038015  
	  25A      0.038669    26A      0.054823    27A      0.055578  
	  28A      0.055692    29A      0.057682    30A      0.059205  
	  31A      0.075185    32A      0.076239    33A      0.080312  
	  34A      0.081708    35A      0.083095    36A      0.085981  
	  37A      0.091865    38A      0.100474    39A      0.101324  
	  40A      0.107357    41A      0.110292    42A      0.115406  
	  43A      0.118350    44A      0.123913    45A      0.137917  
	  46A      0.142344    47A      0.142979    48A      0.149963  
	  49A      0.150699    50A      0.157133    51A      0.166714  
	  52A      0.166851    53A      0.168283    54A      0.171479  
	  55A      0.175918    56A      0.182649    57A      0.185233  
	  58A      0.187915    59A      0.188239    60A      0.190947  
	  61A      0.197433    62A      0.203006    63A      0.204449  
	  64A      0.206751    65A      0.207831    66A      0.215736  
	  67A      0.218617    68A      0.221096    69A      0.223907  
	  70A      0.224509    71A      0.229240    72A      0.235051  
	  73A      0.236417    74A      0.238467    75A      0.239777  
	  76A      0.246789    77A      0.256138    78A      0.258337  
	  79A      0.264861    80A      0.275632    81A      0.284656  
	  82A      0.288237    83A      0.290047    84A      0.312654  
	  85A      0.322704    86A      0.337031    87A      0.339585  
	  88A      0.350780    89A      0.363383    90A      0.376379  
	  91A      0.377340    92A      0.382225    93A      0.383615  
	  94A      0.399602    95A      0.403506    96A      0.405075  
	  97A      0.407762    98A      0.409605    99A      0.416165  
	 100A      0.417121   101A      0.427800   102A      0.429630  
	 103A      0.444317   104A      0.449495   105A      0.450931  
	 106A      0.452639   107A      0.455390   108A      0.461476  
	 109A      0.465355   110A      0.470427   111A      0.478231  
	 112A      0.479717   113A      0.488067   114A      0.492151  
	 115A      0.495891   116A      0.496539   117A      0.498983  
	 118A      0.504133   119A      0.511366   120A      0.513052  
	 121A      0.514222   122A      0.516500   123A      0.518712  
	 124A      0.528662   125A      0.533252   126A      0.545007  
	 127A      0.546523   128A      0.549109   129A      0.551509  
	 130A      0.563720   131A      0.567861   132A      0.571072  
	 133A      0.576181   134A      0.585476   135A      0.595313  
	 136A      0.601792   137A      0.603762   138A      0.609258  
	 139A      0.611087   140A      0.614726   141A      0.627451  
	 142A      0.628004   143A      0.643010   144A      0.649410  
	 145A      0.654488   146A      0.662098   147A      0.666967  
	 148A      0.669275   149A      0.672742   150A      0.681625  
	 151A      0.682345   152A      0.684406   153A      0.689444  
	 154A      0.691916   155A      0.706158   156A      0.712514  
	 157A      0.720300   158A      0.729510   159A      0.734620  
	 160A      0.738404   161A      0.747119   162A      0.750045  
	 163A      0.762071   164A      0.763199   165A      0.766433  
	 166A      0.775228   167A      0.781281   168A      0.798797  
	 169A      0.802669   170A      0.803381   171A      0.810837  
	 172A      0.811098   173A      0.821540   174A      0.831582  
	 175A      0.831671   176A      0.836772   177A      0.840623  
	 178A      0.842329   179A      0.855107   180A      0.867214  
	 181A      0.874130   182A      0.877556   183A      0.878239  
	 184A      0.882478   185A      0.888248   186A      0.891487  
	 187A      0.898157   188A      0.899659   189A      0.903320  
	 190A      0.911479   191A      0.914391   192A      0.919117  
	 193A      0.926035   194A      0.938130   195A      0.943295  
	 196A      0.945586   197A      0.948092   198A      0.953306  
	 199A      0.956904   200A      0.959452   201A      0.984390  
	 202A      0.991420   203A      0.998808   204A      1.002276  
	 205A      1.006419   206A      1.013729   207A      1.019953  
	 208A      1.026040   209A      1.026542   210A      1.050123  
	 211A      1.054953   212A      1.057029   213A      1.062376  
	 214A      1.073391   215A      1.079145   216A      1.083367  
	 217A      1.091774   218A      1.103351   219A      1.108096  
	 220A      1.114381   221A      1.121298   222A      1.133540  
	 223A      1.137159   224A      1.149038   225A      1.152869  
	 226A      1.156400   227A      1.171726   228A      1.175278  
	 229A      1.186643   230A      1.195021   231A      1.199530  
	 232A      1.210167   233A      1.216362   234A      1.227959  
	 235A      1.246251   236A      1.248704   237A      1.253130  
	 238A      1.259745   239A      1.267797   240A      1.275220  
	 241A      1.286767   242A      1.290066   243A      1.311674  
	 244A      1.332332   245A      1.350842   246A      1.353634  
	 247A      1.357935   248A      1.364961   249A      1.374198  
	 250A      1.409500   251A      1.417232   252A      1.427208  
	 253A      1.437188   254A      1.443381   255A      1.476897  
	 256A      1.481995   257A      1.505794   258A      1.523196  
	 259A      1.601444   260A      1.634128   261A      1.676358  
	 262A      1.692188   263A      1.705872   264A      1.711913  
	 265A      1.730616   266A      1.734769   267A      1.743144  
	 268A      1.762183   269A      1.814930   270A      1.815244  
	 271A      1.833971   272A      1.871194   273A      1.877716  
	 274A      1.929971   275A      1.937789   276A      1.952891  
	 277A      1.982099   278A      2.002258   279A      2.006964  
	 280A      2.046011   281A      2.054996   282A      2.080471  
	 283A      2.098828   284A      2.108847   285A      2.115914  
	 286A      2.127672   287A      2.140216   288A      2.159864  
	 289A      2.171745   290A      2.172609   291A      2.186539  
	 292A      2.191714   293A      2.202884   294A      2.215059  
	 295A      2.222946   296A      2.242027   297A      2.246958  
	 298A      2.272475   299A      2.279827   300A      2.292152  
	 301A      2.310905   302A      2.322074   303A      2.327462  
	 304A      2.334482   305A      2.340550   306A      2.341541  
	 307A      2.365037   308A      2.374481   309A      2.377040  
	 310A      2.378205   311A      2.383826   312A      2.403361  
	 313A      2.412630   314A      2.430862   315A      2.434421  
	 316A      2.443075   317A      2.445375   318A      2.451969  
	 319A      2.474814   320A      2.480868   321A      2.482826  
	 322A      2.489762   323A      2.501019   324A      2.518461  
	 325A      2.520739   326A      2.525805   327A      2.537473  
	 328A      2.545790   329A      2.556441   330A      2.562499  
	 331A      2.574709   332A      2.579934   333A      2.589138  
	 334A      2.596356   335A      2.602302   336A      2.613148  
	 337A      2.622890   338A      2.632168   339A      2.652353  
	 340A      2.662612   341A      2.669837   342A      2.675318  
	 343A      2.686813   344A      2.689584   345A      2.697013  
	 346A      2.700702   347A      2.722889   348A      2.741837  
	 349A      2.744730   350A      2.753873   351A      2.774610  
	 352A      2.786546   353A      2.790604   354A      2.808386  
	 355A      2.832681   356A      2.869915   357A      2.875525  
	 358A      2.885407   359A      2.891479   360A      2.903306  
	 361A      2.933979   362A      2.937284   363A      2.957687  
	 364A      2.966782   365A      2.975622   366A      2.992599  
	 367A      3.010454   368A      3.026848   369A      3.028611  
	 370A      3.035233   371A      3.042190   372A      3.056987  
	 373A      3.074290   374A      3.085298   375A      3.114081  
	 376A      3.119224   377A      3.134962   378A      3.167251  
	 379A      3.174415   380A      3.188032   381A      3.194485  
	 382A      3.218568   383A      3.247273   384A      3.262473  
	 385A      3.290381   386A      3.301481   387A      3.376078  
	 388A      3.383496   389A      3.401021   390A      3.440609  
	 391A      3.467624   392A      3.475071   393A      3.515801  
	 394A      3.570619   395A      3.594231   396A      3.642447  
	 397A      3.692731   398A      3.757902   399A      3.797975  
	 400A      3.842187   401A      3.848463   402A      3.913932  
	 403A      3.961346   404A      4.024854   405A      4.076658  
	 406A      4.108179   407A      4.179241   408A      4.264242  
	 409A      4.501902   410A      4.555188   411A      4.758978  
	 412A      4.779238   413A      4.844129   414A      4.870676  
	 415A      4.898430   416A      5.007725   417A      5.051799  
	 418A      5.158954   419A      5.203878   420A      5.219339  
	 421A      5.300952   422A      5.320510   423A      5.842514  
	 424A     18.375488   425A     18.688056   426A     18.722934  
	 427A     19.377454   428A     19.892536  

	Final Occupation by Irrep:
	          A 
	DOCC [    21 ]

  Energy converged.

  @RHF Final Energy:  -196.35576627362815

   => Energetics <=

    Nuclear Repulsion Energy =            199.3448151666866011
    One-Electron Energy =                -658.3522165342699282
    Two-Electron Energy =                 262.6516350939565996
    DFT Exchange-Correlation Energy =       0.0000000000000000
    Empirical Dispersion Energy =           0.0000000000000000
    Total Energy =                       -196.3557662736267275



Properties will be evaluated at   0.000000,   0.000000,   0.000000 Bohr
  ==> Properties <==


Properties computed using the SCF density density matrix
  Nuclear Dipole Moment: (a.u.)
     X:     3.4771      Y:     6.7715      Z:   155.7257

  Electronic Dipole Moment: (a.u.)
     X:    -3.4771      Y:    -6.7714      Z:  -155.7269

  Dipole Moment: (a.u.)
     X:     0.0001      Y:     0.0001      Z:    -0.0012     Total:     0.0012

  Dipole Moment: (Debye)
     X:     0.0002      Y:     0.0003      Z:    -0.0031     Total:     0.0031


  Saving occupied orbitals to File 180.

  Saving SAPT 2-MONOMER_B file.

*** tstop() called on node104.bme.utexas.edu at Mon Feb 17 11:16:00 2014
Module time:
	user time   =     273.29 seconds =       4.55 minutes
	system time =       2.38 seconds =       0.04 minutes
	total time  =         74 seconds =       1.23 minutes
Total time:
	user time   =    1081.06 seconds =      18.02 minutes
	system time =       9.59 seconds =       0.16 minutes
	total time  =        294 seconds =       4.90 minutes
  No DF_BASIS_SAPT auxiliary basis selected, defaulting to aug-cc-pvdz-ri

  //>>>>>>>>>>>>>>>>>>>>>>>>>>>>>>>>>>>//
  //               SAPT2+              //
  //<<<<<<<<<<<<<<<<<<<<<<<<<<<<<<<<<<<//


*** tstart() called on node104.bme.utexas.edu
*** at Mon Feb 17 11:16:00 2014

        SAPT2+  
    Ed Hohenstein
     6 June 2009

      Orbital Information
  --------------------------
    NSO        =       428
    NMO        =       428
    NRI        =      1226
    NOCC A     =        20
    NOCC B     =        21
    FOCC A     =         5
    FOCC B     =         5
    NVIR A     =       408
    NVIR B     =       407

    Estimated memory usage: 3394.5 MB

    Elst10,r            =    -0.013079097558 H
    Exch10 (S^2)        =     0.040397899258 H
    Exch10              =     0.040984485988 H
    Ind20,r (A<-B)      =    -0.003255915978 H
    Ind20,r (B<-A)      =    -0.005420425282 H
    Ind20,r             =    -0.008676341259 H
    Exch-Ind20,r (A<-B) =     0.002602070562 H
    Exch-Ind20,r (B<-A) =     0.004938294435 H
    Exch-Ind20,r        =     0.007540364997 H
    Disp20              =    -0.024068352228 H
    Exch-Disp20         =     0.003496842486 H
    Elst12,r            =    -0.002069631203 H
    Exch11              =     0.000976255462 H
    Exch12              =     0.003485348905 H
    Ind22               =    -0.001470925736 H
    Disp21              =     0.002143004172 H
    Disp22 (SDQ)        =     0.000169488150 H

    (i =   1 of  16)       2254 seconds
    (i =   2 of  16)       4508 seconds
    (i =   3 of  16)       6762 seconds
    (i =   4 of  16)       9015 seconds
    (i =   5 of  16)      11270 seconds
    (i =   6 of  16)      13531 seconds
    (i =   7 of  16)      15790 seconds
    (i =   8 of  16)      18048 seconds
    (i =   9 of  16)      20303 seconds
    (i =  10 of  16)      22560 seconds
    (i =  11 of  16)      24816 seconds
    (i =  12 of  16)      27074 seconds
    (i =  13 of  16)      29333 seconds
    (i =  14 of  16)      31589 seconds
    (i =  15 of  16)      33847 seconds
    (i =  16 of  16)      36105 seconds

    Disp220 (T)         =    -0.001620158866 H

    (i =   1 of  15)       2644 seconds
    (i =   2 of  15)       5288 seconds
    (i =   3 of  15)       7931 seconds
    (i =   4 of  15)      10576 seconds
    (i =   5 of  15)      13218 seconds
    (i =   6 of  15)      15860 seconds
    (i =   7 of  15)      18503 seconds
    (i =   8 of  15)      21145 seconds
    (i =   9 of  15)      23784 seconds
    (i =  10 of  15)      26426 seconds
    (i =  11 of  15)      29067 seconds
    (i =  12 of  15)      31709 seconds
    (i =  13 of  15)      34348 seconds
    (i =  14 of  15)      36988 seconds
    (i =  15 of  15)      39629 seconds

    Disp202 (T)         =    -0.001612960267 H

    Disp22 (T)          =    -0.003233119133 H

    SAPT Results  
  -----------------------------------------------------------------------
    Electrostatics         -15.14872876 mH      -9.50597121 kcal mol^-1
      Elst10,r             -13.07909756 mH      -8.20725797 kcal mol^-1
      Elst12,r              -2.06963120 mH      -1.29871324 kcal mol^-1

    Exchange                45.44609035 mH      28.51785344 kcal mol^-1
      Exch10                40.98448599 mH      25.71815431 kcal mol^-1
      Exch10(S^2)           40.39789926 mH      25.35006556 kcal mol^-1
      Exch11(S^2)            0.97625546 mH       0.61260958 kcal mol^-1
      Exch12(S^2)            3.48534890 mH       2.18708955 kcal mol^-1

    Induction               -4.09934948 mH      -2.57238074 kcal mol^-1
      Ind20,r               -8.67634126 mH      -5.44448657 kcal mol^-1
      Ind22                 -1.47092574 mH      -0.92301987 kcal mol^-1
      Exch-Ind20,r           7.54036500 mH       4.73165067 kcal mol^-1
      Exch-Ind22             1.27834033 mH       0.80217070 kcal mol^-1
      delta HF,r (2)        -2.77078781 mH      -1.73869568 kcal mol^-1

    Dispersion             -21.49213655 mH     -13.48651986 kcal mol^-1
      Disp20               -24.06835223 mH     -15.10311967 kcal mol^-1
      Disp21                 2.14300417 mH       1.34475548 kcal mol^-1
      Disp22 (SDQ)           0.16948815 mH       0.10635542 kcal mol^-1
      Disp22 (T)            -3.23311913 mH      -2.02881297 kcal mol^-1
      Exch-Disp20            3.49684249 mH       2.19430188 kcal mol^-1

    Total HF                23.99862436 mH      15.05936477 kcal mol^-1
    Total SAPT0              3.42711461 mH       2.15054698 kcal mol^-1
    Total SAPT2              5.62650237 mH       3.53068369 kcal mol^-1
    Total SAPT2+             4.70587556 mH       2.95298162 kcal mol^-1

*** tstop() called on node104.bme.utexas.edu at Tue Feb 18 10:03:18 2014
Module time:
	user time   =  287668.05 seconds =    4794.47 minutes
	system time =     350.90 seconds =       5.85 minutes
	total time  =      82038 seconds =    1367.30 minutes
Total time:
	user time   =  288749.11 seconds =    4812.49 minutes
	system time =     360.49 seconds =       6.01 minutes
	total time  =      82332 seconds =    1372.20 minutes

*** PSI4 exiting successfully. Buy a developer a beer!
