    -----------------------------------------------------------------------
          PSI4: An Open-Source Ab Initio Electronic Structure Package
                              PSI 4.0.0-beta4 Driver

    J. M. Turney, A. C. Simmonett, R. M. Parrish, E. G. Hohenstein,
    F. A. Evangelista, J. T. Fermann, B. J. Mintz, L. A. Burns, J. J. Wilke,
    M. L. Abrams, N. J. Russ, M. L. Leininger, C. L. Janssen, E. T. Seidl,
    W. D. Allen, H. F. Schaefer, R. A. King, E. F. Valeev, C. D. Sherrill,
    and T. D. Crawford, WIREs Comput. Mol. Sci., (2011) (doi: 10.1002/wcms.93)

                         Additional Contributions by
    A. E. DePrince, M. Saitow, U. Bozkaya, A. Yu. Sokolov
    -----------------------------------------------------------------------

    Process ID:  22710
    PSI4DATADIR: /home/xzhu216/psi4/psi4-install/share/psi

    Using LocalCommunicator (Number of processes = 1)

    Memory level set to 256.000 MB

  ==> Input File <==

--------------------------------------------------------------------------
#psi4
#
memory 15 gb

molecule Cyclopentane_Neopentane {
0 1
C    0.799914079  -1.022051643   0.687736956
H    0.853555876  -1.122051012  -0.398014355
H    1.491402098  -1.744169358   1.119720403
C    1.116887003   0.424952788   1.099662054
H    1.838142304   0.890145042   0.430452563
H    1.555569586   0.439824638   2.097083555
C   -0.244559155   1.165689590   1.102977140
H   -0.258077602   2.000863135   0.405323332
H   -0.448804499   1.576995819   2.090984469
C   -1.298714178   0.103811907   0.739308994
H   -1.473560779   0.105243377  -0.338005451
H   -2.256734278   0.278041178   1.227158427
C   -0.646879933  -1.220068359   1.136306600
H   -1.124439184  -2.087627024   0.682993267
H   -0.686018645  -1.345283315   2.220220065
--
0 1
C    0.046078361   0.086870055   5.447485941
C   -0.050265836  -0.065215921   6.963126420
H    0.942280532  -0.080682125   7.415483641
H   -0.609190604   0.762668580   7.401561332
H   -0.557430534  -0.993882000   7.228476010
C    0.760131604   1.393775169   5.111861061
H    0.841651150   1.527274301   4.032179187
H    0.216659217   2.248463604   5.517362445
H    1.767736147   1.404425584   5.530094062
C   -1.358933452   0.106694703   4.850166418
H   -1.322001864   0.223884638   3.766317452
H   -1.941232984   0.934118261   5.258512338
H   -1.888836512  -0.821092141   5.071495711
C    0.833978175  -1.086614849   4.870147768
H    0.338757859  -2.033605586   5.090390916
H    0.928821348  -0.999432085   3.787012991
H    1.838696259  -1.124019487   5.293896224
units angstrom
no_reorient  #important for SAPT in psi4, default
symmetry c1  #important for SAPT in psi4, default
}

set {
basis aug-cc-pVDZ
scf_type DF
freeze_core True
}
energy('sapt2+')
--------------------------------------------------------------------------

  Memory set to  15.000 GiB by Python script.

  //>>>>>>>>>>>>>>>>>>>>>>>>>>>>>>>>>>>//
  //              Dimer HF             //
  //<<<<<<<<<<<<<<<<<<<<<<<<<<<<<<<<<<<//


  No DF_BASIS_SCF auxiliary basis selected, defaulting to aug-cc-pvdz-jkfit


*** tstart() called on genome.bme.utexas.edu
*** at Wed Oct  2 12:02:16 2013


         ---------------------------------------------------------
                                   SCF
            by Justin Turney, Rob Parrish, and Andy Simmonett
                              RHF Reference
                        4 Threads,  15000 MiB Core
         ---------------------------------------------------------

  ==> Geometry <==

    Molecular point group: c1
    Full point group: C1

    Geometry (in Angstrom), charge = 0, multiplicity = 1:

       Center              X                  Y                   Z       
    ------------   -----------------  -----------------  -----------------
           C          0.803156962683    -1.012869388429    -2.545121122369
           H          0.856798759683    -1.112868757429    -3.630872433369
           H          1.494644981683    -1.734987103429    -2.113137675369
           C          1.120129886683     0.434135042571    -2.133196024369
           H          1.841385187683     0.899327296571    -2.802405515369
           H          1.558812469683     0.449006892571    -1.135774523369
           C         -0.241316271317     1.174871844571    -2.129880938369
           H         -0.254834718317     2.010045389571    -2.827534746369
           H         -0.445561615317     1.586178073571    -1.141873609369
           C         -1.295471294317     0.112994161571    -2.493549084369
           H         -1.470317895317     0.114425631571    -3.570863529369
           H         -2.253491394317     0.287223432571    -2.005699651369
           C         -0.643637049317    -1.210886104429    -2.096551478369
           H         -1.121196300317    -2.078444769429    -2.549864811369
           H         -0.682775761317    -1.336101060429    -1.012638013369
           C          0.049321244683     0.096052309571     2.214627862631
           C         -0.047022952317    -0.056033666429     3.730268341631
           H          0.945523415683    -0.071499870429     4.182625562631
           H         -0.605947720317     0.771850834571     4.168703253631
           H         -0.554187650317    -0.984699745429     3.995617931631
           C          0.763374487683     1.402957423571     1.879002982631
           H          0.844894033683     1.536456555571     0.799321108631
           H          0.219902100683     2.257645858571     2.284504366631
           H          1.770979030683     1.413607838571     2.297235983631
           C         -1.355690568317     0.115876957571     1.617308339631
           H         -1.318758980317     0.233066892571     0.533459373631
           H         -1.937990100317     0.943300515571     2.025654259631
           H         -1.885593628317    -0.811909886429     1.838637632631
           C          0.837221058683    -1.077432594429     1.637289689631
           H          0.342000742683    -2.024423331429     1.857532837631
           H          0.932064231683    -0.990249830429     0.554154912631
           H          1.841939142683    -1.114837232429     2.061038145631

  Running in c1 symmetry.

  Nuclear repulsion =  575.567385144956347

  Charge       = 0
  Multiplicity = 1
  Electrons    = 82
  Nalpha       = 41
  Nbeta        = 41

  ==> Algorithm <==

  SCF Algorithm Type is DF.
  DIIS enabled.
  MOM disabled.
  Fractional occupation disabled.
  Guess Type is CORE.
  Energy threshold   = 1.00e-08
  Density threshold  = 1.00e-08
  Integral threshold = 0.00e+00

  ==> Primary Basis <==

  Basis Set: AUG-CC-PVDZ
    Number of shells: 200
    Number of basis function: 428
    Number of Cartesian functions: 448
    Spherical Harmonics?: true
    Max angular momentum: 2

  ==> Pre-Iterations <==

   -------------------------------------------------------
    Irrep   Nso     Nmo     Nalpha   Nbeta   Ndocc  Nsocc
   -------------------------------------------------------
     A        428     428       0       0       0       0
   -------------------------------------------------------
    Total     428     428      41      41      41       0
   -------------------------------------------------------

 OEINTS: Wrapper to libmints.
   by Justin Turney

   Calculation information:
      Number of atoms:                  32
      Number of AO shells:             200
      Number of SO shells:             200
      Number of primitives:            404
      Number of atomic orbitals:       448
      Number of basis functions:       428

      Number of irreps:                  1
      Number of functions per irrep: [ 428 ]

      Overlap, kinetic, potential, dipole, and quadrupole integrals
        stored in file 35.

  ==> Integral Setup <==

  ==> DFJK: Density-Fitted J/K Matrices <==

    J tasked:                  Yes
    K tasked:                  Yes
    wK tasked:                  No
    OpenMP threads:              4
    Integrals threads:           4
    Memory (MB):             10728
    Algorithm:                Core
    Integral Cache:           SAVE
    Schwarz Cutoff:          0E+00
    Fitting Condition:       1E-12

   => Auxiliary Basis Set <=

  Basis Set: aug-cc-pvdz-jkfit
    Number of shells: 544
    Number of basis function: 1564
    Number of Cartesian functions: 1780
    Spherical Harmonics?: true
    Max angular momentum: 3

  Minimum eigenvalue in the overlap matrix is 5.9294064769E-06.
  Using Symmetric Orthogonalization.
  SCF Guess: Core (One-Electron) Hamiltonian.

  Guess energy:  -324.46778076035730

  ==> Iterations <==

                        Total Energy        Delta E     RMS |[F,P]|

   @RHF iter   1:  -293.56692210032372   -2.93567e+02   2.20638e-02 
   @RHF iter   2:  -133.06225635667454    1.60505e+02   2.65538e-02 DIIS
   @RHF iter   3:  -263.91521370398891   -1.30853e+02   1.87786e-02 DIIS
   @RHF iter   4:  -196.87676846804982    6.70384e+01   2.55801e-02 DIIS
   @RHF iter   5:  -386.18460352112663   -1.89308e+02   5.92447e-03 DIIS
   @RHF iter   6:  -390.78687725990369   -4.60227e+00   2.69075e-03 DIIS
   @RHF iter   7:  -391.50575989366507   -7.18883e-01   4.62546e-04 DIIS
   @RHF iter   8:  -391.53072657216558   -2.49667e-02   1.29978e-04 DIIS
   @RHF iter   9:  -391.53325738037597   -2.53081e-03   4.06079e-05 DIIS
   @RHF iter  10:  -391.53351015377154   -2.52773e-04   1.12451e-05 DIIS
   @RHF iter  11:  -391.53353729360163   -2.71398e-05   2.91324e-06 DIIS
   @RHF iter  12:  -391.53353884544947   -1.55185e-06   9.83908e-07 DIIS
   @RHF iter  13:  -391.53353901379876   -1.68349e-07   2.64618e-07 DIIS
   @RHF iter  14:  -391.53353903018854   -1.63898e-08   6.90495e-08 DIIS
   @RHF iter  15:  -391.53353903104539   -8.56858e-10   2.04339e-08 DIIS
   @RHF iter  16:  -391.53353903112065   -7.52607e-11   5.41155e-09 DIIS

  ==> Post-Iterations <==

	Orbital Energies (a.u.)
	-----------------------

	Doubly Occupied:                                                      

	   1A    -11.231492     2A    -11.216276     3A    -11.216009  
	   4A    -11.215730     5A    -11.215323     6A    -11.214402  
	   7A    -11.211791     8A    -11.211701     9A    -11.211598  
	  10A    -11.211514    11A     -1.118457    12A     -1.107932  
	  13A     -0.958981    14A     -0.958463    15A     -0.930436  
	  16A     -0.930046    17A     -0.929926    18A     -0.778294  
	  19A     -0.769052    20A     -0.730937    21A     -0.653305  
	  22A     -0.644962    23A     -0.612403    24A     -0.611965  
	  25A     -0.609392    26A     -0.574469    27A     -0.571516  
	  28A     -0.551089    29A     -0.549758    30A     -0.508696  
	  31A     -0.508523    32A     -0.508289    33A     -0.475209  
	  34A     -0.474828    35A     -0.464067    36A     -0.463710  
	  37A     -0.459567    38A     -0.452369    39A     -0.451684  
	  40A     -0.448331    41A     -0.444732  

	Virtual:                                                              

	  42A      0.033257    43A      0.040418    44A      0.041771  
	  45A      0.042999    46A      0.054870    47A      0.056029  
	  48A      0.056988    49A      0.059164    50A      0.060562  
	  51A      0.074765    52A      0.075534    53A      0.080859  
	  54A      0.081891    55A      0.083139    56A      0.092447  
	  57A      0.099183    58A      0.102013    59A      0.108016  
	  60A      0.113351    61A      0.116155    62A      0.125915  
	  63A      0.126431    64A      0.141854    65A      0.143465  
	  66A      0.146541    67A      0.153877    68A      0.155187  
	  69A      0.160844    70A      0.165052    71A      0.171723  
	  72A      0.171830    73A      0.174988    74A      0.176485  
	  75A      0.178665    76A      0.183667    77A      0.187231  
	  78A      0.187251    79A      0.197241    80A      0.197990  
	  81A      0.203624    82A      0.205726    83A      0.208125  
	  84A      0.210338    85A      0.211573    86A      0.212311  
	  87A      0.220704    88A      0.221871    89A      0.223767  
	  90A      0.229523    91A      0.234163    92A      0.237886  
	  93A      0.238566    94A      0.243878    95A      0.245008  
	  96A      0.254783    97A      0.256177    98A      0.261157  
	  99A      0.269001   100A      0.277517   101A      0.293811  
	 102A      0.294538   103A      0.296248   104A      0.307989  
	 105A      0.321804   106A      0.325630   107A      0.341430  
	 108A      0.341960   109A      0.358315   110A      0.365011  
	 111A      0.368169   112A      0.379814   113A      0.384300  
	 114A      0.390389   115A      0.399631   116A      0.404357  
	 117A      0.404996   118A      0.406917   119A      0.411068  
	 120A      0.415425   121A      0.419171   122A      0.428622  
	 123A      0.429653   124A      0.430526   125A      0.431158  
	 126A      0.435205   127A      0.438390   128A      0.441105  
	 129A      0.453063   130A      0.466074   131A      0.467062  
	 132A      0.470804   133A      0.473498   134A      0.476083  
	 135A      0.482852   136A      0.488197   137A      0.489075  
	 138A      0.493957   139A      0.496354   140A      0.497138  
	 141A      0.499337   142A      0.502258   143A      0.503037  
	 144A      0.511565   145A      0.512445   146A      0.526369  
	 147A      0.527646   148A      0.532958   149A      0.537684  
	 150A      0.544145   151A      0.551614   152A      0.559999  
	 153A      0.567066   154A      0.568293   155A      0.570482  
	 156A      0.577714   157A      0.578501   158A      0.585864  
	 159A      0.597222   160A      0.601661   161A      0.613293  
	 162A      0.614447   163A      0.620550   164A      0.631481  
	 165A      0.635515   166A      0.640076   167A      0.642048  
	 168A      0.646884   169A      0.657010   170A      0.659116  
	 171A      0.661713   172A      0.662835   173A      0.670640  
	 174A      0.675343   175A      0.679480   176A      0.687902  
	 177A      0.689871   178A      0.697438   179A      0.698815  
	 180A      0.707865   181A      0.711217   182A      0.715720  
	 183A      0.723228   184A      0.723524   185A      0.735951  
	 186A      0.739013   187A      0.743749   188A      0.751388  
	 189A      0.752812   190A      0.757265   191A      0.757807  
	 192A      0.761450   193A      0.775377   194A      0.778251  
	 195A      0.781950   196A      0.789015   197A      0.797620  
	 198A      0.800617   199A      0.815605   200A      0.817993  
	 201A      0.824152   202A      0.824839   203A      0.827937  
	 204A      0.838314   205A      0.843573   206A      0.844420  
	 207A      0.851212   208A      0.860723   209A      0.861584  
	 210A      0.863481   211A      0.877082   212A      0.882523  
	 213A      0.888357   214A      0.893522   215A      0.898938  
	 216A      0.912525   217A      0.914021   218A      0.917312  
	 219A      0.920135   220A      0.931657   221A      0.935007  
	 222A      0.939811   223A      0.948491   224A      0.953499  
	 225A      0.954154   226A      0.960046   227A      0.961281  
	 228A      0.962329   229A      0.966926   230A      0.975945  
	 231A      0.977805   232A      0.979802   233A      0.995424  
	 234A      1.012029   235A      1.014591   236A      1.023954  
	 237A      1.028632   238A      1.035226   239A      1.048601  
	 240A      1.053312   241A      1.055526   242A      1.072455  
	 243A      1.091785   244A      1.101647   245A      1.101730  
	 246A      1.114047   247A      1.126818   248A      1.142725  
	 249A      1.144700   250A      1.151050   251A      1.170640  
	 252A      1.173526   253A      1.185278   254A      1.195192  
	 255A      1.218254   256A      1.239278   257A      1.259315  
	 258A      1.270619   259A      1.305913   260A      1.315071  
	 261A      1.321092   262A      1.331177   263A      1.345277  
	 264A      1.357897   265A      1.376470   266A      1.384863  
	 267A      1.391749   268A      1.393808   269A      1.414181  
	 270A      1.425852   271A      1.436581   272A      1.439277  
	 273A      1.446783   274A      1.474072   275A      1.480457  
	 276A      1.486723   277A      1.510658   278A      1.517122  
	 279A      1.543167   280A      1.557693   281A      1.579550  
	 282A      1.603405   283A      1.638285   284A      1.650451  
	 285A      1.660713   286A      1.681623   287A      1.683677  
	 288A      1.686430   289A      1.691346   290A      1.711798  
	 291A      1.714995   292A      1.730947   293A      1.748454  
	 294A      1.758053   295A      1.766434   296A      1.786782  
	 297A      1.800349   298A      1.812993   299A      1.821378  
	 300A      1.827489   301A      1.828345   302A      1.864063  
	 303A      1.874939   304A      1.875594   305A      1.892803  
	 306A      1.894392   307A      1.912910   308A      1.918365  
	 309A      1.937958   310A      1.978198   311A      1.992079  
	 312A      2.002318   313A      2.013220   314A      2.017012  
	 315A      2.025510   316A      2.051968   317A      2.056094  
	 318A      2.079868   319A      2.085191   320A      2.095575  
	 321A      2.100233   322A      2.106136   323A      2.110346  
	 324A      2.121506   325A      2.122849   326A      2.128992  
	 327A      2.137096   328A      2.146074   329A      2.160922  
	 330A      2.167675   331A      2.173613   332A      2.182418  
	 333A      2.190059   334A      2.193675   335A      2.202305  
	 336A      2.213555   337A      2.226900   338A      2.237408  
	 339A      2.249523   340A      2.262950   341A      2.270691  
	 342A      2.288410   343A      2.292063   344A      2.309374  
	 345A      2.319569   346A      2.329718   347A      2.359351  
	 348A      2.362420   349A      2.367500   350A      2.383511  
	 351A      2.386251   352A      2.388733   353A      2.393100  
	 354A      2.395792   355A      2.415514   356A      2.426151  
	 357A      2.431090   358A      2.440375   359A      2.445592  
	 360A      2.465981   361A      2.470248   362A      2.477608  
	 363A      2.484487   364A      2.519024   365A      2.528726  
	 366A      2.539323   367A      2.558074   368A      2.570861  
	 369A      2.573476   370A      2.574968   371A      2.607634  
	 372A      2.615936   373A      2.623484   374A      2.631737  
	 375A      2.634031   376A      2.650120   377A      2.651124  
	 378A      2.657527   379A      2.669814   380A      2.677209  
	 381A      2.692310   382A      2.695180   383A      2.714139  
	 384A      2.716741   385A      2.730463   386A      2.775815  
	 387A      2.804833   388A      2.818707   389A      2.820609  
	 390A      2.825688   391A      2.849558   392A      2.867490  
	 393A      2.869695   394A      2.893379   395A      2.906066  
	 396A      2.915309   397A      2.936290   398A      2.950507  
	 399A      2.957408   400A      2.969570   401A      2.978784  
	 402A      3.000422   403A      3.008916   404A      3.017017  
	 405A      3.046048   406A      3.059135   407A      3.067424  
	 408A      3.082372   409A      3.103909   410A      3.115460  
	 411A      3.137067   412A      3.154036   413A      3.188394  
	 414A      3.238429   415A      3.281783   416A      3.291964  
	 417A      3.320359   418A      3.350093   419A      3.362968  
	 420A      3.376406   421A      3.417535   422A      3.423697  
	 423A      3.514214   424A      3.602387   425A      3.643468  
	 426A      3.648077   427A      3.869240   428A      4.518628  

	Final Occupation by Irrep:
	          A 
	DOCC [    41 ]

  Energy converged.

  @RHF Final Energy:  -391.53353903112065

   => Energetics <=

    Nuclear Repulsion Energy =            575.5673851449563472
    One-Electron Energy =               -1669.3873999936297423
    Two-Electron Energy =                 702.2864758175530824
    DFT Exchange-Correlation Energy =       0.0000000000000000
    Empirical Dispersion Energy =           0.0000000000000000
    Total Energy =                       -391.5335390311204264



Properties will be evaluated at   0.000000,   0.000000,   0.000000 Bohr
  ==> Properties <==


Properties computed using the SCF density density matrix
  Nuclear Dipole Moment: (a.u.)
     X:     0.1109      Y:     0.2270      Z:     3.5697

  Electronic Dipole Moment: (a.u.)
     X:    -0.1138      Y:    -0.2330      Z:    -3.5933

  Dipole Moment: (a.u.)
     X:    -0.0029      Y:    -0.0060      Z:    -0.0235     Total:     0.0245

  Dipole Moment: (Debye)
     X:    -0.0073      Y:    -0.0152      Z:    -0.0598     Total:     0.0622


  Saving occupied orbitals to File 180.

  Saving SAPT 2-DIMER file.

*** tstop() called on genome.bme.utexas.edu at Wed Oct  2 12:03:50 2013
Module time:
	user time   =     344.47 seconds =       5.74 minutes
	system time =       3.43 seconds =       0.06 minutes
	total time  =         94 seconds =       1.57 minutes
Total time:
	user time   =     344.47 seconds =       5.74 minutes
	system time =       3.43 seconds =       0.06 minutes
	total time  =         94 seconds =       1.57 minutes

  //>>>>>>>>>>>>>>>>>>>>>>>>>>>>>>>>>>>//
  //            Monomer A HF           //
  //<<<<<<<<<<<<<<<<<<<<<<<<<<<<<<<<<<<//


  No DF_BASIS_SCF auxiliary basis selected, defaulting to aug-cc-pvdz-jkfit


*** tstart() called on genome.bme.utexas.edu
*** at Wed Oct  2 12:03:50 2013


         ---------------------------------------------------------
                                   SCF
            by Justin Turney, Rob Parrish, and Andy Simmonett
                              RHF Reference
                        4 Threads,  15000 MiB Core
         ---------------------------------------------------------

  ==> Geometry <==

    Molecular point group: c1
    Full point group: C1

    Geometry (in Angstrom), charge = 0, multiplicity = 1:

       Center              X                  Y                   Z       
    ------------   -----------------  -----------------  -----------------
           C          0.803156962683    -1.012869388429    -2.545121122369
           H          0.856798759683    -1.112868757429    -3.630872433369
           H          1.494644981683    -1.734987103429    -2.113137675369
           C          1.120129886683     0.434135042571    -2.133196024369
           H          1.841385187683     0.899327296571    -2.802405515369
           H          1.558812469683     0.449006892571    -1.135774523369
           C         -0.241316271317     1.174871844571    -2.129880938369
           H         -0.254834718317     2.010045389571    -2.827534746369
           H         -0.445561615317     1.586178073571    -1.141873609369
           C         -1.295471294317     0.112994161571    -2.493549084369
           H         -1.470317895317     0.114425631571    -3.570863529369
           H         -2.253491394317     0.287223432571    -2.005699651369
           C         -0.643637049317    -1.210886104429    -2.096551478369
           H         -1.121196300317    -2.078444769429    -2.549864811369
           H         -0.682775761317    -1.336101060429    -1.012638013369
           C(Gh)      0.049321244683     0.096052309571     2.214627862631
           C(Gh)     -0.047022952317    -0.056033666429     3.730268341631
           H(Gh)      0.945523415683    -0.071499870429     4.182625562631
           H(Gh)     -0.605947720317     0.771850834571     4.168703253631
           H(Gh)     -0.554187650317    -0.984699745429     3.995617931631
           C(Gh)      0.763374487683     1.402957423571     1.879002982631
           H(Gh)      0.844894033683     1.536456555571     0.799321108631
           H(Gh)      0.219902100683     2.257645858571     2.284504366631
           H(Gh)      1.770979030683     1.413607838571     2.297235983631
           C(Gh)     -1.355690568317     0.115876957571     1.617308339631
           H(Gh)     -1.318758980317     0.233066892571     0.533459373631
           H(Gh)     -1.937990100317     0.943300515571     2.025654259631
           H(Gh)     -1.885593628317    -0.811909886429     1.838637632631
           C(Gh)      0.837221058683    -1.077432594429     1.637289689631
           H(Gh)      0.342000742683    -2.024423331429     1.857532837631
           H(Gh)      0.932064231683    -0.990249830429     0.554154912631
           H(Gh)      1.841939142683    -1.114837232429     2.061038145631

  Running in c1 symmetry.

  Nuclear repulsion =  188.289298286461587

  Charge       = 0
  Multiplicity = 1
  Electrons    = 40
  Nalpha       = 20
  Nbeta        = 20

  ==> Algorithm <==

  SCF Algorithm Type is DF.
  DIIS enabled.
  MOM disabled.
  Fractional occupation disabled.
  Guess Type is CORE.
  Energy threshold   = 1.00e-08
  Density threshold  = 1.00e-08
  Integral threshold = 0.00e+00

  ==> Primary Basis <==

  Basis Set: AUG-CC-PVDZ
    Number of shells: 200
    Number of basis function: 428
    Number of Cartesian functions: 448
    Spherical Harmonics?: true
    Max angular momentum: 2

  ==> Pre-Iterations <==

   -------------------------------------------------------
    Irrep   Nso     Nmo     Nalpha   Nbeta   Ndocc  Nsocc
   -------------------------------------------------------
     A        428     428       0       0       0       0
   -------------------------------------------------------
    Total     428     428      20      20      20       0
   -------------------------------------------------------

 OEINTS: Wrapper to libmints.
   by Justin Turney

   Calculation information:
      Number of atoms:                  32
      Number of AO shells:             200
      Number of SO shells:             200
      Number of primitives:            404
      Number of atomic orbitals:       448
      Number of basis functions:       428

      Number of irreps:                  1
      Number of functions per irrep: [ 428 ]

      Overlap, kinetic, potential, dipole, and quadrupole integrals
        stored in file 35.

  ==> Integral Setup <==

  ==> DFJK: Density-Fitted J/K Matrices <==

    J tasked:                  Yes
    K tasked:                  Yes
    wK tasked:                  No
    OpenMP threads:              4
    Integrals threads:           4
    Memory (MB):             10728
    Algorithm:                Core
    Integral Cache:           LOAD
    Schwarz Cutoff:          0E+00
    Fitting Condition:       1E-12

   => Auxiliary Basis Set <=

  Basis Set: aug-cc-pvdz-jkfit
    Number of shells: 544
    Number of basis function: 1564
    Number of Cartesian functions: 1780
    Spherical Harmonics?: true
    Max angular momentum: 3

  Minimum eigenvalue in the overlap matrix is 5.9294064769E-06.
  Using Symmetric Orthogonalization.
  SCF Guess: Core (One-Electron) Hamiltonian.

  Guess energy:  -157.59008637623492

  ==> Iterations <==

                        Total Energy        Delta E     RMS |[F,P]|

   @RHF iter   1:  -154.25301677309108   -1.54253e+02   1.40748e-02 
   @RHF iter   2:  -122.33823344791818    3.19148e+01   1.23619e-02 DIIS
   @RHF iter   3:  -192.65412637857952   -7.03159e+01   4.55516e-03 DIIS
   @RHF iter   4:  -195.00949021976822   -2.35536e+00   1.08710e-03 DIIS
   @RHF iter   5:  -195.17918536055060   -1.69695e-01   1.69396e-04 DIIS
   @RHF iter   6:  -195.18369818382263   -4.51282e-03   4.88899e-05 DIIS
   @RHF iter   7:  -195.18409598605172   -3.97802e-04   1.52934e-05 DIIS
   @RHF iter   8:  -195.18413884581133   -4.28598e-05   3.57215e-06 DIIS
   @RHF iter   9:  -195.18414104463784   -2.19883e-06   7.07189e-07 DIIS
   @RHF iter  10:  -195.18414112634969   -8.17118e-08   2.71287e-07 DIIS
   @RHF iter  11:  -195.18414113557759   -9.22790e-09   8.50197e-08 DIIS
   @RHF iter  12:  -195.18414113649220   -9.14611e-10   1.22962e-08 DIIS
   @RHF iter  13:  -195.18414113651551   -2.33058e-11   2.96779e-09 DIIS

  ==> Post-Iterations <==

	Orbital Energies (a.u.)
	-----------------------

	Doubly Occupied:                                                      

	   1A    -11.215732     2A    -11.215379     3A    -11.215319  
	   4A    -11.214691     5A    -11.214661     6A     -1.117200  
	   7A     -0.957795     8A     -0.957327     9A     -0.777018  
	  10A     -0.767868    11A     -0.649199    12A     -0.644067  
	  13A     -0.569127    14A     -0.567408    15A     -0.474027  
	  16A     -0.473551    17A     -0.463095    18A     -0.459017  
	  19A     -0.458918    20A     -0.447573  

	Virtual:                                                              

	  21A      0.022014    22A      0.037180    23A      0.037233  
	  24A      0.038687    25A      0.051162    26A      0.052795  
	  27A      0.054351    28A      0.058333    29A      0.059774  
	  30A      0.071904    31A      0.074684    32A      0.078840  
	  33A      0.080291    34A      0.080956    35A      0.083583  
	  36A      0.091986    37A      0.097980    38A      0.101847  
	  39A      0.107744    40A      0.111736    41A      0.113316  
	  42A      0.117310    43A      0.124781    44A      0.128772  
	  45A      0.133931    46A      0.142955    47A      0.144295  
	  48A      0.151789    49A      0.157349    50A      0.159428  
	  51A      0.161122    52A      0.164166    53A      0.168777  
	  54A      0.169763    55A      0.181339    56A      0.182768  
	  57A      0.183691    58A      0.186849    59A      0.193575  
	  60A      0.194569    61A      0.196900    62A      0.198197  
	  63A      0.202531    64A      0.206783    65A      0.208655  
	  66A      0.210328    67A      0.217479    68A      0.220482  
	  69A      0.221027    70A      0.222307    71A      0.225731  
	  72A      0.231814    73A      0.235690    74A      0.245364  
	  75A      0.247200    76A      0.248432    77A      0.258484  
	  78A      0.261963    79A      0.277251    80A      0.287082  
	  81A      0.287526    82A      0.294978    83A      0.302601  
	  84A      0.325611    85A      0.331619    86A      0.339044  
	  87A      0.344019    88A      0.348856    89A      0.365292  
	  90A      0.370879    91A      0.374589    92A      0.384561  
	  93A      0.386921    94A      0.395989    95A      0.396741  
	  96A      0.398766    97A      0.402849    98A      0.408681  
	  99A      0.419181   100A      0.420848   101A      0.424230  
	 102A      0.430228   103A      0.433537   104A      0.440149  
	 105A      0.444718   106A      0.445539   107A      0.447922  
	 108A      0.450481   109A      0.457905   110A      0.463057  
	 111A      0.467920   112A      0.471262   113A      0.478528  
	 114A      0.481239   115A      0.488813   116A      0.489435  
	 117A      0.493500   118A      0.496298   119A      0.498119  
	 120A      0.499674   121A      0.503852   122A      0.512875  
	 123A      0.519308   124A      0.521239   125A      0.526324  
	 126A      0.532287   127A      0.533276   128A      0.540293  
	 129A      0.543412   130A      0.564694   131A      0.567900  
	 132A      0.574321   133A      0.577029   134A      0.583270  
	 135A      0.593784   136A      0.594227   137A      0.601217  
	 138A      0.616042   139A      0.625013   140A      0.626260  
	 141A      0.632619   142A      0.640795   143A      0.648087  
	 144A      0.649257   145A      0.651448   146A      0.665248  
	 147A      0.670574   148A      0.672344   149A      0.676965  
	 150A      0.685862   151A      0.693186   152A      0.698577  
	 153A      0.698991   154A      0.710340   155A      0.710918  
	 156A      0.719829   157A      0.721987   158A      0.726434  
	 159A      0.727802   160A      0.732779   161A      0.737148  
	 162A      0.743706   163A      0.747172   164A      0.750274  
	 165A      0.755182   166A      0.764680   167A      0.771716  
	 168A      0.775880   169A      0.783373   170A      0.786477  
	 171A      0.791426   172A      0.796530   173A      0.797818  
	 174A      0.803459   175A      0.813444   176A      0.815057  
	 177A      0.818113   178A      0.830952   179A      0.834637  
	 180A      0.837996   181A      0.843155   182A      0.850779  
	 183A      0.858261   184A      0.858456   185A      0.862481  
	 186A      0.869861   187A      0.871386   188A      0.877475  
	 189A      0.890475   190A      0.891391   191A      0.899526  
	 192A      0.903016   193A      0.904767   194A      0.916587  
	 195A      0.921280   196A      0.935041   197A      0.942232  
	 198A      0.946014   199A      0.948128   200A      0.958491  
	 201A      0.960075   202A      0.966666   203A      0.967674  
	 204A      0.971660   205A      0.982275   206A      0.991178  
	 207A      0.992695   208A      0.996947   209A      1.000231  
	 210A      1.006248   211A      1.008018   212A      1.016117  
	 213A      1.019457   214A      1.031587   215A      1.033533  
	 216A      1.036933   217A      1.040482   218A      1.064409  
	 219A      1.081970   220A      1.088000   221A      1.098607  
	 222A      1.101329   223A      1.113738   224A      1.119567  
	 225A      1.126331   226A      1.134795   227A      1.143593  
	 228A      1.144971   229A      1.169208   230A      1.169534  
	 231A      1.176610   232A      1.180358   233A      1.199819  
	 234A      1.203199   235A      1.226058   236A      1.233596  
	 237A      1.241622   238A      1.255465   239A      1.259553  
	 240A      1.282502   241A      1.284098   242A      1.296050  
	 243A      1.322769   244A      1.332074   245A      1.339925  
	 246A      1.380517   247A      1.395659   248A      1.399126  
	 249A      1.408068   250A      1.419187   251A      1.421994  
	 252A      1.430532   253A      1.445285   254A      1.448164  
	 255A      1.453615   256A      1.473164   257A      1.494886  
	 258A      1.525081   259A      1.535380   260A      1.565479  
	 261A      1.568118   262A      1.627004   263A      1.685501  
	 264A      1.692787   265A      1.719065   266A      1.731922  
	 267A      1.786942   268A      1.814270   269A      1.818898  
	 270A      1.862955   271A      1.883049   272A      1.902327  
	 273A      1.911799   274A      1.981322   275A      1.994266  
	 276A      2.000821   277A      2.005905   278A      2.045067  
	 279A      2.049504   280A      2.077784   281A      2.096711  
	 282A      2.099722   283A      2.118637   284A      2.119101  
	 285A      2.131944   286A      2.143097   287A      2.145688  
	 288A      2.150023   289A      2.165068   290A      2.174355  
	 291A      2.175734   292A      2.199260   293A      2.206358  
	 294A      2.212535   295A      2.232692   296A      2.239019  
	 297A      2.248321   298A      2.252502   299A      2.266398  
	 300A      2.274015   301A      2.280664   302A      2.291416  
	 303A      2.301106   304A      2.314878   305A      2.326742  
	 306A      2.328716   307A      2.339773   308A      2.342700  
	 309A      2.353755   310A      2.353971   311A      2.358639  
	 312A      2.372435   313A      2.376723   314A      2.380266  
	 315A      2.390965   316A      2.394520   317A      2.403234  
	 318A      2.421008   319A      2.433921   320A      2.444346  
	 321A      2.448394   322A      2.452274   323A      2.466179  
	 324A      2.467366   325A      2.486719   326A      2.492866  
	 327A      2.510784   328A      2.517691   329A      2.521863  
	 330A      2.526959   331A      2.536840   332A      2.549953  
	 333A      2.564407   334A      2.569504   335A      2.578215  
	 336A      2.597603   337A      2.606585   338A      2.610996  
	 339A      2.622285   340A      2.633308   341A      2.637721  
	 342A      2.648002   343A      2.656879   344A      2.680334  
	 345A      2.684668   346A      2.711332   347A      2.713222  
	 348A      2.729482   349A      2.730421   350A      2.737104  
	 351A      2.786105   352A      2.789531   353A      2.804671  
	 354A      2.817824   355A      2.819798   356A      2.835116  
	 357A      2.843856   358A      2.845809   359A      2.850999  
	 360A      2.877015   361A      2.890528   362A      2.923987  
	 363A      2.937263   364A      2.944434   365A      2.953842  
	 366A      2.959997   367A      2.980168   368A      2.981822  
	 369A      2.999554   370A      3.008652   371A      3.028456  
	 372A      3.066719   373A      3.070930   374A      3.081474  
	 375A      3.089175   376A      3.103727   377A      3.136819  
	 378A      3.179070   379A      3.186634   380A      3.255291  
	 381A      3.262336   382A      3.278520   383A      3.295339  
	 384A      3.301381   385A      3.335068   386A      3.343418  
	 387A      3.371381   388A      3.392921   389A      3.448804  
	 390A      3.480909   391A      3.482145   392A      3.494927  
	 393A      3.511866   394A      3.547027   395A      3.550738  
	 396A      3.568255   397A      3.600943   398A      3.625514  
	 399A      3.653453   400A      3.687548   401A      3.712501  
	 402A      3.857740   403A      3.865477   404A      4.034135  
	 405A      4.169414   406A      4.212503   407A      4.321166  
	 408A      4.526211   409A      4.581243   410A      4.666018  
	 411A      4.697378   412A      4.720311   413A      4.742639  
	 414A      4.744122   415A      4.866081   416A      5.127811  
	 417A      5.133818   418A      5.139446   419A      5.243477  
	 420A      5.243746   421A      5.251965   422A      5.256361  
	 423A      5.334416   424A     18.233259   425A     18.864964  
	 426A     18.873816   427A     18.880274   428A     19.132785  

	Final Occupation by Irrep:
	          A 
	DOCC [    20 ]

  Energy converged.

  @RHF Final Energy:  -195.18414113651551

   => Energetics <=

    Nuclear Repulsion Energy =            188.2892982864615874
    One-Electron Energy =                -635.2289378998560778
    Two-Electron Energy =                 251.7554984768790973
    DFT Exchange-Correlation Energy =       0.0000000000000000
    Empirical Dispersion Energy =           0.0000000000000000
    Total Energy =                       -195.1841411365153931



Properties will be evaluated at   0.000000,   0.000000,   0.000000 Bohr
  ==> Properties <==


Properties computed using the SCF density density matrix
  Nuclear Dipole Moment: (a.u.)
     X:    -3.8160      Y:    -7.4204      Z:  -172.3061

  Electronic Dipole Moment: (a.u.)
     X:     3.8135      Y:     7.4147      Z:   172.3048

  Dipole Moment: (a.u.)
     X:    -0.0025      Y:    -0.0057      Z:    -0.0013     Total:     0.0064

  Dipole Moment: (Debye)
     X:    -0.0064      Y:    -0.0146      Z:    -0.0034     Total:     0.0163


  Saving occupied orbitals to File 180.

  Saving SAPT 2-MONOMER_A file.

*** tstop() called on genome.bme.utexas.edu at Wed Oct  2 12:04:35 2013
Module time:
	user time   =     165.01 seconds =       2.75 minutes
	system time =       2.12 seconds =       0.04 minutes
	total time  =         45 seconds =       0.75 minutes
Total time:
	user time   =     509.50 seconds =       8.49 minutes
	system time =       5.55 seconds =       0.09 minutes
	total time  =        139 seconds =       2.32 minutes

  //>>>>>>>>>>>>>>>>>>>>>>>>>>>>>>>>>>>//
  //            Monomer B HF           //
  //<<<<<<<<<<<<<<<<<<<<<<<<<<<<<<<<<<<//


  No DF_BASIS_SCF auxiliary basis selected, defaulting to aug-cc-pvdz-jkfit


*** tstart() called on genome.bme.utexas.edu
*** at Wed Oct  2 12:04:35 2013


         ---------------------------------------------------------
                                   SCF
            by Justin Turney, Rob Parrish, and Andy Simmonett
                              RHF Reference
                        4 Threads,  15000 MiB Core
         ---------------------------------------------------------

  ==> Geometry <==

    Molecular point group: c1
    Full point group: C1

    Geometry (in Angstrom), charge = 0, multiplicity = 1:

       Center              X                  Y                   Z       
    ------------   -----------------  -----------------  -----------------
           C(Gh)      0.803156962683    -1.012869388429    -2.545121122369
           H(Gh)      0.856798759683    -1.112868757429    -3.630872433369
           H(Gh)      1.494644981683    -1.734987103429    -2.113137675369
           C(Gh)      1.120129886683     0.434135042571    -2.133196024369
           H(Gh)      1.841385187683     0.899327296571    -2.802405515369
           H(Gh)      1.558812469683     0.449006892571    -1.135774523369
           C(Gh)     -0.241316271317     1.174871844571    -2.129880938369
           H(Gh)     -0.254834718317     2.010045389571    -2.827534746369
           H(Gh)     -0.445561615317     1.586178073571    -1.141873609369
           C(Gh)     -1.295471294317     0.112994161571    -2.493549084369
           H(Gh)     -1.470317895317     0.114425631571    -3.570863529369
           H(Gh)     -2.253491394317     0.287223432571    -2.005699651369
           C(Gh)     -0.643637049317    -1.210886104429    -2.096551478369
           H(Gh)     -1.121196300317    -2.078444769429    -2.549864811369
           H(Gh)     -0.682775761317    -1.336101060429    -1.012638013369
           C          0.049321244683     0.096052309571     2.214627862631
           C         -0.047022952317    -0.056033666429     3.730268341631
           H          0.945523415683    -0.071499870429     4.182625562631
           H         -0.605947720317     0.771850834571     4.168703253631
           H         -0.554187650317    -0.984699745429     3.995617931631
           C          0.763374487683     1.402957423571     1.879002982631
           H          0.844894033683     1.536456555571     0.799321108631
           H          0.219902100683     2.257645858571     2.284504366631
           H          1.770979030683     1.413607838571     2.297235983631
           C         -1.355690568317     0.115876957571     1.617308339631
           H         -1.318758980317     0.233066892571     0.533459373631
           H         -1.937990100317     0.943300515571     2.025654259631
           H         -1.885593628317    -0.811909886429     1.838637632631
           C          0.837221058683    -1.077432594429     1.637289689631
           H          0.342000742683    -2.024423331429     1.857532837631
           H          0.932064231683    -0.990249830429     0.554154912631
           H          1.841939142683    -1.114837232429     2.061038145631

  Running in c1 symmetry.

  Nuclear repulsion =  199.344815166686601

  Charge       = 0
  Multiplicity = 1
  Electrons    = 42
  Nalpha       = 21
  Nbeta        = 21

  ==> Algorithm <==

  SCF Algorithm Type is DF.
  DIIS enabled.
  MOM disabled.
  Fractional occupation disabled.
  Guess Type is CORE.
  Energy threshold   = 1.00e-08
  Density threshold  = 1.00e-08
  Integral threshold = 0.00e+00

  ==> Primary Basis <==

  Basis Set: AUG-CC-PVDZ
    Number of shells: 200
    Number of basis function: 428
    Number of Cartesian functions: 448
    Spherical Harmonics?: true
    Max angular momentum: 2

  ==> Pre-Iterations <==

   -------------------------------------------------------
    Irrep   Nso     Nmo     Nalpha   Nbeta   Ndocc  Nsocc
   -------------------------------------------------------
     A        428     428       0       0       0       0
   -------------------------------------------------------
    Total     428     428      21      21      21       0
   -------------------------------------------------------

 OEINTS: Wrapper to libmints.
   by Justin Turney

   Calculation information:
      Number of atoms:                  32
      Number of AO shells:             200
      Number of SO shells:             200
      Number of primitives:            404
      Number of atomic orbitals:       448
      Number of basis functions:       428

      Number of irreps:                  1
      Number of functions per irrep: [ 428 ]

      Overlap, kinetic, potential, dipole, and quadrupole integrals
        stored in file 35.

  ==> Integral Setup <==

  ==> DFJK: Density-Fitted J/K Matrices <==

    J tasked:                  Yes
    K tasked:                  Yes
    wK tasked:                  No
    OpenMP threads:              4
    Integrals threads:           4
    Memory (MB):             10728
    Algorithm:                Core
    Integral Cache:           LOAD
    Schwarz Cutoff:          0E+00
    Fitting Condition:       1E-12

   => Auxiliary Basis Set <=

  Basis Set: aug-cc-pvdz-jkfit
    Number of shells: 544
    Number of basis function: 1564
    Number of Cartesian functions: 1780
    Spherical Harmonics?: true
    Max angular momentum: 3

  Minimum eigenvalue in the overlap matrix is 5.9294064769E-06.
  Using Symmetric Orthogonalization.
  SCF Guess: Core (One-Electron) Hamiltonian.

  Guess energy:  -162.54772491000011

  ==> Iterations <==

                        Total Energy        Delta E     RMS |[F,P]|

   @RHF iter   1:  -148.42497132956260   -1.48425e+02   1.56625e-02 
   @RHF iter   2:  -116.50835726903978    3.19166e+01   1.25366e-02 DIIS
   @RHF iter   3:  -191.84738397536364   -7.53390e+01   6.26327e-03 DIIS
   @RHF iter   4:  -195.41641237955122   -3.56903e+00   2.99755e-03 DIIS
   @RHF iter   5:  -196.28921998323426   -8.72808e-01   6.67101e-04 DIIS
   @RHF iter   6:  -196.35341350889149   -6.41935e-02   1.07907e-04 DIIS
   @RHF iter   7:  -196.35525966145957   -1.84615e-03   2.19466e-05 DIIS
   @RHF iter   8:  -196.35534245779871   -8.27963e-05   3.89034e-06 DIIS
   @RHF iter   9:  -196.35534521311280   -2.75531e-06   1.30598e-06 DIIS
   @RHF iter  10:  -196.35534544090820   -2.27795e-07   3.50673e-07 DIIS
   @RHF iter  11:  -196.35534545980107   -1.88929e-08   5.35588e-08 DIIS
   @RHF iter  12:  -196.35534546035041   -5.49335e-10   1.07437e-08 DIIS
   @RHF iter  13:  -196.35534546037303   -2.26237e-11   2.75446e-09 DIIS

  ==> Post-Iterations <==

	Orbital Energies (a.u.)
	-----------------------

	Doubly Occupied:                                                      

	   1A    -11.231345     2A    -11.211941     3A    -11.211893  
	   4A    -11.211861     5A    -11.211830     6A     -1.107744  
	   7A     -0.929951     8A     -0.929755     9A     -0.929476  
	  10A     -0.730272    11A     -0.611670    12A     -0.611496  
	  13A     -0.610993    14A     -0.552578    15A     -0.552197  
	  16A     -0.508413    17A     -0.508307    18A     -0.508286  
	  19A     -0.451860    20A     -0.451692    21A     -0.451501  

	Virtual:                                                              

	  22A      0.022777    23A      0.037450    24A      0.038150  
	  25A      0.038373    26A      0.054042    27A      0.054835  
	  28A      0.054972    29A      0.058384    30A      0.059936  
	  31A      0.073214    32A      0.074932    33A      0.077925  
	  34A      0.080416    35A      0.081494    36A      0.084310  
	  37A      0.092427    38A      0.098355    39A      0.101616  
	  40A      0.106200    41A      0.108775    42A      0.116549  
	  43A      0.117676    44A      0.121717    45A      0.136800  
	  46A      0.139421    47A      0.142233    48A      0.147701  
	  49A      0.148508    50A      0.154459    51A      0.166387  
	  52A      0.168200    53A      0.168905    54A      0.171476  
	  55A      0.173678    56A      0.179333    57A      0.182591  
	  58A      0.186617    59A      0.187289    60A      0.189253  
	  61A      0.196888    62A      0.197488    63A      0.199925  
	  64A      0.201972    65A      0.205510    66A      0.209663  
	  67A      0.213753    68A      0.218660    69A      0.219039  
	  70A      0.223524    71A      0.227926    72A      0.234410  
	  73A      0.235589    74A      0.237604    75A      0.238422  
	  76A      0.244710    77A      0.250433    78A      0.253186  
	  79A      0.261485    80A      0.269392    81A      0.273418  
	  82A      0.281197    83A      0.281874    84A      0.307267  
	  85A      0.312406    86A      0.329582    87A      0.331564  
	  88A      0.342054    89A      0.355623    90A      0.369131  
	  91A      0.370601    92A      0.371779    93A      0.377714  
	  94A      0.391865    95A      0.393454    96A      0.403669  
	  97A      0.404941    98A      0.408005    99A      0.408543  
	 100A      0.416134   101A      0.424486   102A      0.429257  
	 103A      0.433106   104A      0.435184   105A      0.443304  
	 106A      0.445027   107A      0.451901   108A      0.457371  
	 109A      0.459018   110A      0.462271   111A      0.470102  
	 112A      0.474701   113A      0.479201   114A      0.487520  
	 115A      0.490248   116A      0.495474   117A      0.496533  
	 118A      0.498877   119A      0.499563   120A      0.500300  
	 121A      0.503380   122A      0.505262   123A      0.510256  
	 124A      0.519348   125A      0.523725   126A      0.528056  
	 127A      0.537799   128A      0.543100   129A      0.545995  
	 130A      0.550749   131A      0.551183   132A      0.560167  
	 133A      0.564121   134A      0.568351   135A      0.583954  
	 136A      0.589153   137A      0.590197   138A      0.599857  
	 139A      0.603740   140A      0.605907   141A      0.610309  
	 142A      0.612336   143A      0.625721   144A      0.626135  
	 145A      0.636579   146A      0.640466   147A      0.642717  
	 148A      0.653609   149A      0.662031   150A      0.664304  
	 151A      0.669632   152A      0.673649   153A      0.678085  
	 154A      0.680472   155A      0.691056   156A      0.695152  
	 157A      0.700598   158A      0.702767   159A      0.714697  
	 160A      0.720082   161A      0.733221   162A      0.738014  
	 163A      0.743126   164A      0.748052   165A      0.750581  
	 166A      0.756273   167A      0.771033   168A      0.776973  
	 169A      0.786133   170A      0.789719   171A      0.793529  
	 172A      0.795064   173A      0.800688   174A      0.801550  
	 175A      0.809253   176A      0.815432   177A      0.826951  
	 178A      0.830421   179A      0.834635   180A      0.841925  
	 181A      0.845842   182A      0.849889   183A      0.854465  
	 184A      0.864754   185A      0.868329   186A      0.870948  
	 187A      0.882431   188A      0.886002   189A      0.892011  
	 190A      0.893672   191A      0.902715   192A      0.915000  
	 193A      0.917688   194A      0.921476   195A      0.925134  
	 196A      0.930284   197A      0.933129   198A      0.936501  
	 199A      0.947076   200A      0.948423   201A      0.958749  
	 202A      0.965450   203A      0.971821   204A      0.975362  
	 205A      0.976983   206A      0.981156   207A      0.989301  
	 208A      0.991660   209A      1.006696   210A      1.011670  
	 211A      1.033564   212A      1.033904   213A      1.035750  
	 214A      1.039820   215A      1.050866   216A      1.060430  
	 217A      1.068322   218A      1.076141   219A      1.080694  
	 220A      1.085382   221A      1.088664   222A      1.106670  
	 223A      1.108217   224A      1.118239   225A      1.131367  
	 226A      1.138784   227A      1.140188   228A      1.151818  
	 229A      1.154484   230A      1.167321   231A      1.183396  
	 232A      1.184739   233A      1.192388   234A      1.206776  
	 235A      1.209756   236A      1.217021   237A      1.226330  
	 238A      1.242347   239A      1.249005   240A      1.254444  
	 241A      1.255994   242A      1.278298   243A      1.283869  
	 244A      1.296088   245A      1.305225   246A      1.311983  
	 247A      1.313624   248A      1.331389   249A      1.356015  
	 250A      1.367091   251A      1.372164   252A      1.396569  
	 253A      1.397920   254A      1.410423   255A      1.428112  
	 256A      1.458016   257A      1.481618   258A      1.488529  
	 259A      1.550552   260A      1.585675   261A      1.613991  
	 262A      1.646506   263A      1.651298   264A      1.686479  
	 265A      1.688380   266A      1.722479   267A      1.725866  
	 268A      1.739296   269A      1.774585   270A      1.805941  
	 271A      1.827721   272A      1.833665   273A      1.847587  
	 274A      1.889169   275A      1.890475   276A      1.927733  
	 277A      1.977929   278A      1.990501   279A      1.995919  
	 280A      2.046755   281A      2.058257   282A      2.066186  
	 283A      2.072331   284A      2.089756   285A      2.096334  
	 286A      2.107213   287A      2.114630   288A      2.118374  
	 289A      2.128037   290A      2.155625   291A      2.160172  
	 292A      2.165508   293A      2.177740   294A      2.184094  
	 295A      2.190986   296A      2.209356   297A      2.227436  
	 298A      2.241096   299A      2.244596   300A      2.252375  
	 301A      2.268598   302A      2.280542   303A      2.285704  
	 304A      2.317034   305A      2.333868   306A      2.336571  
	 307A      2.340469   308A      2.342224   309A      2.354692  
	 310A      2.374811   311A      2.377531   312A      2.383347  
	 313A      2.389245   314A      2.391038   315A      2.397683  
	 316A      2.409324   317A      2.413107   318A      2.430576  
	 319A      2.439343   320A      2.447626   321A      2.453671  
	 322A      2.461607   323A      2.468167   324A      2.471462  
	 325A      2.483837   326A      2.502094   327A      2.509849  
	 328A      2.514481   329A      2.535028   330A      2.539144  
	 331A      2.554169   332A      2.556717   333A      2.568334  
	 334A      2.572223   335A      2.575760   336A      2.592043  
	 337A      2.603142   338A      2.603828   339A      2.619777  
	 340A      2.625199   341A      2.639530   342A      2.649569  
	 343A      2.665458   344A      2.671137   345A      2.673646  
	 346A      2.677081   347A      2.685626   348A      2.700840  
	 349A      2.708447   350A      2.710018   351A      2.730430  
	 352A      2.739257   353A      2.746097   354A      2.783044  
	 355A      2.799361   356A      2.824044   357A      2.835489  
	 358A      2.841688   359A      2.864806   360A      2.885988  
	 361A      2.895360   362A      2.900910   363A      2.911537  
	 364A      2.933655   365A      2.935910   366A      2.946493  
	 367A      2.965524   368A      2.984486   369A      2.987355  
	 370A      2.989998   371A      2.992228   372A      3.023573  
	 373A      3.039180   374A      3.052577   375A      3.060700  
	 376A      3.068196   377A      3.078313   378A      3.116056  
	 379A      3.118616   380A      3.121597   381A      3.156569  
	 382A      3.170143   383A      3.177952   384A      3.203822  
	 385A      3.222630   386A      3.260882   387A      3.337860  
	 388A      3.354454   389A      3.361061   390A      3.394729  
	 391A      3.417367   392A      3.436437   393A      3.467960  
	 394A      3.561168   395A      3.565073   396A      3.622658  
	 397A      3.639107   398A      3.646526   399A      3.675777  
	 400A      3.685960   401A      3.727852   402A      3.839958  
	 403A      3.868207   404A      3.936400   405A      3.989918  
	 406A      4.015567   407A      4.077923   408A      4.111930  
	 409A      4.486273   410A      4.550344   411A      4.638444  
	 412A      4.704152   413A      4.766083   414A      4.836289  
	 415A      4.873810   416A      4.957640   417A      5.034391  
	 418A      5.140401   419A      5.178440   420A      5.210486  
	 421A      5.292171   422A      5.296616   423A      5.785648  
	 424A     18.321884   425A     18.587216   426A     18.658803  
	 427A     19.252459   428A     19.815969  

	Final Occupation by Irrep:
	          A 
	DOCC [    21 ]

  Energy converged.

  @RHF Final Energy:  -196.35534546037303

   => Energetics <=

    Nuclear Repulsion Energy =            199.3448151666866011
    One-Electron Energy =                -658.3501988749753764
    Two-Electron Energy =                 262.6500382479160294
    DFT Exchange-Correlation Energy =       0.0000000000000000
    Empirical Dispersion Energy =           0.0000000000000000
    Total Energy =                       -196.3553454603727459



Properties will be evaluated at   0.000000,   0.000000,   0.000000 Bohr
  ==> Properties <==


Properties computed using the SCF density density matrix
  Nuclear Dipole Moment: (a.u.)
     X:     3.9269      Y:     7.6474      Z:   175.8758

  Electronic Dipole Moment: (a.u.)
     X:    -3.9269      Y:    -7.6474      Z:  -175.8770

  Dipole Moment: (a.u.)
     X:     0.0000      Y:     0.0000      Z:    -0.0012     Total:     0.0012

  Dipole Moment: (Debye)
     X:     0.0001      Y:     0.0001      Z:    -0.0030     Total:     0.0030


  Saving occupied orbitals to File 180.

  Saving SAPT 2-MONOMER_B file.

*** tstop() called on genome.bme.utexas.edu at Wed Oct  2 12:05:16 2013
Module time:
	user time   =     146.95 seconds =       2.45 minutes
	system time =       1.82 seconds =       0.03 minutes
	total time  =         41 seconds =       0.68 minutes
Total time:
	user time   =     656.46 seconds =      10.94 minutes
	system time =       7.37 seconds =       0.12 minutes
	total time  =        180 seconds =       3.00 minutes
  No DF_BASIS_SAPT auxiliary basis selected, defaulting to aug-cc-pvdz-ri

  //>>>>>>>>>>>>>>>>>>>>>>>>>>>>>>>>>>>//
  //               SAPT2+              //
  //<<<<<<<<<<<<<<<<<<<<<<<<<<<<<<<<<<<//


*** tstart() called on genome.bme.utexas.edu
*** at Wed Oct  2 12:05:16 2013

        SAPT2+  
    Ed Hohenstein
     6 June 2009

      Orbital Information
  --------------------------
    NSO        =       428
    NMO        =       428
    NRI        =      1226
    NOCC A     =        20
    NOCC B     =        21
    FOCC A     =         5
    FOCC B     =         5
    NVIR A     =       408
    NVIR B     =       407

    Estimated memory usage: 3394.5 MB

    Elst10,r            =    -0.003046072066 H
    Exch10 (S^2)        =     0.009936837944 H
    Exch10              =     0.009982833094 H
    Ind20,r (A<-B)      =    -0.000649234497 H
    Ind20,r (B<-A)      =    -0.000995997390 H
    Ind20,r             =    -0.001645231887 H
    Exch-Ind20,r (A<-B) =     0.000512120453 H
    Exch-Ind20,r (B<-A) =     0.000895993078 H
    Exch-Ind20,r        =     0.001408113531 H
    Disp20              =    -0.010645593653 H
    Exch-Disp20         =     0.001019392263 H
    Elst12,r            =    -0.000653474928 H
    Exch11              =     0.000243680830 H
    Exch12              =     0.001211720991 H
    Ind22               =    -0.000350913955 H
    Disp21              =     0.000868097041 H
    Disp22 (SDQ)        =     0.000079648685 H

    (i =   1 of  16)       1811 seconds
    (i =   2 of  16)       3611 seconds
    (i =   3 of  16)       5485 seconds
    (i =   4 of  16)       7388 seconds
    (i =   5 of  16)       9172 seconds
    (i =   6 of  16)      10948 seconds
    (i =   7 of  16)      12921 seconds
    (i =   8 of  16)      14634 seconds
    (i =   9 of  16)      16348 seconds
    (i =  10 of  16)      18048 seconds
    (i =  11 of  16)      19746 seconds
    (i =  12 of  16)      21446 seconds
    (i =  13 of  16)      23181 seconds
    (i =  14 of  16)      24836 seconds
    (i =  15 of  16)      26623 seconds
    (i =  16 of  16)      28318 seconds

    Disp220 (T)         =    -0.000762586167 H

    (i =   1 of  15)       1876 seconds
    (i =   2 of  15)       3864 seconds
    (i =   3 of  15)       5851 seconds
    (i =   4 of  15)       7867 seconds
    (i =   5 of  15)       9536 seconds
    (i =   6 of  15)      11487 seconds
    (i =   7 of  15)      13484 seconds
    (i =   8 of  15)      15457 seconds
    (i =   9 of  15)      17493 seconds
    (i =  10 of  15)      19532 seconds
    (i =  11 of  15)      21397 seconds
    (i =  12 of  15)      23333 seconds
    (i =  13 of  15)      25167 seconds
    (i =  14 of  15)      27053 seconds
    (i =  15 of  15)      29024 seconds

    Disp202 (T)         =    -0.000759134974 H

    Disp22 (T)          =    -0.001521721141 H

    SAPT Results  
  -----------------------------------------------------------------------
    Electrostatics          -3.69954699 mH      -2.32150088 kcal mol^-1
      Elst10,r              -3.04607207 mH      -1.91143916 kcal mol^-1
      Elst12,r              -0.65347493 mH      -0.41006173 kcal mol^-1

    Exchange                11.43823491 mH       7.17760107 kcal mol^-1
      Exch10                 9.98283309 mH       6.26432260 kcal mol^-1
      Exch10(S^2)            9.93683794 mH       6.23546021 kcal mol^-1
      Exch11(S^2)            0.24368083 mH       0.15291204 kcal mol^-1
      Exch12(S^2)            1.21172099 mH       0.76036643 kcal mol^-1

    Induction               -1.03977059 mH      -0.65246592 kcal mol^-1
      Ind20,r               -1.64523189 mH      -1.03239864 kcal mol^-1
      Ind22                 -0.35091395 mH      -0.22020184 kcal mol^-1
      Exch-Ind20,r           1.40811353 mH       0.88360462 kcal mol^-1
      Exch-Ind22             0.30033863 mH       0.18846534 kcal mol^-1
      delta HF,r (2)        -0.75207690 mH      -0.47193540 kcal mol^-1

    Dispersion             -10.20017681 mH      -6.40070785 kcal mol^-1
      Disp20               -10.64559365 mH      -6.68021115 kcal mol^-1
      Disp21                 0.86809704 mH       0.54473914 kcal mol^-1
      Disp22 (SDQ)           0.07964868 mH       0.04998031 kcal mol^-1
      Disp22 (T)            -1.52172114 mH      -0.95489447 kcal mol^-1
      Exch-Disp20            1.01939226 mH       0.63967833 kcal mol^-1

    Total HF                 5.94756577 mH       3.73215402 kcal mol^-1
    Total SAPT0             -3.67863562 mH      -2.30837880 kcal mol^-1
    Total SAPT2             -2.92728406 mH      -1.83689855 kcal mol^-1
    Total SAPT2+            -3.50125947 mH      -2.19707358 kcal mol^-1

*** tstop() called on genome.bme.utexas.edu at Thu Oct  3 05:24:39 2013
Module time:
	user time   =  195773.32 seconds =    3262.89 minutes
	system time =     638.83 seconds =      10.65 minutes
	total time  =      62363 seconds =    1039.38 minutes
Total time:
	user time   =  196429.78 seconds =    3273.83 minutes
	system time =     646.21 seconds =      10.77 minutes
	total time  =      62543 seconds =    1042.38 minutes

*** PSI4 exiting successfully. Buy a developer a beer!
