
    -----------------------------------------------------------------------
          Psi4: An Open-Source Ab Initio Electronic Structure Package
                               Psi4 1.4a2.dev224 

                         Git: Rev {master} e453b16 


    R. M. Parrish, L. A. Burns, D. G. A. Smith, A. C. Simmonett,
    A. E. DePrince III, E. G. Hohenstein, U. Bozkaya, A. Yu. Sokolov,
    R. Di Remigio, R. M. Richard, J. F. Gonthier, A. M. James,
    H. R. McAlexander, A. Kumar, M. Saitow, X. Wang, B. P. Pritchard,
    P. Verma, H. F. Schaefer III, K. Patkowski, R. A. King, E. F. Valeev,
    F. A. Evangelista, J. M. Turney, T. D. Crawford, and C. D. Sherrill,
    J. Chem. Theory Comput. 13(7) pp 3185--3197 (2017).
    (doi: 10.1021/acs.jctc.7b00174)


                         Additional Contributions by
    P. Kraus, H. Kruse, M. H. Lechner, M. C. Schieber, R. A. Shaw,
    A. Alenaizan, R. Galvelis, Z. L. Glick, S. Lehtola, and J. P. Misiewicz

    -----------------------------------------------------------------------


    Psi4 started on: Thursday, 23 April 2020 05:56PM

    Process ID: 53688
    Host:       node93.bme.utexas.edu
    PSIDATADIR: /home/liuchw/anaconda3/envs/psi4env/share/psi4
    Memory:     500.0 MiB
    Threads:    8
    
  ==> Input File <==

--------------------------------------------------------------------------
#Generated by lconvert.py for sapt job

memory 20 GB

molecule  {
0 1
  N      -0.208910   -0.964580    0.534760
  H      -0.224150   -1.973110    0.605080
  C      -1.446340   -0.344580    0.306660
  O      -2.461240   -1.010790    0.197890
  C      -1.357780    1.103190    0.228140
  H      -2.256570    1.667730    0.049850
  C      -0.163000    1.709890    0.381130
  H      -0.046290    2.782450    0.333350
  N       0.985450    1.000820    0.611210
  H       1.867560    1.466930    0.744780
  C       1.027020   -0.379170    0.712650
  O       2.049200   -0.997400    0.937260
--
0 1
  C       1.371090    2.386840    6.789530
  H       0.940240    2.697890    5.836750
  H       0.736860    2.792270    7.577780
  H       2.353970    2.847290    6.882650
  C       1.444110    0.867970    6.879050
  H       1.874490    0.578400    7.840340
  H       2.118700    0.476810    6.113930
  C       0.079320    0.209800    6.724230
  H      -0.591920    0.578680    7.505850
  H      -0.368150    0.520070    5.774330
  C       0.135610   -1.310890    6.783870
  H       0.559220   -1.613320    7.744510
  H       0.827130   -1.672770    6.019370
  C      -1.233670   -1.952760    6.600100
  H      -1.672050   -1.679300    5.639910
  H      -1.176730   -3.039530    6.644150
  H      -1.921630   -1.624410    7.379330
units angstrom
no_reorient
symmetry c1
}

set {
scf_type DF
basis aug-cc-pvdz
freeze_core True
guess SAD
}
energy('sapt2+')
--------------------------------------------------------------------------

  Memory set to  18.626 GiB by Python driver.

Scratch directory: /scratch/liuchw/

  //>>>>>>>>>>>>>>>>>>>>>>>>>>>>>>>>>>>//
  //              Dimer HF             //
  //<<<<<<<<<<<<<<<<<<<<<<<<<<<<<<<<<<<//


*** tstart() called on node93.bme.utexas.edu
*** at Thu Apr 23 17:56:50 2020

   => Loading Basis Set <=

    Name: AUG-CC-PVDZ
    Role: ORBITAL
    Keyword: BASIS
    atoms 1, 9                                           entry N          line   218 file /home/liuchw/anaconda3/envs/psi4env/share/psi4/basis/aug-cc-pvdz.gbs 
    atoms 2, 6, 8, 10, 14-16, 18-19, 21-22, 24-25, 27-29 entry H          line    40 file /home/liuchw/anaconda3/envs/psi4env/share/psi4/basis/aug-cc-pvdz.gbs 
    atoms 3, 5, 7, 11, 13, 17, 20, 23, 26                entry C          line   182 file /home/liuchw/anaconda3/envs/psi4env/share/psi4/basis/aug-cc-pvdz.gbs 
    atoms 4, 12                                          entry O          line   254 file /home/liuchw/anaconda3/envs/psi4env/share/psi4/basis/aug-cc-pvdz.gbs 


         ---------------------------------------------------------
                                   SCF
               by Justin Turney, Rob Parrish, Andy Simmonett
                          and Daniel G. A. Smith
                              RHF Reference
                        8 Threads,  19073 MiB Core
         ---------------------------------------------------------

  ==> Geometry <==

    Molecular point group: c1
    Full point group: C1

    Geometry (in Angstrom), charge = 0, multiplicity = 1:

       Center              X                  Y                   Z               Mass       
    ------------   -----------------  -----------------  -----------------  -----------------
         N           -0.239346690955    -0.968456857359    -2.411164438934    14.003074004430
         H           -0.254586690955    -1.976986857359    -2.340844438934     1.007825032230
         C           -1.476776690955    -0.348456857359    -2.639264438934    12.000000000000
         O           -2.491676690955    -1.014666857359    -2.748034438934    15.994914619570
         C           -1.388216690955     1.099313142641    -2.717784438934    12.000000000000
         H           -2.287006690955     1.663853142641    -2.896074438934     1.007825032230
         C           -0.193436690955     1.706013142641    -2.564794438934    12.000000000000
         H           -0.076726690955     2.778573142641    -2.612574438934     1.007825032230
         N            0.955013309045     0.996943142641    -2.334714438934    14.003074004430
         H            1.837123309045     1.463053142641    -2.201144438934     1.007825032230
         C            0.996583309045    -0.383046857359    -2.233274438934    12.000000000000
         O            2.018763309045    -1.001276857359    -2.008664438934    15.994914619570
         C            1.340653309045     2.382963142641     3.843605561066    12.000000000000
         H            0.909803309045     2.694013142641     2.890825561066     1.007825032230
         H            0.706423309045     2.788393142641     4.631855561066     1.007825032230
         H            2.323533309045     2.843413142641     3.936725561066     1.007825032230
         C            1.413673309045     0.864093142641     3.933125561066    12.000000000000
         H            1.844053309045     0.574523142641     4.894415561066     1.007825032230
         H            2.088263309045     0.472933142641     3.168005561066     1.007825032230
         C            0.048883309045     0.205923142641     3.778305561066    12.000000000000
         H           -0.622356690955     0.574803142641     4.559925561066     1.007825032230
         H           -0.398586690955     0.516193142641     2.828405561066     1.007825032230
         C            0.105173309045    -1.314766857359     3.837945561066    12.000000000000
         H            0.528783309045    -1.617196857359     4.798585561066     1.007825032230
         H            0.796693309045    -1.676646857359     3.073445561066     1.007825032230
         C           -1.264106690955    -1.956636857359     3.654175561066    12.000000000000
         H           -1.702486690955    -1.683176857359     2.693985561066     1.007825032230
         H           -1.207166690955    -3.043406857359     3.698225561066     1.007825032230
         H           -1.952066690955    -1.628286857359     4.433405561066     1.007825032230

  Running in c1 symmetry.

  Rotational constants: A =      0.02678  B =      0.00854  C =      0.00775 [cm^-1]
  Rotational constants: A =    802.93653  B =    256.12238  C =    232.27088 [MHz]
  Nuclear repulsion =  733.192993028860315

  Charge       = 0
  Multiplicity = 1
  Electrons    = 100
  Nalpha       = 50
  Nbeta        = 50

  ==> Algorithm <==

  SCF Algorithm Type is DF.
  DIIS enabled.
  MOM disabled.
  Fractional occupation disabled.
  Guess Type is SAD.
  Energy threshold   = 1.00e-08
  Density threshold  = 1.00e-08
  Integral threshold = 0.00e+00

  ==> Primary Basis <==

  Basis Set: AUG-CC-PVDZ
    Blend: AUG-CC-PVDZ
    Number of shells: 197
    Number of basis function: 443
    Number of Cartesian functions: 469
    Spherical Harmonics?: true
    Max angular momentum: 2

   => Loading Basis Set <=

    Name: (AUG-CC-PVDZ AUX)
    Role: JKFIT
    Keyword: DF_BASIS_SCF
    atoms 1, 9                                           entry N          line   212 file /home/liuchw/anaconda3/envs/psi4env/share/psi4/basis/aug-cc-pvdz-jkfit.gbs 
    atoms 2, 6, 8, 10, 14-16, 18-19, 21-22, 24-25, 27-29 entry H          line    70 file /home/liuchw/anaconda3/envs/psi4env/share/psi4/basis/aug-cc-pvdz-jkfit.gbs 
    atoms 3, 5, 7, 11, 13, 17, 20, 23, 26                entry C          line   154 file /home/liuchw/anaconda3/envs/psi4env/share/psi4/basis/aug-cc-pvdz-jkfit.gbs 
    atoms 4, 12                                          entry O          line   270 file /home/liuchw/anaconda3/envs/psi4env/share/psi4/basis/aug-cc-pvdz-jkfit.gbs 

  ==> Pre-Iterations <==

   -------------------------------------------------------
    Irrep   Nso     Nmo     Nalpha   Nbeta   Ndocc  Nsocc
   -------------------------------------------------------
     A        443     443       0       0       0       0
   -------------------------------------------------------
    Total     443     443      50      50      50       0
   -------------------------------------------------------

  ==> Integral Setup <==

  ==> DiskDFJK: Density-Fitted J/K Matrices <==

    J tasked:                  Yes
    K tasked:                  Yes
    wK tasked:                  No
    OpenMP threads:              8
    Integrals threads:           8
    Memory [MiB]:            14305
    Algorithm:                Core
    Integral Cache:           SAVE
    Schwarz Cutoff:          1E-12
    Fitting Condition:       1E-10

   => Auxiliary Basis Set <=

  Basis Set: (AUG-CC-PVDZ AUX)
    Blend: AUG-CC-PVDZ-JKFIT
    Number of shells: 556
    Number of basis function: 1630
    Number of Cartesian functions: 1873
    Spherical Harmonics?: true
    Max angular momentum: 3

  Minimum eigenvalue in the overlap matrix is 1.3780903791E-05.
  Using Symmetric Orthogonalization.

  SCF Guess: Superposition of Atomic Densities via on-the-fly atomic UHF.

  ==> Iterations <==

                           Total Energy        Delta E     RMS |[F,P]|

   @DF-RHF iter SAD:  -607.75427453846396   -6.07754e+02   0.00000e+00 
   @DF-RHF iter   1:  -608.37236306563364   -6.18089e-01   2.17541e-03 DIIS
   @DF-RHF iter   2:  -608.75456955479876   -3.82206e-01   1.22845e-03 DIIS
   @DF-RHF iter   3:  -608.87389387996302   -1.19324e-01   2.69083e-04 DIIS
   @DF-RHF iter   4:  -608.88167810143295   -7.78422e-03   1.19362e-04 DIIS
   @DF-RHF iter   5:  -608.88340354150409   -1.72544e-03   1.83134e-05 DIIS
   @DF-RHF iter   6:  -608.88351157059265   -1.08029e-04   8.76480e-06 DIIS
   @DF-RHF iter   7:  -608.88353090371879   -1.93331e-05   3.54547e-06 DIIS
   @DF-RHF iter   8:  -608.88353500427809   -4.10056e-06   1.29792e-06 DIIS
   @DF-RHF iter   9:  -608.88353540044386   -3.96166e-07   5.13503e-07 DIIS
   @DF-RHF iter  10:  -608.88353546515248   -6.47086e-08   1.63936e-07 DIIS
   @DF-RHF iter  11:  -608.88353547248369   -7.33121e-09   5.57698e-08 DIIS
   @DF-RHF iter  12:  -608.88353547337238   -8.88690e-10   2.22604e-08 DIIS
   @DF-RHF iter  13:  -608.88353547348675   -1.14369e-10   6.71301e-09 DIIS
  Energy and wave function converged.


  ==> Post-Iterations <==

    Orbital Energies [Eh]
    ---------------------

    Doubly Occupied:                                                      

       1A    -20.559297     2A    -20.553667     3A    -15.652641  
       4A    -15.635562     5A    -11.429512     6A    -11.390417  
       7A    -11.348511     8A    -11.262839     9A    -11.219956  
      10A    -11.217778    11A    -11.217614    12A    -11.216705  
      13A    -11.212788    14A     -1.442325    15A     -1.404623  
      16A     -1.318433    17A     -1.249999    18A     -1.092156  
      19A     -1.083218    20A     -1.017178    21A     -0.936890  
      22A     -0.920774    23A     -0.905283    24A     -0.821534  
      25A     -0.809764    26A     -0.786494    27A     -0.767919  
      28A     -0.716470    29A     -0.680479    30A     -0.669891  
      31A     -0.655624    32A     -0.647004    33A     -0.617131  
      34A     -0.603236    35A     -0.598916    36A     -0.592488  
      37A     -0.571964    38A     -0.554745    39A     -0.547707  
      40A     -0.526398    41A     -0.525189    42A     -0.495301  
      43A     -0.484803    44A     -0.475275    45A     -0.462519  
      46A     -0.458322    47A     -0.449888    48A     -0.446620  
      49A     -0.437087    50A     -0.369001  

    Virtual:                                                              

      51A      0.018015    52A      0.037853    53A      0.039383  
      54A      0.043019    55A      0.049794    56A      0.050230  
      57A      0.056024    58A      0.059533    59A      0.064492  
      60A      0.069807    61A      0.075438    62A      0.077215  
      63A      0.079492    64A      0.090402    65A      0.092842  
      66A      0.094826    67A      0.099454    68A      0.103055  
      69A      0.105600    70A      0.110700    71A      0.121390  
      72A      0.128741    73A      0.133661    74A      0.138661  
      75A      0.140113    76A      0.147220    77A      0.149685  
      78A      0.150321    79A      0.158696    80A      0.160280  
      81A      0.164479    82A      0.167066    83A      0.168991  
      84A      0.171612    85A      0.173576    86A      0.177640  
      87A      0.178839    88A      0.184394    89A      0.185436  
      90A      0.189895    91A      0.192273    92A      0.195833  
      93A      0.198660    94A      0.200543    95A      0.203343  
      96A      0.211706    97A      0.215604    98A      0.222304  
      99A      0.233734   100A      0.234346   101A      0.245080  
     102A      0.248797   103A      0.254454   104A      0.259988  
     105A      0.263402   106A      0.266200   107A      0.274031  
     108A      0.280481   109A      0.283096   110A      0.291687  
     111A      0.298048   112A      0.301698   113A      0.309650  
     114A      0.312346   115A      0.317262   116A      0.324361  
     117A      0.329039   118A      0.332736   119A      0.336014  
     120A      0.343372   121A      0.346088   122A      0.350114  
     123A      0.354351   124A      0.360064   125A      0.367519  
     126A      0.367919   127A      0.374058   128A      0.378861  
     129A      0.379638   130A      0.383225   131A      0.389243  
     132A      0.395849   133A      0.400360   134A      0.405046  
     135A      0.408000   136A      0.416694   137A      0.422188  
     138A      0.424120   139A      0.431882   140A      0.440881  
     141A      0.444487   142A      0.448391   143A      0.452104  
     144A      0.453495   145A      0.463266   146A      0.467434  
     147A      0.469608   148A      0.472762   149A      0.480585  
     150A      0.483963   151A      0.488930   152A      0.492735  
     153A      0.500707   154A      0.501670   155A      0.508994  
     156A      0.511595   157A      0.513347   158A      0.518716  
     159A      0.522076   160A      0.529880   161A      0.533747  
     162A      0.536996   163A      0.543352   164A      0.548202  
     165A      0.553145   166A      0.559607   167A      0.561256  
     168A      0.562425   169A      0.569883   170A      0.572468  
     171A      0.580000   172A      0.586153   173A      0.589858  
     174A      0.597014   175A      0.601033   176A      0.609082  
     177A      0.613713   178A      0.622544   179A      0.631631  
     180A      0.635693   181A      0.638218   182A      0.640698  
     183A      0.643881   184A      0.647444   185A      0.649902  
     186A      0.654661   187A      0.657959   188A      0.662946  
     189A      0.664571   190A      0.676761   191A      0.679672  
     192A      0.682531   193A      0.687639   194A      0.696360  
     195A      0.704830   196A      0.708911   197A      0.712494  
     198A      0.721362   199A      0.723289   200A      0.726929  
     201A      0.728034   202A      0.732691   203A      0.739806  
     204A      0.746226   205A      0.755053   206A      0.767935  
     207A      0.771238   208A      0.777901   209A      0.784064  
     210A      0.793727   211A      0.798240   212A      0.805403  
     213A      0.810106   214A      0.812638   215A      0.819589  
     216A      0.821655   217A      0.828563   218A      0.836045  
     219A      0.837260   220A      0.845003   221A      0.847120  
     222A      0.850656   223A      0.854644   224A      0.861467  
     225A      0.865929   226A      0.870833   227A      0.884346  
     228A      0.896692   229A      0.900826   230A      0.910016  
     231A      0.911844   232A      0.919938   233A      0.925088  
     234A      0.928139   235A      0.946266   236A      0.949173  
     237A      0.953892   238A      0.968256   239A      0.970089  
     240A      0.972188   241A      0.978120   242A      0.981720  
     243A      0.986626   244A      0.990410   245A      0.992766  
     246A      0.999657   247A      1.025199   248A      1.034765  
     249A      1.062997   250A      1.066913   251A      1.076841  
     252A      1.084294   253A      1.095912   254A      1.103397  
     255A      1.124719   256A      1.129971   257A      1.136320  
     258A      1.155606   259A      1.158736   260A      1.165165  
     261A      1.171802   262A      1.185631   263A      1.198729  
     264A      1.202190   265A      1.219655   266A      1.223409  
     267A      1.233411   268A      1.243531   269A      1.256479  
     270A      1.276820   271A      1.292494   272A      1.299066  
     273A      1.315873   274A      1.321385   275A      1.329380  
     276A      1.335314   277A      1.337891   278A      1.350968  
     279A      1.356906   280A      1.364993   281A      1.368118  
     282A      1.391845   283A      1.446042   284A      1.446482  
     285A      1.472814   286A      1.487623   287A      1.490353  
     288A      1.504282   289A      1.526790   290A      1.535873  
     291A      1.544475   292A      1.549181   293A      1.557699  
     294A      1.563619   295A      1.573761   296A      1.591240  
     297A      1.595920   298A      1.603882   299A      1.628785  
     300A      1.645074   301A      1.650931   302A      1.658662  
     303A      1.669199   304A      1.680740   305A      1.700621  
     306A      1.701403   307A      1.719656   308A      1.756248  
     309A      1.764210   310A      1.790421   311A      1.801983  
     312A      1.826284   313A      1.837500   314A      1.840302  
     315A      1.850716   316A      1.854874   317A      1.866683  
     318A      1.868871   319A      1.872984   320A      1.908056  
     321A      1.910954   322A      1.914847   323A      1.932523  
     324A      1.937325   325A      1.958340   326A      1.962108  
     327A      1.971187   328A      1.977660   329A      1.981039  
     330A      1.990821   331A      1.998316   332A      2.007732  
     333A      2.014969   334A      2.024484   335A      2.052810  
     336A      2.096293   337A      2.098840   338A      2.103095  
     339A      2.108734   340A      2.113716   341A      2.120921  
     342A      2.130392   343A      2.134108   344A      2.135612  
     345A      2.142244   346A      2.155207   347A      2.157077  
     348A      2.198062   349A      2.203519   350A      2.208021  
     351A      2.211107   352A      2.223002   353A      2.225669  
     354A      2.244728   355A      2.259728   356A      2.268433  
     357A      2.275632   358A      2.287087   359A      2.312127  
     360A      2.319730   361A      2.322974   362A      2.330473  
     363A      2.334714   364A      2.347046   365A      2.352632  
     366A      2.359579   367A      2.371791   368A      2.384145  
     369A      2.420736   370A      2.431677   371A      2.434704  
     372A      2.436557   373A      2.443846   374A      2.455842  
     375A      2.478171   376A      2.482641   377A      2.487772  
     378A      2.518017   379A      2.532888   380A      2.548022  
     381A      2.552026   382A      2.579187   383A      2.591410  
     384A      2.630740   385A      2.666494   386A      2.677525  
     387A      2.692003   388A      2.695178   389A      2.702470  
     390A      2.723929   391A      2.737971   392A      2.739844  
     393A      2.742330   394A      2.769112   395A      2.777461  
     396A      2.784520   397A      2.790683   398A      2.805485  
     399A      2.830736   400A      2.847769   401A      2.861846  
     402A      2.877945   403A      2.891574   404A      2.893416  
     405A      2.898715   406A      2.900569   407A      2.906485  
     408A      2.966738   409A      2.969563   410A      2.992922  
     411A      2.998078   412A      3.010238   413A      3.018099  
     414A      3.095929   415A      3.108104   416A      3.111467  
     417A      3.148210   418A      3.162080   419A      3.173189  
     420A      3.179786   421A      3.192558   422A      3.228256  
     423A      3.277689   424A      3.297846   425A      3.333253  
     426A      3.362202   427A      3.376070   428A      3.464194  
     429A      3.481769   430A      3.537913   431A      3.600455  
     432A      3.728542   433A      3.760808   434A      3.764665  
     435A      3.805294   436A      3.819914   437A      3.822054  
     438A      3.834151   439A      4.029324   440A      4.051609  
     441A      4.073489   442A      4.174733   443A      4.325276  

    Final Occupation by Irrep:
              A 
    DOCC [    50 ]

  @DF-RHF Final Energy:  -608.88353547348675

   => Energetics <=

    Nuclear Repulsion Energy =            733.1929930288603146
    One-Electron Energy =               -2282.0331861450608812
    Two-Electron Energy =                 939.9566576427139353
    Total Energy =                       -608.8835354734867451

Computation Completed


Properties will be evaluated at   0.000000,   0.000000,   0.000000 [a0]

Properties computed using the SCF density matrix

  Nuclear Dipole Moment: [e a0]
     X:     2.3709      Y:     4.4376      Z:    33.3247

  Electronic Dipole Moment: [e a0]
     X:    -1.8103      Y:    -2.5894      Z:   -33.3518

  Dipole Moment: [e a0]
     X:     0.5607      Y:     1.8482      Z:    -0.0271     Total:     1.9315

  Dipole Moment: [D]
     X:     1.4250      Y:     4.6976      Z:    -0.0689     Total:     4.9095


*** tstop() called on node93.bme.utexas.edu at Thu Apr 23 17:57:19 2020
Module time:
	user time   =     212.00 seconds =       3.53 minutes
	system time =       3.28 seconds =       0.05 minutes
	total time  =         29 seconds =       0.48 minutes
Total time:
	user time   =     212.00 seconds =       3.53 minutes
	system time =       3.28 seconds =       0.05 minutes
	total time  =         29 seconds =       0.48 minutes

  //>>>>>>>>>>>>>>>>>>>>>>>>>>>>>>>>>>>//
  //            Monomer A HF           //
  //<<<<<<<<<<<<<<<<<<<<<<<<<<<<<<<<<<<//


*** tstart() called on node93.bme.utexas.edu
*** at Thu Apr 23 17:57:19 2020

   => Loading Basis Set <=

    Name: AUG-CC-PVDZ
    Role: ORBITAL
    Keyword: BASIS
    atoms 1, 9                                           entry N          line   218 file /home/liuchw/anaconda3/envs/psi4env/share/psi4/basis/aug-cc-pvdz.gbs 
    atoms 2, 6, 8, 10, 14-16, 18-19, 21-22, 24-25, 27-29 entry H          line    40 file /home/liuchw/anaconda3/envs/psi4env/share/psi4/basis/aug-cc-pvdz.gbs 
    atoms 3, 5, 7, 11, 13, 17, 20, 23, 26                entry C          line   182 file /home/liuchw/anaconda3/envs/psi4env/share/psi4/basis/aug-cc-pvdz.gbs 
    atoms 4, 12                                          entry O          line   254 file /home/liuchw/anaconda3/envs/psi4env/share/psi4/basis/aug-cc-pvdz.gbs 


         ---------------------------------------------------------
                                   SCF
               by Justin Turney, Rob Parrish, Andy Simmonett
                          and Daniel G. A. Smith
                              RHF Reference
                        8 Threads,  19073 MiB Core
         ---------------------------------------------------------

  ==> Geometry <==

    Molecular point group: c1
    Full point group: C1

    Geometry (in Angstrom), charge = 0, multiplicity = 1:

       Center              X                  Y                   Z               Mass       
    ------------   -----------------  -----------------  -----------------  -----------------
         N           -0.239346690955    -0.968456857359    -2.411164438934    14.003074004430
         H           -0.254586690955    -1.976986857359    -2.340844438934     1.007825032230
         C           -1.476776690955    -0.348456857359    -2.639264438934    12.000000000000
         O           -2.491676690955    -1.014666857359    -2.748034438934    15.994914619570
         C           -1.388216690955     1.099313142641    -2.717784438934    12.000000000000
         H           -2.287006690955     1.663853142641    -2.896074438934     1.007825032230
         C           -0.193436690955     1.706013142641    -2.564794438934    12.000000000000
         H           -0.076726690955     2.778573142641    -2.612574438934     1.007825032230
         N            0.955013309045     0.996943142641    -2.334714438934    14.003074004430
         H            1.837123309045     1.463053142641    -2.201144438934     1.007825032230
         C            0.996583309045    -0.383046857359    -2.233274438934    12.000000000000
         O            2.018763309045    -1.001276857359    -2.008664438934    15.994914619570
      Gh(C)           1.340653309045     2.382963142641     3.843605561066    12.000000000000
      Gh(H)           0.909803309045     2.694013142641     2.890825561066     1.007825032230
      Gh(H)           0.706423309045     2.788393142641     4.631855561066     1.007825032230
      Gh(H)           2.323533309045     2.843413142641     3.936725561066     1.007825032230
      Gh(C)           1.413673309045     0.864093142641     3.933125561066    12.000000000000
      Gh(H)           1.844053309045     0.574523142641     4.894415561066     1.007825032230
      Gh(H)           2.088263309045     0.472933142641     3.168005561066     1.007825032230
      Gh(C)           0.048883309045     0.205923142641     3.778305561066    12.000000000000
      Gh(H)          -0.622356690955     0.574803142641     4.559925561066     1.007825032230
      Gh(H)          -0.398586690955     0.516193142641     2.828405561066     1.007825032230
      Gh(C)           0.105173309045    -1.314766857359     3.837945561066    12.000000000000
      Gh(H)           0.528783309045    -1.617196857359     4.798585561066     1.007825032230
      Gh(H)           0.796693309045    -1.676646857359     3.073445561066     1.007825032230
      Gh(C)          -1.264106690955    -1.956636857359     3.654175561066    12.000000000000
      Gh(H)          -1.702486690955    -1.683176857359     2.693985561066     1.007825032230
      Gh(H)          -1.207166690955    -3.043406857359     3.698225561066     1.007825032230
      Gh(H)          -1.952066690955    -1.628286857359     4.433405561066     1.007825032230

  Running in c1 symmetry.

  Rotational constants: A =      0.02678  B =      0.00854  C =      0.00775 [cm^-1]
  Rotational constants: A =    802.93653  B =    256.12238  C =    232.27088 [MHz]
  Nuclear repulsion =  357.066078865884606

  Charge       = 0
  Multiplicity = 1
  Electrons    = 58
  Nalpha       = 29
  Nbeta        = 29

  ==> Algorithm <==

  SCF Algorithm Type is DF.
  DIIS enabled.
  MOM disabled.
  Fractional occupation disabled.
  Guess Type is SAD.
  Energy threshold   = 1.00e-08
  Density threshold  = 1.00e-08
  Integral threshold = 0.00e+00

  ==> Primary Basis <==

  Basis Set: AUG-CC-PVDZ
    Blend: AUG-CC-PVDZ
    Number of shells: 197
    Number of basis function: 443
    Number of Cartesian functions: 469
    Spherical Harmonics?: true
    Max angular momentum: 2

   => Loading Basis Set <=

    Name: (AUG-CC-PVDZ AUX)
    Role: JKFIT
    Keyword: DF_BASIS_SCF
    atoms 1, 9                                           entry N          line   212 file /home/liuchw/anaconda3/envs/psi4env/share/psi4/basis/aug-cc-pvdz-jkfit.gbs 
    atoms 2, 6, 8, 10, 14-16, 18-19, 21-22, 24-25, 27-29 entry H          line    70 file /home/liuchw/anaconda3/envs/psi4env/share/psi4/basis/aug-cc-pvdz-jkfit.gbs 
    atoms 3, 5, 7, 11, 13, 17, 20, 23, 26                entry C          line   154 file /home/liuchw/anaconda3/envs/psi4env/share/psi4/basis/aug-cc-pvdz-jkfit.gbs 
    atoms 4, 12                                          entry O          line   270 file /home/liuchw/anaconda3/envs/psi4env/share/psi4/basis/aug-cc-pvdz-jkfit.gbs 

  ==> Pre-Iterations <==

   -------------------------------------------------------
    Irrep   Nso     Nmo     Nalpha   Nbeta   Ndocc  Nsocc
   -------------------------------------------------------
     A        443     443       0       0       0       0
   -------------------------------------------------------
    Total     443     443      29      29      29       0
   -------------------------------------------------------

  ==> Integral Setup <==

  ==> DiskDFJK: Density-Fitted J/K Matrices <==

    J tasked:                  Yes
    K tasked:                  Yes
    wK tasked:                  No
    OpenMP threads:              8
    Integrals threads:           8
    Memory [MiB]:            14305
    Algorithm:                Core
    Integral Cache:           LOAD
    Schwarz Cutoff:          1E-12
    Fitting Condition:       1E-10

   => Auxiliary Basis Set <=

  Basis Set: (AUG-CC-PVDZ AUX)
    Blend: AUG-CC-PVDZ-JKFIT
    Number of shells: 556
    Number of basis function: 1630
    Number of Cartesian functions: 1873
    Spherical Harmonics?: true
    Max angular momentum: 3

  Minimum eigenvalue in the overlap matrix is 1.3780903791E-05.
  Using Symmetric Orthogonalization.

  SCF Guess: Superposition of Atomic Densities via on-the-fly atomic UHF.

  ==> Iterations <==

                           Total Energy        Delta E     RMS |[F,P]|

   @DF-RHF iter SAD:  -411.89206283831248   -4.11892e+02   0.00000e+00 
   @DF-RHF iter   1:  -412.28617870315202   -3.94116e-01   1.62078e-03 DIIS
   @DF-RHF iter   2:  -412.44920124860556   -1.63023e-01   1.04386e-03 DIIS
   @DF-RHF iter   3:  -412.52460096054955   -7.53997e-02   1.96573e-04 DIIS
   @DF-RHF iter   4:  -412.52879584017558   -4.19488e-03   7.82998e-05 DIIS
   @DF-RHF iter   5:  -412.52962998759472   -8.34147e-04   1.59501e-05 DIIS
   @DF-RHF iter   6:  -412.52972685355479   -9.68660e-05   8.10797e-06 DIIS
   @DF-RHF iter   7:  -412.52974423617178   -1.73826e-05   3.09840e-06 DIIS
   @DF-RHF iter   8:  -412.52974703901390   -2.80284e-06   1.06181e-06 DIIS
   @DF-RHF iter   9:  -412.52974723930691   -2.00293e-07   4.32210e-07 DIIS
   @DF-RHF iter  10:  -412.52974728988568   -5.05788e-08   1.39474e-07 DIIS
   @DF-RHF iter  11:  -412.52974729555979   -5.67411e-09   4.73977e-08 DIIS
   @DF-RHF iter  12:  -412.52974729603756   -4.77769e-10   1.43594e-08 DIIS
   @DF-RHF iter  13:  -412.52974729609366   -5.61045e-11   5.16795e-09 DIIS
  Energy and wave function converged.


  ==> Post-Iterations <==

    Orbital Energies [Eh]
    ---------------------

    Doubly Occupied:                                                      

       1A    -20.558914     2A    -20.553382     3A    -15.652344  
       4A    -15.635211     5A    -11.429149     6A    -11.390133  
       7A    -11.348269     8A    -11.262586     9A     -1.441959  
      10A     -1.404323    11A     -1.318112    12A     -1.249667  
      13A     -1.091885    14A     -0.936602    15A     -0.904962  
      16A     -0.809474    17A     -0.767623    18A     -0.716188  
      19A     -0.680172    20A     -0.669538    21A     -0.655292  
      22A     -0.616861    23A     -0.602970    24A     -0.571650  
      25A     -0.526069    26A     -0.484443    27A     -0.449591  
      28A     -0.436734    29A     -0.368721  

    Virtual:                                                              

      30A      0.014323    31A      0.025131    32A      0.033661  
      33A      0.038700    34A      0.046428    35A      0.047361  
      36A      0.054250    37A      0.056691    38A      0.058736  
      39A      0.066158    40A      0.072673    41A      0.075066  
      42A      0.078086    43A      0.086853    44A      0.089590  
      45A      0.093119    46A      0.097801    47A      0.101365  
      48A      0.105194    49A      0.108048    50A      0.110876  
      51A      0.116146    52A      0.122604    53A      0.126557  
      54A      0.130246    55A      0.137996    56A      0.142808  
      57A      0.145070    58A      0.145610    59A      0.149701  
      60A      0.151448    61A      0.156605    62A      0.160575  
      63A      0.164478    64A      0.166049    65A      0.167732  
      66A      0.169397    67A      0.172678    68A      0.177557  
      69A      0.181479    70A      0.182967    71A      0.189228  
      72A      0.194468    73A      0.196887    74A      0.201896  
      75A      0.209044    76A      0.210569    77A      0.215864  
      78A      0.216455    79A      0.216715    80A      0.226755  
      81A      0.239235    82A      0.247896    83A      0.253215  
      84A      0.256722    85A      0.261419    86A      0.267197  
      87A      0.270972    88A      0.275692    89A      0.286423  
      90A      0.290351    91A      0.309144    92A      0.314814  
      93A      0.318248    94A      0.322772    95A      0.325528  
      96A      0.330013    97A      0.338408    98A      0.339017  
      99A      0.344233   100A      0.348844   101A      0.353950  
     102A      0.357585   103A      0.361845   104A      0.366483  
     105A      0.367616   106A      0.370796   107A      0.372761  
     108A      0.382217   109A      0.391253   110A      0.392524  
     111A      0.400894   112A      0.404003   113A      0.409157  
     114A      0.412496   115A      0.413988   116A      0.417302  
     117A      0.418849   118A      0.428661   119A      0.430990  
     120A      0.436594   121A      0.445951   122A      0.447336  
     123A      0.450843   124A      0.454700   125A      0.456842  
     126A      0.461621   127A      0.469601   128A      0.471932  
     129A      0.480964   130A      0.483119   131A      0.484976  
     132A      0.493011   133A      0.498282   134A      0.507713  
     135A      0.513333   136A      0.515230   137A      0.518461  
     138A      0.526771   139A      0.534579   140A      0.537914  
     141A      0.551811   142A      0.553856   143A      0.557469  
     144A      0.559073   145A      0.560808   146A      0.568517  
     147A      0.573799   148A      0.580216   149A      0.586512  
     150A      0.596282   151A      0.603638   152A      0.609495  
     153A      0.619034   154A      0.620001   155A      0.625975  
     156A      0.629667   157A      0.636128   158A      0.639547  
     159A      0.640346   160A      0.645976   161A      0.652357  
     162A      0.654287   163A      0.659837   164A      0.670607  
     165A      0.679918   166A      0.684028   167A      0.685536  
     168A      0.700751   169A      0.707052   170A      0.710594  
     171A      0.713228   172A      0.721876   173A      0.728281  
     174A      0.734889   175A      0.737260   176A      0.752993  
     177A      0.759729   178A      0.764017   179A      0.766870  
     180A      0.769027   181A      0.772395   182A      0.777119  
     183A      0.790771   184A      0.797158   185A      0.805892  
     186A      0.809992   187A      0.812415   188A      0.813318  
     189A      0.815774   190A      0.826449   191A      0.831503  
     192A      0.835945   193A      0.837932   194A      0.844438  
     195A      0.846188   196A      0.853094   197A      0.858091  
     198A      0.860291   199A      0.867096   200A      0.868170  
     201A      0.872761   202A      0.873716   203A      0.879456  
     204A      0.888539   205A      0.891850   206A      0.893641  
     207A      0.902686   208A      0.913613   209A      0.915763  
     210A      0.927741   211A      0.931435   212A      0.936852  
     213A      0.945071   214A      0.946986   215A      0.949329  
     216A      0.963150   217A      0.969236   218A      0.978305  
     219A      0.980182   220A      0.981020   221A      0.987348  
     222A      0.987836   223A      0.993058   224A      1.000486  
     225A      1.017238   226A      1.026115   227A      1.032727  
     228A      1.037218   229A      1.050447   230A      1.054645  
     231A      1.064613   232A      1.072986   233A      1.078629  
     234A      1.087021   235A      1.095281   236A      1.097496  
     237A      1.105408   238A      1.113506   239A      1.117953  
     240A      1.131290   241A      1.137235   242A      1.162328  
     243A      1.167091   244A      1.172910   245A      1.177267  
     246A      1.219392   247A      1.220205   248A      1.223274  
     249A      1.234234   250A      1.243310   251A      1.245990  
     252A      1.262332   253A      1.288836   254A      1.297103  
     255A      1.305489   256A      1.314803   257A      1.326533  
     258A      1.351965   259A      1.360077   260A      1.362671  
     261A      1.392516   262A      1.447118   263A      1.456391  
     264A      1.477515   265A      1.479924   266A      1.488719  
     267A      1.525635   268A      1.531912   269A      1.544633  
     270A      1.550737   271A      1.570742   272A      1.601000  
     273A      1.645330   274A      1.650804   275A      1.670481  
     276A      1.681981   277A      1.716372   278A      1.756950  
     279A      1.793222   280A      1.821572   281A      1.833493  
     282A      1.852713   283A      1.867828   284A      1.906565  
     285A      1.917139   286A      1.935771   287A      1.942800  
     288A      1.962415   289A      1.980144   290A      1.988266  
     291A      2.005444   292A      2.009501   293A      2.017318  
     294A      2.021165   295A      2.050579   296A      2.058144  
     297A      2.078467   298A      2.085040   299A      2.086126  
     300A      2.097096   301A      2.103275   302A      2.107463  
     303A      2.122241   304A      2.153493   305A      2.174709  
     306A      2.176973   307A      2.190638   308A      2.199482  
     309A      2.221905   310A      2.224209   311A      2.243528  
     312A      2.262786   313A      2.269277   314A      2.281301  
     315A      2.304713   316A      2.321953   317A      2.328298  
     318A      2.332444   319A      2.336162   320A      2.347665  
     321A      2.352457   322A      2.356233   323A      2.361210  
     324A      2.362063   325A      2.367966   326A      2.373186  
     327A      2.379237   328A      2.390587   329A      2.403856  
     330A      2.408655   331A      2.409993   332A      2.430278  
     333A      2.432791   334A      2.436138   335A      2.439602  
     336A      2.442138   337A      2.445841   338A      2.454086  
     339A      2.455423   340A      2.468524   341A      2.477538  
     342A      2.497620   343A      2.501065   344A      2.515865  
     345A      2.519768   346A      2.523667   347A      2.551772  
     348A      2.558705   349A      2.560303   350A      2.581545  
     351A      2.586884   352A      2.603878   353A      2.618029  
     354A      2.628421   355A      2.645461   356A      2.695197  
     357A      2.697344   358A      2.724875   359A      2.729946  
     360A      2.731921   361A      2.745222   362A      2.784586  
     363A      2.791107   364A      2.806174   365A      2.830258  
     366A      2.831887   367A      2.848149   368A      2.853517  
     369A      2.857521   370A      2.862742   371A      2.867442  
     372A      2.879438   373A      2.899659   374A      2.968789  
     375A      2.979192   376A      2.997854   377A      3.014465  
     378A      3.041884   379A      3.066083   380A      3.083432  
     381A      3.096636   382A      3.098322   383A      3.145241  
     384A      3.164177   385A      3.173341   386A      3.209575  
     387A      3.227261   388A      3.229074   389A      3.246164  
     390A      3.314726   391A      3.332598   392A      3.357475  
     393A      3.363231   394A      3.391300   395A      3.395955  
     396A      3.410038   397A      3.436697   398A      3.446537  
     399A      3.450464   400A      3.477331   401A      3.538238  
     402A      3.553798   403A      3.575344   404A      3.600121  
     405A      3.621683   406A      3.647080   407A      3.702887  
     408A      3.724342   409A      3.729811   410A      3.761302  
     411A      3.766020   412A      3.805432   413A      3.806625  
     414A      3.820958   415A      3.825884   416A      3.834637  
     417A      3.938992   418A      4.029621   419A      4.051870  
     420A      4.073879   421A      4.090642   422A      4.175355  
     423A      4.292959   424A      4.326160   425A      4.354388  
     426A      4.452340   427A      4.497291   428A      4.772073  
     429A      4.817939   430A      4.873502   431A      4.924852  
     432A      4.976775   433A      5.023118   434A      5.104250  
     435A      5.175657   436A      5.236422   437A      5.262007  
     438A      5.363811   439A     18.250971   440A     18.442848  
     441A     18.674526   442A     18.984701   443A     19.170395  

    Final Occupation by Irrep:
              A 
    DOCC [    29 ]

  @DF-RHF Final Energy:  -412.52974729609366

   => Energetics <=

    Nuclear Repulsion Energy =            357.0660788658846059
    One-Electron Energy =               -1270.1260063603249364
    Two-Electron Energy =                 500.5301801983466703
    Total Energy =                       -412.5297472960936602

Computation Completed


Properties will be evaluated at   0.000000,   0.000000,   0.000000 [a0]

Properties computed using the SCF density matrix

  Nuclear Dipole Moment: [e a0]
     X:   -22.5367      Y:     0.8377      Z:  -268.8250

  Electronic Dipole Moment: [e a0]
     X:    23.0735      Y:     1.0714      Z:   268.7801

  Dipole Moment: [e a0]
     X:     0.5368      Y:     1.9091      Z:    -0.0449     Total:     1.9837

  Dipole Moment: [D]
     X:     1.3644      Y:     4.8525      Z:    -0.1142     Total:     5.0419


*** tstop() called on node93.bme.utexas.edu at Thu Apr 23 17:57:35 2020
Module time:
	user time   =     108.15 seconds =       1.80 minutes
	system time =       1.93 seconds =       0.03 minutes
	total time  =         16 seconds =       0.27 minutes
Total time:
	user time   =     320.22 seconds =       5.34 minutes
	system time =       5.21 seconds =       0.09 minutes
	total time  =         45 seconds =       0.75 minutes

  //>>>>>>>>>>>>>>>>>>>>>>>>>>>>>>>>>>>//
  //            Monomer B HF           //
  //<<<<<<<<<<<<<<<<<<<<<<<<<<<<<<<<<<<//


*** tstart() called on node93.bme.utexas.edu
*** at Thu Apr 23 17:57:35 2020

   => Loading Basis Set <=

    Name: AUG-CC-PVDZ
    Role: ORBITAL
    Keyword: BASIS
    atoms 1, 9                                           entry N          line   218 file /home/liuchw/anaconda3/envs/psi4env/share/psi4/basis/aug-cc-pvdz.gbs 
    atoms 2, 6, 8, 10, 14-16, 18-19, 21-22, 24-25, 27-29 entry H          line    40 file /home/liuchw/anaconda3/envs/psi4env/share/psi4/basis/aug-cc-pvdz.gbs 
    atoms 3, 5, 7, 11, 13, 17, 20, 23, 26                entry C          line   182 file /home/liuchw/anaconda3/envs/psi4env/share/psi4/basis/aug-cc-pvdz.gbs 
    atoms 4, 12                                          entry O          line   254 file /home/liuchw/anaconda3/envs/psi4env/share/psi4/basis/aug-cc-pvdz.gbs 


         ---------------------------------------------------------
                                   SCF
               by Justin Turney, Rob Parrish, Andy Simmonett
                          and Daniel G. A. Smith
                              RHF Reference
                        8 Threads,  19073 MiB Core
         ---------------------------------------------------------

  ==> Geometry <==

    Molecular point group: c1
    Full point group: C1

    Geometry (in Angstrom), charge = 0, multiplicity = 1:

       Center              X                  Y                   Z               Mass       
    ------------   -----------------  -----------------  -----------------  -----------------
      Gh(N)          -0.239346690955    -0.968456857359    -2.411164438934    14.003074004430
      Gh(H)          -0.254586690955    -1.976986857359    -2.340844438934     1.007825032230
      Gh(C)          -1.476776690955    -0.348456857359    -2.639264438934    12.000000000000
      Gh(O)          -2.491676690955    -1.014666857359    -2.748034438934    15.994914619570
      Gh(C)          -1.388216690955     1.099313142641    -2.717784438934    12.000000000000
      Gh(H)          -2.287006690955     1.663853142641    -2.896074438934     1.007825032230
      Gh(C)          -0.193436690955     1.706013142641    -2.564794438934    12.000000000000
      Gh(H)          -0.076726690955     2.778573142641    -2.612574438934     1.007825032230
      Gh(N)           0.955013309045     0.996943142641    -2.334714438934    14.003074004430
      Gh(H)           1.837123309045     1.463053142641    -2.201144438934     1.007825032230
      Gh(C)           0.996583309045    -0.383046857359    -2.233274438934    12.000000000000
      Gh(O)           2.018763309045    -1.001276857359    -2.008664438934    15.994914619570
         C            1.340653309045     2.382963142641     3.843605561066    12.000000000000
         H            0.909803309045     2.694013142641     2.890825561066     1.007825032230
         H            0.706423309045     2.788393142641     4.631855561066     1.007825032230
         H            2.323533309045     2.843413142641     3.936725561066     1.007825032230
         C            1.413673309045     0.864093142641     3.933125561066    12.000000000000
         H            1.844053309045     0.574523142641     4.894415561066     1.007825032230
         H            2.088263309045     0.472933142641     3.168005561066     1.007825032230
         C            0.048883309045     0.205923142641     3.778305561066    12.000000000000
         H           -0.622356690955     0.574803142641     4.559925561066     1.007825032230
         H           -0.398586690955     0.516193142641     2.828405561066     1.007825032230
         C            0.105173309045    -1.314766857359     3.837945561066    12.000000000000
         H            0.528783309045    -1.617196857359     4.798585561066     1.007825032230
         H            0.796693309045    -1.676646857359     3.073445561066     1.007825032230
         C           -1.264106690955    -1.956636857359     3.654175561066    12.000000000000
         H           -1.702486690955    -1.683176857359     2.693985561066     1.007825032230
         H           -1.207166690955    -3.043406857359     3.698225561066     1.007825032230
         H           -1.952066690955    -1.628286857359     4.433405561066     1.007825032230

  Running in c1 symmetry.

  Rotational constants: A =      0.02678  B =      0.00854  C =      0.00775 [cm^-1]
  Rotational constants: A =    802.93653  B =    256.12238  C =    232.27088 [MHz]
  Nuclear repulsion =  185.616615698671751

  Charge       = 0
  Multiplicity = 1
  Electrons    = 42
  Nalpha       = 21
  Nbeta        = 21

  ==> Algorithm <==

  SCF Algorithm Type is DF.
  DIIS enabled.
  MOM disabled.
  Fractional occupation disabled.
  Guess Type is SAD.
  Energy threshold   = 1.00e-08
  Density threshold  = 1.00e-08
  Integral threshold = 0.00e+00

  ==> Primary Basis <==

  Basis Set: AUG-CC-PVDZ
    Blend: AUG-CC-PVDZ
    Number of shells: 197
    Number of basis function: 443
    Number of Cartesian functions: 469
    Spherical Harmonics?: true
    Max angular momentum: 2

   => Loading Basis Set <=

    Name: (AUG-CC-PVDZ AUX)
    Role: JKFIT
    Keyword: DF_BASIS_SCF
    atoms 1, 9                                           entry N          line   212 file /home/liuchw/anaconda3/envs/psi4env/share/psi4/basis/aug-cc-pvdz-jkfit.gbs 
    atoms 2, 6, 8, 10, 14-16, 18-19, 21-22, 24-25, 27-29 entry H          line    70 file /home/liuchw/anaconda3/envs/psi4env/share/psi4/basis/aug-cc-pvdz-jkfit.gbs 
    atoms 3, 5, 7, 11, 13, 17, 20, 23, 26                entry C          line   154 file /home/liuchw/anaconda3/envs/psi4env/share/psi4/basis/aug-cc-pvdz-jkfit.gbs 
    atoms 4, 12                                          entry O          line   270 file /home/liuchw/anaconda3/envs/psi4env/share/psi4/basis/aug-cc-pvdz-jkfit.gbs 

  ==> Pre-Iterations <==

   -------------------------------------------------------
    Irrep   Nso     Nmo     Nalpha   Nbeta   Ndocc  Nsocc
   -------------------------------------------------------
     A        443     443       0       0       0       0
   -------------------------------------------------------
    Total     443     443      21      21      21       0
   -------------------------------------------------------

  ==> Integral Setup <==

  ==> DiskDFJK: Density-Fitted J/K Matrices <==

    J tasked:                  Yes
    K tasked:                  Yes
    wK tasked:                  No
    OpenMP threads:              8
    Integrals threads:           8
    Memory [MiB]:            14305
    Algorithm:                Core
    Integral Cache:           LOAD
    Schwarz Cutoff:          1E-12
    Fitting Condition:       1E-10

   => Auxiliary Basis Set <=

  Basis Set: (AUG-CC-PVDZ AUX)
    Blend: AUG-CC-PVDZ-JKFIT
    Number of shells: 556
    Number of basis function: 1630
    Number of Cartesian functions: 1873
    Spherical Harmonics?: true
    Max angular momentum: 3

  Minimum eigenvalue in the overlap matrix is 1.3780903791E-05.
  Using Symmetric Orthogonalization.

  SCF Guess: Superposition of Atomic Densities via on-the-fly atomic UHF.

  ==> Iterations <==

                           Total Energy        Delta E     RMS |[F,P]|

   @DF-RHF iter SAD:  -195.86004494348973   -1.95860e+02   0.00000e+00 
   @DF-RHF iter   1:  -196.08597348752500   -2.25929e-01   1.45194e-03 DIIS
   @DF-RHF iter   2:  -196.30493745870410   -2.18964e-01   6.51275e-04 DIIS
   @DF-RHF iter   3:  -196.35075338571428   -4.58159e-02   1.15252e-04 DIIS
   @DF-RHF iter   4:  -196.35365579459722   -2.90241e-03   2.42949e-05 DIIS
   @DF-RHF iter   5:  -196.35374722984690   -9.14352e-05   6.98273e-06 DIIS
   @DF-RHF iter   6:  -196.35375617144263   -8.94160e-06   1.01812e-06 DIIS
   @DF-RHF iter   7:  -196.35375640486541   -2.33423e-07   2.11984e-07 DIIS
   @DF-RHF iter   8:  -196.35375641558383   -1.07184e-08   4.04295e-08 DIIS
   @DF-RHF iter   9:  -196.35375641596136   -3.77526e-10   1.33778e-08 DIIS
   @DF-RHF iter  10:  -196.35375641599381   -3.24576e-11   3.20483e-09 DIIS
  Energy and wave function converged.


  ==> Post-Iterations <==

    Orbital Energies [Eh]
    ---------------------

    Doubly Occupied:                                                      

       1A    -11.218416     2A    -11.218328     3A    -11.215747  
       4A    -11.214182     5A    -11.214167     6A     -1.082428  
       7A     -1.016373     8A     -0.919807     9A     -0.820760  
      10A     -0.785806    11A     -0.646189    12A     -0.598022  
      13A     -0.591659    14A     -0.553897    15A     -0.546791  
      16A     -0.524080    17A     -0.494518    18A     -0.474512  
      19A     -0.461842    20A     -0.457653    21A     -0.445838  

    Virtual:                                                              

      22A      0.020884    23A      0.036407    24A      0.037417  
      25A      0.041373    26A      0.049068    27A      0.050511  
      28A      0.056278    29A      0.059512    30A      0.063070  
      31A      0.068862    32A      0.074031    33A      0.077869  
      34A      0.081544    35A      0.086721    36A      0.091467  
      37A      0.093300    38A      0.094967    39A      0.104218  
      40A      0.109966    41A      0.110526    42A      0.119251  
      43A      0.123593    44A      0.129096    45A      0.131719  
      46A      0.135335    47A      0.136446    48A      0.150366  
      49A      0.157170    50A      0.160669    51A      0.162375  
      52A      0.165244    53A      0.166404    54A      0.170811  
      55A      0.170830    56A      0.176815    57A      0.180704  
      58A      0.183549    59A      0.190365    60A      0.191828  
      61A      0.193988    62A      0.197369    63A      0.198943  
      64A      0.204375    65A      0.208840    66A      0.209849  
      67A      0.217358    68A      0.218392    69A      0.224260  
      70A      0.229161    71A      0.233570    72A      0.242608  
      73A      0.243894    74A      0.249495    75A      0.252800  
      76A      0.255789    77A      0.264946    78A      0.277271  
      79A      0.278159    80A      0.287565    81A      0.290470  
      82A      0.293972    83A      0.299612    84A      0.304852  
      85A      0.306477    86A      0.312209    87A      0.318858  
      88A      0.320060    89A      0.324701    90A      0.334719  
      91A      0.338289    92A      0.346716    93A      0.349119  
      94A      0.359731    95A      0.361741    96A      0.367396  
      97A      0.373935    98A      0.378569    99A      0.386682  
     100A      0.390564   101A      0.403650   102A      0.407156  
     103A      0.411659   104A      0.419051   105A      0.428189  
     106A      0.434839   107A      0.440908   108A      0.445746  
     109A      0.451500   110A      0.456484   111A      0.461947  
     112A      0.467425   113A      0.470218   114A      0.475487  
     115A      0.481391   116A      0.483138   117A      0.484485  
     118A      0.489852   119A      0.493585   120A      0.502203  
     121A      0.504680   122A      0.506836   123A      0.508085  
     124A      0.513425   125A      0.518184   126A      0.523846  
     127A      0.526446   128A      0.533091   129A      0.536856  
     130A      0.540173   131A      0.542489   132A      0.548389  
     133A      0.550870   134A      0.560542   135A      0.563668  
     136A      0.565594   137A      0.573258   138A      0.576266  
     139A      0.581965   140A      0.585574   141A      0.594354  
     142A      0.597891   143A      0.604983   144A      0.611746  
     145A      0.613662   146A      0.620239   147A      0.626281  
     148A      0.627363   149A      0.635323   150A      0.639821  
     151A      0.642122   152A      0.645718   153A      0.648345  
     154A      0.654139   155A      0.658362   156A      0.661192  
     157A      0.665760   158A      0.668661   159A      0.678061  
     160A      0.680006   161A      0.690868   162A      0.694613  
     163A      0.701500   164A      0.705136   165A      0.707237  
     166A      0.718735   167A      0.724023   168A      0.726589  
     169A      0.730696   170A      0.737398   171A      0.740996  
     172A      0.750742   173A      0.759141   174A      0.776554  
     175A      0.779328   176A      0.785252   177A      0.794641  
     178A      0.795188   179A      0.802049   180A      0.808287  
     181A      0.817689   182A      0.818920   183A      0.820555  
     184A      0.832983   185A      0.835884   186A      0.842049  
     187A      0.850362   188A      0.854086   189A      0.856353  
     190A      0.865136   191A      0.870685   192A      0.873869  
     193A      0.879521   194A      0.901074   195A      0.910201  
     196A      0.912136   197A      0.913957   198A      0.921807  
     199A      0.925270   200A      0.928036   201A      0.932019  
     202A      0.943906   203A      0.954575   204A      0.968905  
     205A      0.972025   206A      0.973449   207A      0.986179  
     208A      0.990495   209A      0.996093   210A      1.007097  
     211A      1.018772   212A      1.036328   213A      1.060135  
     214A      1.066011   215A      1.086183   216A      1.091586  
     217A      1.109984   218A      1.112433   219A      1.126989  
     220A      1.132199   221A      1.143935   222A      1.154461  
     223A      1.160090   224A      1.169541   225A      1.179422  
     226A      1.189717   227A      1.199047   228A      1.203293  
     229A      1.214456   230A      1.219508   231A      1.223404  
     232A      1.226549   233A      1.229722   234A      1.234206  
     235A      1.256885   236A      1.260580   237A      1.269557  
     238A      1.290814   239A      1.300165   240A      1.301561  
     241A      1.319124   242A      1.322786   243A      1.328595  
     244A      1.335925   245A      1.337028   246A      1.350440  
     247A      1.357924   248A      1.370126   249A      1.373674  
     250A      1.387751   251A      1.388779   252A      1.424808  
     253A      1.434568   254A      1.448017   255A      1.464473  
     256A      1.471745   257A      1.489509   258A      1.498217  
     259A      1.511092   260A      1.523579   261A      1.539697  
     262A      1.558552   263A      1.561370   264A      1.568455  
     265A      1.574998   266A      1.587814   267A      1.597789  
     268A      1.607064   269A      1.618364   270A      1.631550  
     271A      1.658214   272A      1.664453   273A      1.687367  
     274A      1.700007   275A      1.705983   276A      1.747251  
     277A      1.763984   278A      1.810518   279A      1.816958  
     280A      1.841093   281A      1.853544   282A      1.868406  
     283A      1.871973   284A      1.882018   285A      1.908706  
     286A      1.914460   287A      1.934787   288A      1.957678  
     289A      1.971668   290A      1.978753   291A      1.982845  
     292A      1.999867   293A      2.096690   294A      2.102196  
     295A      2.109434   296A      2.112626   297A      2.115477  
     298A      2.128657   299A      2.133331   300A      2.133748  
     301A      2.143239   302A      2.157030   303A      2.168456  
     304A      2.202936   305A      2.205605   306A      2.211061  
     307A      2.211781   308A      2.216499   309A      2.256425  
     310A      2.260136   311A      2.264134   312A      2.275996  
     313A      2.276490   314A      2.287219   315A      2.308236  
     316A      2.312811   317A      2.323345   318A      2.334426  
     319A      2.347898   320A      2.354860   321A      2.378268  
     322A      2.415840   323A      2.416365   324A      2.425115  
     325A      2.432219   326A      2.433099   327A      2.442929  
     328A      2.477547   329A      2.479987   330A      2.488265  
     331A      2.506109   332A      2.529602   333A      2.533559  
     334A      2.542883   335A      2.548745   336A      2.551777  
     337A      2.566157   338A      2.591053   339A      2.620405  
     340A      2.647564   341A      2.663311   342A      2.667298  
     343A      2.679065   344A      2.692800   345A      2.703398  
     346A      2.711102   347A      2.739183   348A      2.740436  
     349A      2.754519   350A      2.767790   351A      2.770980  
     352A      2.778691   353A      2.806166   354A      2.812198  
     355A      2.815963   356A      2.891222   357A      2.894144  
     358A      2.895654   359A      2.900214   360A      2.903658  
     361A      2.906476   362A      2.965876   363A      2.966817  
     364A      2.971885   365A      2.995177   366A      3.014506  
     367A      3.037658   368A      3.040987   369A      3.093581  
     370A      3.109083   371A      3.111542   372A      3.147563  
     373A      3.169968   374A      3.179817   375A      3.184081  
     376A      3.192976   377A      3.274072   378A      3.278232  
     379A      3.299171   380A      3.324803   381A      3.334969  
     382A      3.373467   383A      3.458016   384A      3.466473  
     385A      3.470157   386A      3.498739   387A      3.512067  
     388A      3.606731   389A      3.619736   390A      3.649518  
     391A      3.666514   392A      3.715304   393A      3.758743  
     394A      3.777080   395A      3.805483   396A      3.860615  
     397A      3.901855   398A      3.927949   399A      4.063275  
     400A      4.125702   401A      4.185065   402A      4.338793  
     403A      4.426000   404A      4.464002   405A      4.546646  
     406A      4.609009   407A      4.664917   408A      4.688725  
     409A      4.744289   410A      4.771601   411A      4.920429  
     412A      4.969645   413A      5.010701   414A      5.012241  
     415A      5.034452   416A      5.060178   417A      5.074251  
     418A      5.111551   419A      5.194725   420A      5.317482  
     421A      5.417523   422A      5.479238   423A      5.682784  
     424A      5.772382   425A      5.895659   426A      5.964711  
     427A      5.980367   428A      6.051770   429A      6.064101  
     430A      6.115958   431A      6.219885   432A      6.384404  
     433A      6.505245   434A      7.032211   435A      7.308580  
     436A     18.165382   437A     18.729480   438A     18.811792  
     439A     19.511491   440A     25.454207   441A     25.461284  
     442A     33.535988   443A     33.545924  

    Final Occupation by Irrep:
              A 
    DOCC [    21 ]

  @DF-RHF Final Energy:  -196.35375641599381

   => Energetics <=

    Nuclear Repulsion Energy =            185.6166156986717510
    One-Electron Energy =                -630.9387152563965628
    Two-Electron Energy =                 248.9683431417309976
    Total Energy =                       -196.3537564159938142

Computation Completed


Properties will be evaluated at   0.000000,   0.000000,   0.000000 [a0]

Properties computed using the SCF density matrix

  Nuclear Dipole Moment: [e a0]
     X:    24.9076      Y:     3.6000      Z:   302.1497

  Electronic Dipole Moment: [e a0]
     X:   -24.8807      Y:    -3.6177      Z:  -302.1413

  Dipole Moment: [e a0]
     X:     0.0269      Y:    -0.0177      Z:     0.0084     Total:     0.0333

  Dipole Moment: [D]
     X:     0.0684      Y:    -0.0450      Z:     0.0215     Total:     0.0847


*** tstop() called on node93.bme.utexas.edu at Thu Apr 23 17:58:56 2020
Module time:
	user time   =      82.41 seconds =       1.37 minutes
	system time =       1.55 seconds =       0.03 minutes
	total time  =         81 seconds =       1.35 minutes
Total time:
	user time   =     402.68 seconds =       6.71 minutes
	system time =       6.76 seconds =       0.11 minutes
	total time  =        126 seconds =       2.10 minutes
  Constructing Basis Sets for SAPT...

   => Loading Basis Set <=

    Name: (AUG-CC-PVDZ AUX)
    Role: RIFIT
    Keyword: DF_BASIS_SAPT
    atoms 1, 9                                           entry N          line   158 file /home/liuchw/anaconda3/envs/psi4env/share/psi4/basis/aug-cc-pvdz-ri.gbs 
    atoms 2, 6, 8, 10, 14-16, 18-19, 21-22, 24-25, 27-29 entry H          line    30 file /home/liuchw/anaconda3/envs/psi4env/share/psi4/basis/aug-cc-pvdz-ri.gbs 
    atoms 3, 5, 7, 11, 13, 17, 20, 23, 26                entry C          line   112 file /home/liuchw/anaconda3/envs/psi4env/share/psi4/basis/aug-cc-pvdz-ri.gbs 
    atoms 4, 12                                          entry O          line   204 file /home/liuchw/anaconda3/envs/psi4env/share/psi4/basis/aug-cc-pvdz-ri.gbs 


  //>>>>>>>>>>>>>>>>>>>>>>>>>>>>>>>>>>>//
  //               SAPT2+              //
  //<<<<<<<<<<<<<<<<<<<<<<<<<<<<<<<<<<<//


*** tstart() called on node93.bme.utexas.edu
*** at Thu Apr 23 17:58:56 2020

        SAPT2+  
    Ed Hohenstein
     6 June 2009

      Orbital Information
  --------------------------
    NSO        =       443
    NMO        =       443
    NRI        =      1304
    NOCC A     =        29
    NOCC B     =        21
    FOCC A     =         8
    FOCC B     =         5
    NVIR A     =       414
    NVIR B     =       422

    Estimated memory usage: 5452.2 MB

    Natural Orbital Cutoff:   1.000E-06
    Disp(T3) Truncation:            Yes
    CCD (vv|vv) Truncation:         Yes
    MBPT T2 Truncation:             Yes

    Monomer A: 232 virtual orbitals dropped
    Monomer B: 236 virtual orbitals dropped

    Elst10,r            =    -0.000005226540 [Eh]
    Exch10 (S^2)        =     0.000001105260 [Eh]
    Exch10              =     0.000001105260 [Eh]
    Ind20,r (A<-B)      =    -0.000000304827 [Eh]
    Ind20,r (B<-A)      =    -0.000027744142 [Eh]
    Ind20,r             =    -0.000028048969 [Eh]
    Exch-Ind20,r (A<-B) =     0.000000056063 [Eh]
    Exch-Ind20,r (B<-A) =     0.000000334993 [Eh]
    Exch-Ind20,r        =     0.000000391056 [Eh]
    Disp20              =    -0.000540520195 [Eh]
    Disp20 (NO)         =    -0.000534630000 [Eh]
    Exch-Disp20         =     0.000000306051 [Eh]
    Elst12,r            =    -0.000002609161 [Eh]
    Exch11              =    -0.000000061404 [Eh]
    Exch12              =     0.000000374111 [Eh]
    Ind22               =     0.000007148105 [Eh]
    Disp21              =     0.000135727313 [Eh]
    Disp22 (SDQ)        =    -0.000015065648 [Eh]

    (i =   1 of  16)         73 seconds
    (i =   2 of  16)        146 seconds
    (i =   3 of  16)        218 seconds
    (i =   4 of  16)        291 seconds
    (i =   5 of  16)        364 seconds
    (i =   6 of  16)        437 seconds
    (i =   7 of  16)        510 seconds
    (i =   8 of  16)        582 seconds
    (i =   9 of  16)        655 seconds
    (i =  10 of  16)        728 seconds
    (i =  11 of  16)        801 seconds
    (i =  12 of  16)        873 seconds
    (i =  13 of  16)        946 seconds
    (i =  14 of  16)       1019 seconds
    (i =  15 of  16)       1092 seconds
    (i =  16 of  16)       1165 seconds

    Disp220 (T)         =    -0.000060657566 [Eh]

    (i =   1 of  21)         45 seconds
    (i =   2 of  21)         90 seconds
    (i =   3 of  21)        135 seconds
    (i =   4 of  21)        180 seconds
    (i =   5 of  21)        225 seconds
    (i =   6 of  21)        270 seconds
    (i =   7 of  21)        315 seconds
    (i =   8 of  21)        360 seconds
    (i =   9 of  21)        405 seconds
    (i =  10 of  21)        450 seconds
    (i =  11 of  21)        495 seconds
    (i =  12 of  21)        540 seconds
    (i =  13 of  21)        585 seconds
    (i =  14 of  21)        630 seconds
    (i =  15 of  21)        675 seconds
    (i =  16 of  21)        720 seconds
    (i =  17 of  21)        765 seconds
    (i =  18 of  21)        810 seconds
    (i =  19 of  21)        855 seconds
    (i =  20 of  21)        900 seconds
    (i =  21 of  21)        945 seconds

    Disp202 (T)         =    -0.000039008213 [Eh]

    Disp22 (T)          =    -0.000099665779 [Eh]

    Est. Disp220 (T)    =    -0.000061325851 [Eh]
    Est. Disp202 (T)    =    -0.000039437979 [Eh]

    Est. Disp22 (T)     =    -0.000100763830 [Eh]

    SAPT Results 
  --------------------------------------------------------------------------------------------------------
    Electrostatics                 -0.00783570 [mEh]      -0.00491698 [kcal/mol]      -0.02057263 [kJ/mol]
      Elst10,r                     -0.00522654 [mEh]      -0.00327970 [kcal/mol]      -0.01372228 [kJ/mol]
      Elst12,r                     -0.00260916 [mEh]      -0.00163727 [kcal/mol]      -0.00685035 [kJ/mol]

    Exchange                        0.00141797 [mEh]       0.00088979 [kcal/mol]       0.00372287 [kJ/mol]
      Exch10                        0.00110526 [mEh]       0.00069356 [kcal/mol]       0.00290186 [kJ/mol]
      Exch10(S^2)                   0.00110526 [mEh]       0.00069356 [kcal/mol]       0.00290186 [kJ/mol]
      Exch11(S^2)                  -0.00006140 [mEh]      -0.00003853 [kcal/mol]      -0.00016122 [kJ/mol]
      Exch12(S^2)                   0.00037411 [mEh]       0.00023476 [kcal/mol]       0.00098223 [kJ/mol]

    Induction                      -0.02059167 [mEh]      -0.01292147 [kcal/mol]      -0.05406343 [kJ/mol]
      Ind20,r                      -0.02804897 [mEh]      -0.01760099 [kcal/mol]      -0.07364256 [kJ/mol]
      Ind22                         0.00714811 [mEh]       0.00448550 [kcal/mol]       0.01876735 [kJ/mol]
      Exch-Ind20,r                  0.00039106 [mEh]       0.00024539 [kcal/mol]       0.00102672 [kJ/mol]
      Exch-Ind22                   -0.00009966 [mEh]      -0.00006254 [kcal/mol]      -0.00026165 [kJ/mol]
      delta HF,r (2)                0.00001779 [mEh]       0.00001117 [kcal/mol]       0.00004672 [kJ/mol]

    Dispersion                     -0.52031631 [mEh]      -0.32650341 [kcal/mol]      -1.36609028 [kJ/mol]
      Disp20                       -0.54052019 [mEh]      -0.33918154 [kcal/mol]      -1.41913558 [kJ/mol]
      Disp21                        0.13572731 [mEh]       0.08517017 [kcal/mol]       0.35635201 [kJ/mol]
      Disp22 (SDQ)                 -0.01506565 [mEh]      -0.00945384 [kcal/mol]      -0.03955485 [kJ/mol]
      Disp22 (T)                   -0.09966578 [mEh]      -0.06254122 [kcal/mol]      -0.26167247 [kJ/mol]
      Est. Disp22 (T)              -0.10076383 [mEh]      -0.06323026 [kcal/mol]      -0.26455540 [kJ/mol]
      Exch-Disp20                   0.00030605 [mEh]       0.00019205 [kcal/mol]       0.00080354 [kJ/mol]

  Total HF                         -0.03176140 [mEh]      -0.01993058 [kcal/mol]      -0.08338954 [kJ/mol]
  Total SAPT0                      -0.57197554 [mEh]      -0.35892007 [kcal/mol]      -1.50172158 [kJ/mol]
  Total SAPT2                      -0.56722355 [mEh]      -0.35593815 [kcal/mol]      -1.48924523 [kJ/mol]
  Total SAPT2+                     -0.54732572 [mEh]      -0.34345207 [kcal/mol]      -1.43700347 [kJ/mol]

  Special recipe for scaled SAPT0 (see Manual):
    Electrostatics sSAPT0          -0.00522654 [mEh]      -0.00327970 [kcal/mol]      -0.01372228 [kJ/mol]
    Exchange sSAPT0                 0.00110526 [mEh]       0.00069356 [kcal/mol]       0.00290186 [kJ/mol]
    Induction sSAPT0               -0.02764012 [mEh]      -0.01734444 [kcal/mol]      -0.07256912 [kJ/mol]
    Dispersion sSAPT0              -0.54021414 [mEh]      -0.33898949 [kcal/mol]      -1.41833204 [kJ/mol]
  Total sSAPT0                     -0.57197554 [mEh]      -0.35892007 [kcal/mol]      -1.50172158 [kJ/mol]
  --------------------------------------------------------------------------------------------------------

*** tstop() called on node93.bme.utexas.edu at Thu Apr 23 18:49:10 2020
Module time:
	user time   =   20082.29 seconds =     334.70 minutes
	system time =     260.83 seconds =       4.35 minutes
	total time  =       3014 seconds =      50.23 minutes
Total time:
	user time   =   20486.39 seconds =     341.44 minutes
	system time =     267.64 seconds =       4.46 minutes
	total time  =       3140 seconds =      52.33 minutes

    Psi4 stopped on: Thursday, 23 April 2020 06:49PM
    Psi4 wall time for execution: 0:52:20.84

*** Psi4 exiting successfully. Buy a developer a beer!
