    -----------------------------------------------------------------------
          PSI4: An Open-Source Ab Initio Electronic Structure Package
                              PSI 4.0.0-beta4 Driver

    J. M. Turney, A. C. Simmonett, R. M. Parrish, E. G. Hohenstein,
    F. A. Evangelista, J. T. Fermann, B. J. Mintz, L. A. Burns, J. J. Wilke,
    M. L. Abrams, N. J. Russ, M. L. Leininger, C. L. Janssen, E. T. Seidl,
    W. D. Allen, H. F. Schaefer, R. A. King, E. F. Valeev, C. D. Sherrill,
    and T. D. Crawford, WIREs Comput. Mol. Sci., (2011) (doi: 10.1002/wcms.93)

                         Additional Contributions by
    A. E. DePrince, M. Saitow, U. Bozkaya, A. Yu. Sokolov
    -----------------------------------------------------------------------

    Process ID:  18009
    PSI4DATADIR: /home/xzhu216/psi4/psi4-install/share/psi

    Using LocalCommunicator (Number of processes = 1)

    Memory level set to 256.000 MB

  ==> Input File <==

--------------------------------------------------------------------------
#psi4
#
memory 7 gb

molecule Uracil_Pentane {
0 1
N   -0.208904778  -0.964582623   0.534761041
H   -0.224150986  -1.973109396   0.605083859
C   -1.446342078  -0.344581120   0.306658576
O   -2.461236755  -1.010791610   0.197891960
C   -1.357782195   1.103185589   0.228143785
H   -2.256572142   1.667730712   0.049847314
C   -0.163003197   1.709892571   0.381126322
H   -0.046290462   2.782445909   0.333349682
N    0.985452099   1.000824122   0.611206364
H    1.867559779   1.466927772   0.744784302
C    1.027020915  -0.379170109   0.712647232
O    2.049196699  -0.997395477   0.937259786
--
0 1
C    1.170994755   2.360870567   4.409012272
H    0.740146141   2.671919262   3.456229705
H    0.536760844   2.766303688   5.197259923
H    2.153874781   2.821317979   4.502133758
C    1.244011219   0.841999617   4.498530613
H    1.674394863   0.552436761   5.459821568
H    1.918600811   0.450839066   3.733412448
C   -0.120773971   0.183832965   4.343713854
H   -0.792018231   0.552708775   5.125333095
H   -0.568244840   0.494097982   3.393813628
C   -0.064485033  -1.336853586   4.403349350
H    0.359120463  -1.639284001   5.363985537
H    0.627036710  -1.698732525   3.638846922
C   -1.433767955  -1.978726796   4.219575699
H   -1.872146950  -1.705269113   3.259390190
H   -1.376829162  -3.065495183   4.263632887
H   -2.121730733  -1.650380813   4.998808746
units angstrom
no_reorient  #important for SAPT in psi4, default
symmetry c1  #important for SAPT in psi4, default
}

set {
basis aug-cc-pVDZ
scf_type DF
freeze_core True
}
energy('sapt2+')
--------------------------------------------------------------------------

  Memory set to   7.000 GiB by Python script.

  //>>>>>>>>>>>>>>>>>>>>>>>>>>>>>>>>>>>//
  //              Dimer HF             //
  //<<<<<<<<<<<<<<<<<<<<<<<<<<<<<<<<<<<//


  No DF_BASIS_SCF auxiliary basis selected, defaulting to aug-cc-pvdz-jkfit


*** tstart() called on node142.bme.utexas.edu
*** at Fri Nov  8 12:30:31 2013


         ---------------------------------------------------------
                                   SCF
            by Justin Turney, Rob Parrish, and Andy Simmonett
                              RHF Reference
                        4 Threads,   7000 MiB Core
         ---------------------------------------------------------

  ==> Geometry <==

    Molecular point group: c1
    Full point group: C1

    Geometry (in Angstrom), charge = 0, multiplicity = 1:

       Center              X                  Y                   Z       
    ------------   -----------------  -----------------  -----------------
           N         -0.160992485020    -0.958291841581    -1.479054467596
           H         -0.176238693020    -1.966818614581    -1.408731649596
           C         -1.398429785020    -0.338290338581    -1.707156932596
           O         -2.413324462020    -1.004500828581    -1.815923548596
           C         -1.309869902020     1.109476370419    -1.785671723596
           H         -2.208659849020     1.674021493419    -1.963968194596
           C         -0.115090904020     1.716183352419    -1.632689186596
           H          0.001621830980     2.788736690419    -1.680465826596
           N          1.033364391980     1.007114903419    -1.402609144596
           H          1.915472071980     1.473218553419    -1.269031206596
           C          1.074933207980    -0.372879327581    -1.301168276596
           O          2.097108991980    -0.991104695581    -1.076555722596
           C          1.218907047980     2.367161348419     2.395196763404
           H          0.788058433980     2.678210043419     1.442414196404
           H          0.584673136980     2.772594469419     3.183444414404
           H          2.201787073980     2.827608760419     2.488318249404
           C          1.291923511980     0.848290398419     2.484715104404
           H          1.722307155980     0.558727542419     3.446006059404
           H          1.966513103980     0.457129847419     1.719596939404
           C         -0.072861678020     0.190123746419     2.329898345404
           H         -0.744105938020     0.558999556419     3.111517586404
           H         -0.520332547020     0.500388763419     1.379998119404
           C         -0.016572740020    -1.330562804581     2.389533841404
           H          0.407032755980    -1.632993219581     3.350170028404
           H          0.674949002980    -1.692441743581     1.625031413404
           C         -1.385855662020    -1.972436014581     2.205760190404
           H         -1.824234657020    -1.698978331581     1.245574681404
           H         -1.328916869020    -3.059204401581     2.249817378404
           H         -2.073818440020    -1.644090031581     2.984993237404

  Running in c1 symmetry.

  Nuclear repulsion =  823.263194328925806

  Charge       = 0
  Multiplicity = 1
  Electrons    = 100
  Nalpha       = 50
  Nbeta        = 50

  ==> Algorithm <==

  SCF Algorithm Type is DF.
  DIIS enabled.
  MOM disabled.
  Fractional occupation disabled.
  Guess Type is CORE.
  Energy threshold   = 1.00e-08
  Density threshold  = 1.00e-08
  Integral threshold = 0.00e+00

  ==> Primary Basis <==

  Basis Set: AUG-CC-PVDZ
    Number of shells: 197
    Number of basis function: 443
    Number of Cartesian functions: 469
    Spherical Harmonics?: true
    Max angular momentum: 2

  ==> Pre-Iterations <==

   -------------------------------------------------------
    Irrep   Nso     Nmo     Nalpha   Nbeta   Ndocc  Nsocc
   -------------------------------------------------------
     A        443     443       0       0       0       0
   -------------------------------------------------------
    Total     443     443      50      50      50       0
   -------------------------------------------------------

 OEINTS: Wrapper to libmints.
   by Justin Turney

   Calculation information:
      Number of atoms:                  29
      Number of AO shells:             197
      Number of SO shells:             197
      Number of primitives:            437
      Number of atomic orbitals:       469
      Number of basis functions:       443

      Number of irreps:                  1
      Number of functions per irrep: [ 443 ]

      Overlap, kinetic, potential, dipole, and quadrupole integrals
        stored in file 35.

  ==> Integral Setup <==

  ==> DFJK: Density-Fitted J/K Matrices <==

    J tasked:                  Yes
    K tasked:                  Yes
    wK tasked:                  No
    OpenMP threads:              4
    Integrals threads:           4
    Memory (MB):              5006
    Algorithm:                Core
    Integral Cache:           SAVE
    Schwarz Cutoff:          0E+00
    Fitting Condition:       1E-12

   => Auxiliary Basis Set <=

  Basis Set: aug-cc-pvdz-jkfit
    Number of shells: 556
    Number of basis function: 1630
    Number of Cartesian functions: 1873
    Spherical Harmonics?: true
    Max angular momentum: 3

  Minimum eigenvalue in the overlap matrix is 8.6153517640E-06.
  Using Symmetric Orthogonalization.
  SCF Guess: Core (One-Electron) Hamiltonian.

  Guess energy:  -510.45243876854636

  ==> Iterations <==

                        Total Energy        Delta E     RMS |[F,P]|

   @RHF iter   1:  -364.36156398714536   -3.64362e+02   2.80285e-02 
   @RHF iter   2:  -115.73110490593774    2.48630e+02   3.37529e-02 DIIS
   @RHF iter   3:  -414.80904049544540   -2.99078e+02   2.66066e-02 DIIS
   @RHF iter   4:  -432.88613760481383   -1.80771e+01   2.51341e-02 DIIS
   @RHF iter   5:  -585.72529204424325   -1.52839e+02   1.08071e-02 DIIS
   @RHF iter   6:  -556.41934961555683    2.93059e+01   1.51189e-02 DIIS
   @RHF iter   7:  -608.27912377477276   -5.18598e+01   2.19637e-03 DIIS
   @RHF iter   8:  -608.75221302633156   -4.73089e-01   1.07827e-03 DIIS
   @RHF iter   9:  -608.85127195337407   -9.90589e-02   4.64098e-04 DIIS
   @RHF iter  10:  -608.87649885170288   -2.52269e-02   2.02591e-04 DIIS
   @RHF iter  11:  -608.88252400520798   -6.02515e-03   5.85540e-05 DIIS
   @RHF iter  12:  -608.88316424033371   -6.40235e-04   2.23185e-05 DIIS
   @RHF iter  13:  -608.88323812898295   -7.38886e-05   8.32958e-06 DIIS
   @RHF iter  14:  -608.88325329124848   -1.51623e-05   4.80591e-06 DIIS
   @RHF iter  15:  -608.88325827815618   -4.98691e-06   1.61418e-06 DIIS
   @RHF iter  16:  -608.88325898133996   -7.03184e-07   4.77699e-07 DIIS
   @RHF iter  17:  -608.88325902786084   -4.65209e-08   1.43046e-07 DIIS
   @RHF iter  18:  -608.88325903087809   -3.01725e-09   4.86555e-08 DIIS
   @RHF iter  19:  -608.88325903135785   -4.79758e-10   1.67387e-08 DIIS
   @RHF iter  20:  -608.88325903142197   -6.41194e-11   6.86570e-09 DIIS

  ==> Post-Iterations <==

	Orbital Energies (a.u.)
	-----------------------

	Doubly Occupied:                                                      

	   1A    -20.559836     2A    -20.554063     3A    -15.652324  
	   4A    -15.635668     5A    -11.429595     6A    -11.390529  
	   7A    -11.348204     8A    -11.262598     9A    -11.223757  
	  10A    -11.222207    11A    -11.219002    12A    -11.216824  
	  13A    -11.210709    14A     -1.442566    15A     -1.404856  
	  16A     -1.318326    17A     -1.250010    18A     -1.091923  
	  19A     -1.085306    20A     -1.019122    21A     -0.936740  
	  22A     -0.923038    23A     -0.905252    24A     -0.823320  
	  25A     -0.809557    26A     -0.788092    27A     -0.767785  
	  28A     -0.716326    29A     -0.680598    30A     -0.674055  
	  31A     -0.655772    32A     -0.645626    33A     -0.617069  
	  34A     -0.603089    35A     -0.601318    36A     -0.595795  
	  37A     -0.571819    38A     -0.556802    39A     -0.549734  
	  40A     -0.528199    41A     -0.526531    42A     -0.496890  
	  43A     -0.485152    44A     -0.477156    45A     -0.463734  
	  46A     -0.459457    47A     -0.449948    48A     -0.448351  
	  49A     -0.437118    50A     -0.368890  

	Virtual:                                                              

	  51A      0.020714    52A      0.038262    53A      0.039667  
	  54A      0.044041    55A      0.053083    56A      0.055419  
	  57A      0.056719    58A      0.061354    59A      0.070480  
	  60A      0.077959    61A      0.082188    62A      0.083607  
	  63A      0.086425    64A      0.089825    65A      0.096912  
	  66A      0.100313    67A      0.101517    68A      0.110663  
	  69A      0.115240    70A      0.123930    71A      0.131126  
	  72A      0.139339    73A      0.141681    74A      0.143110  
	  75A      0.147877    76A      0.151873    77A      0.156435  
	  78A      0.161302    79A      0.162787    80A      0.163885  
	  81A      0.167206    82A      0.168951    83A      0.170292  
	  84A      0.176121    85A      0.177776    86A      0.182213  
	  87A      0.190953    88A      0.195118    89A      0.197730  
	  90A      0.199335    91A      0.201974    92A      0.204865  
	  93A      0.210354    94A      0.215460    95A      0.224225  
	  96A      0.230676    97A      0.233066    98A      0.238885  
	  99A      0.242194   100A      0.245958   101A      0.247442  
	 102A      0.259328   103A      0.265056   104A      0.269742  
	 105A      0.271506   106A      0.279516   107A      0.287134  
	 108A      0.290703   109A      0.297203   110A      0.303448  
	 111A      0.311978   112A      0.316514   113A      0.323964  
	 114A      0.334050   115A      0.335592   116A      0.336710  
	 117A      0.345196   118A      0.346804   119A      0.353889  
	 120A      0.356358   121A      0.360635   122A      0.365042  
	 123A      0.370998   124A      0.376812   125A      0.382487  
	 126A      0.385520   127A      0.388768   128A      0.395157  
	 129A      0.399524   130A      0.404151   131A      0.409912  
	 132A      0.413343   133A      0.420030   134A      0.421903  
	 135A      0.426051   136A      0.429112   137A      0.433512  
	 138A      0.437686   139A      0.442550   140A      0.447085  
	 141A      0.448948   142A      0.459048   143A      0.463651  
	 144A      0.468907   145A      0.474454   146A      0.483021  
	 147A      0.484267   148A      0.491345   149A      0.497605  
	 150A      0.501241   151A      0.505671   152A      0.511141  
	 153A      0.515208   154A      0.518842   155A      0.524449  
	 156A      0.533244   157A      0.534752   158A      0.541230  
	 159A      0.545544   160A      0.548640   161A      0.556384  
	 162A      0.558064   163A      0.565810   164A      0.574123  
	 165A      0.577271   166A      0.578885   167A      0.581541  
	 168A      0.591369   169A      0.597990   170A      0.605926  
	 171A      0.608253   172A      0.616031   173A      0.623942  
	 174A      0.630786   175A      0.636447   176A      0.642084  
	 177A      0.646633   178A      0.649937   179A      0.656202  
	 180A      0.659373   181A      0.661858   182A      0.665072  
	 183A      0.667539   184A      0.677591   185A      0.679774  
	 186A      0.689292   187A      0.691923   188A      0.694936  
	 189A      0.698101   190A      0.707683   191A      0.714537  
	 192A      0.721141   193A      0.727885   194A      0.733487  
	 195A      0.741318   196A      0.746519   197A      0.753854  
	 198A      0.756306   199A      0.761267   200A      0.763917  
	 201A      0.769859   202A      0.784714   203A      0.793248  
	 204A      0.797877   205A      0.799141   206A      0.803937  
	 207A      0.806241   208A      0.811140   209A      0.821649  
	 210A      0.827325   211A      0.832226   212A      0.835954  
	 213A      0.838249   214A      0.849433   215A      0.857232  
	 216A      0.859388   217A      0.864769   218A      0.872088  
	 219A      0.875713   220A      0.882954   221A      0.888684  
	 222A      0.894096   223A      0.904590   224A      0.910242  
	 225A      0.923819   226A      0.932344   227A      0.936493  
	 228A      0.947245   229A      0.952005   230A      0.960405  
	 231A      0.968342   232A      0.973788   233A      0.981378  
	 234A      0.983505   235A      0.986166   236A      0.994141  
	 237A      1.004520   238A      1.012314   239A      1.019451  
	 240A      1.028825   241A      1.037345   242A      1.046028  
	 243A      1.053352   244A      1.055536   245A      1.079673  
	 246A      1.080346   247A      1.096022   248A      1.106602  
	 249A      1.113731   250A      1.124793   251A      1.131599  
	 252A      1.140508   253A      1.150226   254A      1.160377  
	 255A      1.163897   256A      1.182023   257A      1.183244  
	 258A      1.199713   259A      1.208673   260A      1.219257  
	 261A      1.222973   262A      1.233882   263A      1.248083  
	 264A      1.256296   265A      1.262198   266A      1.266967  
	 267A      1.295075   268A      1.300893   269A      1.310204  
	 270A      1.323522   271A      1.335772   272A      1.342796  
	 273A      1.353729   274A      1.363038   275A      1.383566  
	 276A      1.389842   277A      1.400684   278A      1.411137  
	 279A      1.427213   280A      1.445000   281A      1.461722  
	 282A      1.473174   283A      1.476418   284A      1.490535  
	 285A      1.513044   286A      1.534348   287A      1.539569  
	 288A      1.553016   289A      1.567677   290A      1.570171  
	 291A      1.573295   292A      1.583224   293A      1.608354  
	 294A      1.614397   295A      1.631330   296A      1.638861  
	 297A      1.648877   298A      1.658863   299A      1.669334  
	 300A      1.680673   301A      1.697666   302A      1.722278  
	 303A      1.734594   304A      1.747587   305A      1.755811  
	 306A      1.766566   307A      1.794686   308A      1.804232  
	 309A      1.828525   310A      1.841915   311A      1.852971  
	 312A      1.865162   313A      1.874677   314A      1.889321  
	 315A      1.895770   316A      1.898489   317A      1.911604  
	 318A      1.918194   319A      1.924636   320A      1.948737  
	 321A      1.953637   322A      1.959868   323A      1.968392  
	 324A      1.983772   325A      1.991354   326A      1.998139  
	 327A      2.018410   328A      2.032209   329A      2.035994  
	 330A      2.042871   331A      2.067341   332A      2.074468  
	 333A      2.093470   334A      2.101145   335A      2.107112  
	 336A      2.115779   337A      2.130661   338A      2.131215  
	 339A      2.139774   340A      2.148503   341A      2.156222  
	 342A      2.166745   343A      2.174812   344A      2.177952  
	 345A      2.192971   346A      2.199732   347A      2.214713  
	 348A      2.221481   349A      2.229188   350A      2.234980  
	 351A      2.251471   352A      2.268354   353A      2.273718  
	 354A      2.282411   355A      2.297899   356A      2.300874  
	 357A      2.316494   358A      2.323229   359A      2.344592  
	 360A      2.353767   361A      2.357103   362A      2.367151  
	 363A      2.371602   364A      2.385491   365A      2.406388  
	 366A      2.411824   367A      2.420560   368A      2.443476  
	 369A      2.457230   370A      2.471483   371A      2.490029  
	 372A      2.496437   373A      2.504928   374A      2.508327  
	 375A      2.526171   376A      2.532283   377A      2.545966  
	 378A      2.547830   379A      2.567165   380A      2.580831  
	 381A      2.600897   382A      2.637437   383A      2.654360  
	 384A      2.676442   385A      2.696255   386A      2.705875  
	 387A      2.707922   388A      2.740899   389A      2.752465  
	 390A      2.761986   391A      2.769542   392A      2.778634  
	 393A      2.792562   394A      2.813411   395A      2.816160  
	 396A      2.826560   397A      2.841052   398A      2.859952  
	 399A      2.879741   400A      2.881641   401A      2.897510  
	 402A      2.898805   403A      2.916095   404A      2.922200  
	 405A      2.940440   406A      2.962238   407A      2.983962  
	 408A      2.998560   409A      3.011354   410A      3.029620  
	 411A      3.058581   412A      3.065221   413A      3.082747  
	 414A      3.127922   415A      3.144675   416A      3.163467  
	 417A      3.180851   418A      3.207981   419A      3.221628  
	 420A      3.229529   421A      3.255681   422A      3.270067  
	 423A      3.347658   424A      3.354069   425A      3.373928  
	 426A      3.410003   427A      3.460307   428A      3.529081  
	 429A      3.567504   430A      3.584034   431A      3.673397  
	 432A      3.797728   433A      3.824815   434A      3.833773  
	 435A      3.846067   436A      3.857554   437A      3.871834  
	 438A      3.895765   439A      4.040424   440A      4.072381  
	 441A      4.091503   442A      4.209297   443A      4.377420  

	Final Occupation by Irrep:
	          A 
	DOCC [    50 ]

  Energy converged.

  @RHF Final Energy:  -608.88325903142197

   => Energetics <=

    Nuclear Repulsion Energy =            823.2631943289258061
    One-Electron Energy =               -2462.0916258307656790
    Two-Electron Energy =                1029.9451724704154003
    DFT Exchange-Correlation Energy =       0.0000000000000000
    Empirical Dispersion Energy =           0.0000000000000000
    Total Energy =                       -608.8832590314245863



Properties will be evaluated at   0.000000,   0.000000,   0.000000 Bohr
  ==> Properties <==


Properties computed using the SCF density density matrix
  Nuclear Dipole Moment: (a.u.)
     X:     1.2954      Y:     4.2980      Z:    20.5294

  Electronic Dipole Moment: (a.u.)
     X:    -0.7346      Y:    -2.5001      Z:   -20.5280

  Dipole Moment: (a.u.)
     X:     0.5608      Y:     1.7979      Z:     0.0014     Total:     1.8834

  Dipole Moment: (Debye)
     X:     1.4253      Y:     4.5699      Z:     0.0036     Total:     4.7870


  Saving occupied orbitals to File 180.

  Saving SAPT 2-DIMER file.

*** tstop() called on node142.bme.utexas.edu at Fri Nov  8 12:33:48 2013
Module time:
	user time   =     718.62 seconds =      11.98 minutes
	system time =       9.75 seconds =       0.16 minutes
	total time  =        197 seconds =       3.28 minutes
Total time:
	user time   =     718.62 seconds =      11.98 minutes
	system time =       9.75 seconds =       0.16 minutes
	total time  =        197 seconds =       3.28 minutes

  //>>>>>>>>>>>>>>>>>>>>>>>>>>>>>>>>>>>//
  //            Monomer A HF           //
  //<<<<<<<<<<<<<<<<<<<<<<<<<<<<<<<<<<<//


  No DF_BASIS_SCF auxiliary basis selected, defaulting to aug-cc-pvdz-jkfit


*** tstart() called on node142.bme.utexas.edu
*** at Fri Nov  8 12:33:48 2013


         ---------------------------------------------------------
                                   SCF
            by Justin Turney, Rob Parrish, and Andy Simmonett
                              RHF Reference
                        4 Threads,   7000 MiB Core
         ---------------------------------------------------------

  ==> Geometry <==

    Molecular point group: c1
    Full point group: C1

    Geometry (in Angstrom), charge = 0, multiplicity = 1:

       Center              X                  Y                   Z       
    ------------   -----------------  -----------------  -----------------
           N         -0.160992485020    -0.958291841581    -1.479054467596
           H         -0.176238693020    -1.966818614581    -1.408731649596
           C         -1.398429785020    -0.338290338581    -1.707156932596
           O         -2.413324462020    -1.004500828581    -1.815923548596
           C         -1.309869902020     1.109476370419    -1.785671723596
           H         -2.208659849020     1.674021493419    -1.963968194596
           C         -0.115090904020     1.716183352419    -1.632689186596
           H          0.001621830980     2.788736690419    -1.680465826596
           N          1.033364391980     1.007114903419    -1.402609144596
           H          1.915472071980     1.473218553419    -1.269031206596
           C          1.074933207980    -0.372879327581    -1.301168276596
           O          2.097108991980    -0.991104695581    -1.076555722596
           C(Gh)      1.218907047980     2.367161348419     2.395196763404
           H(Gh)      0.788058433980     2.678210043419     1.442414196404
           H(Gh)      0.584673136980     2.772594469419     3.183444414404
           H(Gh)      2.201787073980     2.827608760419     2.488318249404
           C(Gh)      1.291923511980     0.848290398419     2.484715104404
           H(Gh)      1.722307155980     0.558727542419     3.446006059404
           H(Gh)      1.966513103980     0.457129847419     1.719596939404
           C(Gh)     -0.072861678020     0.190123746419     2.329898345404
           H(Gh)     -0.744105938020     0.558999556419     3.111517586404
           H(Gh)     -0.520332547020     0.500388763419     1.379998119404
           C(Gh)     -0.016572740020    -1.330562804581     2.389533841404
           H(Gh)      0.407032755980    -1.632993219581     3.350170028404
           H(Gh)      0.674949002980    -1.692441743581     1.625031413404
           C(Gh)     -1.385855662020    -1.972436014581     2.205760190404
           H(Gh)     -1.824234657020    -1.698978331581     1.245574681404
           H(Gh)     -1.328916869020    -3.059204401581     2.249817378404
           H(Gh)     -2.073818440020    -1.644090031581     2.984993237404

  Running in c1 symmetry.

  Nuclear repulsion =  357.066176302828353

  Charge       = 0
  Multiplicity = 1
  Electrons    = 58
  Nalpha       = 29
  Nbeta        = 29

  ==> Algorithm <==

  SCF Algorithm Type is DF.
  DIIS enabled.
  MOM disabled.
  Fractional occupation disabled.
  Guess Type is CORE.
  Energy threshold   = 1.00e-08
  Density threshold  = 1.00e-08
  Integral threshold = 0.00e+00

  ==> Primary Basis <==

  Basis Set: AUG-CC-PVDZ
    Number of shells: 197
    Number of basis function: 443
    Number of Cartesian functions: 469
    Spherical Harmonics?: true
    Max angular momentum: 2

  ==> Pre-Iterations <==

   -------------------------------------------------------
    Irrep   Nso     Nmo     Nalpha   Nbeta   Ndocc  Nsocc
   -------------------------------------------------------
     A        443     443       0       0       0       0
   -------------------------------------------------------
    Total     443     443      29      29      29       0
   -------------------------------------------------------

 OEINTS: Wrapper to libmints.
   by Justin Turney

   Calculation information:
      Number of atoms:                  29
      Number of AO shells:             197
      Number of SO shells:             197
      Number of primitives:            437
      Number of atomic orbitals:       469
      Number of basis functions:       443

      Number of irreps:                  1
      Number of functions per irrep: [ 443 ]

      Overlap, kinetic, potential, dipole, and quadrupole integrals
        stored in file 35.

  ==> Integral Setup <==

  ==> DFJK: Density-Fitted J/K Matrices <==

    J tasked:                  Yes
    K tasked:                  Yes
    wK tasked:                  No
    OpenMP threads:              4
    Integrals threads:           4
    Memory (MB):              5006
    Algorithm:                Core
    Integral Cache:           LOAD
    Schwarz Cutoff:          0E+00
    Fitting Condition:       1E-12

   => Auxiliary Basis Set <=

  Basis Set: aug-cc-pvdz-jkfit
    Number of shells: 556
    Number of basis function: 1630
    Number of Cartesian functions: 1873
    Spherical Harmonics?: true
    Max angular momentum: 3

  Minimum eigenvalue in the overlap matrix is 8.6153517639E-06.
  Using Symmetric Orthogonalization.
  SCF Guess: Core (One-Electron) Hamiltonian.

  Guess energy:  -318.04156675350941

  ==> Iterations <==

                        Total Energy        Delta E     RMS |[F,P]|

   @RHF iter   1:  -347.54438699664922   -3.47544e+02   1.79946e-02 
   @RHF iter   2:  -308.14463488568197    3.93998e+01   1.72049e-02 DIIS
   @RHF iter   3:  -354.09684014353138   -4.59522e+01   1.71596e-02 DIIS
   @RHF iter   4:  -399.49198509649023   -4.53951e+01   9.47490e-03 DIIS
   @RHF iter   5:  -403.15530198161241   -3.66332e+00   7.68034e-03 DIIS
   @RHF iter   6:  -411.64392099575184   -8.48862e+00   2.87338e-03 DIIS
   @RHF iter   7:  -412.39873956038809   -7.54819e-01   1.21414e-03 DIIS
   @RHF iter   8:  -412.52191287324547   -1.23173e-01   2.25875e-04 DIIS
   @RHF iter   9:  -412.52958036078644   -7.66749e-03   7.60568e-05 DIIS
   @RHF iter  10:  -412.53038102758660   -8.00667e-04   4.06506e-05 DIIS
   @RHF iter  11:  -412.53060155020762   -2.20523e-04   1.78320e-05 DIIS
   @RHF iter  12:  -412.53064768387082   -4.61337e-05   7.22457e-06 DIIS
   @RHF iter  13:  -412.53065505221639   -7.36835e-06   1.64679e-06 DIIS
   @RHF iter  14:  -412.53065566334544   -6.11129e-07   8.13555e-07 DIIS
   @RHF iter  15:  -412.53065581654505   -1.53200e-07   4.71857e-07 DIIS
   @RHF iter  16:  -412.53065586940875   -5.28637e-08   1.56706e-07 DIIS
   @RHF iter  17:  -412.53065587884828   -9.43953e-09   3.89987e-08 DIIS
   @RHF iter  18:  -412.53065587918002   -3.31738e-10   1.43737e-08 DIIS
   @RHF iter  19:  -412.53065587922129   -4.12683e-11   4.83163e-09 DIIS

  ==> Post-Iterations <==

	Orbital Energies (a.u.)
	-----------------------

	Doubly Occupied:                                                      

	   1A    -20.559109     2A    -20.553524     3A    -15.652364  
	   4A    -15.635276     5A    -11.429061     6A    -11.390108  
	   7A    -11.348234     8A    -11.262556     9A     -1.441807  
	  10A     -1.404168    11A     -1.317950    12A     -1.249535  
	  13A     -1.091711    14A     -0.936447    15A     -0.904815  
	  16A     -0.809326    17A     -0.767460    18A     -0.716056  
	  19A     -0.680030    20A     -0.669459    21A     -0.655123  
	  22A     -0.616703    23A     -0.602811    24A     -0.571559  
	  25A     -0.525980    26A     -0.484288    27A     -0.449456  
	  28A     -0.436655    29A     -0.368648  

	Virtual:                                                              

	  30A      0.014036    31A      0.028555    32A      0.034709  
	  33A      0.038815    34A      0.050626    35A      0.053608  
	  36A      0.053820    37A      0.059299    38A      0.063845  
	  39A      0.073018    40A      0.079181    41A      0.081644  
	  42A      0.085212    43A      0.087872    44A      0.089780  
	  45A      0.092507    46A      0.097379    47A      0.104175  
	  48A      0.108829    49A      0.116753    50A      0.118465  
	  51A      0.124979    52A      0.127807    53A      0.133396  
	  54A      0.141205    55A      0.143624    56A      0.145606  
	  57A      0.149268    58A      0.154090    59A      0.155657  
	  60A      0.156585    61A      0.161385    62A      0.166403  
	  63A      0.168508    64A      0.170619    65A      0.173340  
	  66A      0.176663    67A      0.182879    68A      0.192149  
	  69A      0.193458    70A      0.195541    71A      0.200552  
	  72A      0.204060    73A      0.204498    74A      0.216587  
	  75A      0.218056    76A      0.220629    77A      0.228558  
	  78A      0.230460    79A      0.242611    80A      0.244118  
	  81A      0.252715    82A      0.260307    83A      0.264232  
	  84A      0.269305    85A      0.273695    86A      0.282102  
	  87A      0.286606    88A      0.288328    89A      0.291098  
	  90A      0.303752    91A      0.318175    92A      0.322905  
	  93A      0.325867    94A      0.329289    95A      0.337792  
	  96A      0.342518    97A      0.344026    98A      0.349538  
	  99A      0.354799   100A      0.364425   101A      0.366813  
	 102A      0.371237   103A      0.377595   104A      0.380373  
	 105A      0.385387   106A      0.392069   107A      0.398213  
	 108A      0.401657   109A      0.408076   110A      0.408794  
	 111A      0.411052   112A      0.416926   113A      0.418061  
	 114A      0.425147   115A      0.431198   116A      0.438709  
	 117A      0.445110   118A      0.448573   119A      0.452709  
	 120A      0.455939   121A      0.460417   122A      0.464500  
	 123A      0.470534   124A      0.475034   125A      0.480117  
	 126A      0.484333   127A      0.484608   128A      0.487138  
	 129A      0.502864   130A      0.509187   131A      0.516690  
	 132A      0.520117   133A      0.523967   134A      0.526513  
	 135A      0.537513   136A      0.541957   137A      0.554218  
	 138A      0.559655   139A      0.562088   140A      0.567300  
	 141A      0.573597   142A      0.575443   143A      0.584790  
	 144A      0.587364   145A      0.593369   146A      0.601886  
	 147A      0.604218   148A      0.608906   149A      0.613143  
	 150A      0.624776   151A      0.633441   152A      0.644686  
	 153A      0.645701   154A      0.648593   155A      0.652460  
	 156A      0.660101   157A      0.662810   158A      0.668294  
	 159A      0.669892   160A      0.675292   161A      0.677068  
	 162A      0.686012   163A      0.692580   164A      0.694272  
	 165A      0.699034   166A      0.709034   167A      0.716151  
	 168A      0.731567   169A      0.739771   170A      0.743494  
	 171A      0.747628   172A      0.753404   173A      0.761463  
	 174A      0.767985   175A      0.769726   176A      0.785202  
	 177A      0.786283   178A      0.796706   179A      0.802943  
	 180A      0.807872   181A      0.810333   182A      0.820506  
	 183A      0.821284   184A      0.831894   185A      0.835867  
	 186A      0.842064   187A      0.844493   188A      0.848436  
	 189A      0.850733   190A      0.855133   191A      0.855824  
	 192A      0.862779   193A      0.868721   194A      0.880798  
	 195A      0.884641   196A      0.889465   197A      0.892785  
	 198A      0.900585   199A      0.903538   200A      0.909946  
	 201A      0.913996   202A      0.920288   203A      0.925399  
	 204A      0.935746   205A      0.942460   206A      0.950010  
	 207A      0.950427   208A      0.965365   209A      0.970290  
	 210A      0.971501   211A      0.975105   212A      0.988268  
	 213A      1.002063   214A      1.003996   215A      1.009689  
	 216A      1.011208   217A      1.022722   218A      1.027155  
	 219A      1.037748   220A      1.041356   221A      1.051642  
	 222A      1.063670   223A      1.072750   224A      1.076003  
	 225A      1.085127   226A      1.090897   227A      1.099241  
	 228A      1.109361   229A      1.112740   230A      1.122056  
	 231A      1.131478   232A      1.137398   233A      1.147202  
	 234A      1.152427   235A      1.164043   236A      1.170313  
	 237A      1.179774   238A      1.187527   239A      1.199384  
	 240A      1.207810   241A      1.217293   242A      1.229103  
	 243A      1.234964   244A      1.244461   245A      1.250035  
	 246A      1.264614   247A      1.279565   248A      1.288895  
	 249A      1.290756   250A      1.303712   251A      1.310315  
	 252A      1.324260   253A      1.331241   254A      1.337738  
	 255A      1.353833   256A      1.373589   257A      1.378650  
	 258A      1.407605   259A      1.419955   260A      1.438314  
	 261A      1.464426   262A      1.473309   263A      1.487033  
	 264A      1.490988   265A      1.529460   266A      1.541038  
	 267A      1.560234   268A      1.571414   269A      1.581837  
	 270A      1.614400   271A      1.628862   272A      1.677028  
	 273A      1.714503   274A      1.716166   275A      1.725534  
	 276A      1.742817   277A      1.769856   278A      1.798036  
	 279A      1.849518   280A      1.857589   281A      1.869381  
	 282A      1.883920   283A      1.902890   284A      1.943562  
	 285A      1.948291   286A      1.964953   287A      1.973396  
	 288A      1.990242   289A      2.015590   290A      2.029915  
	 291A      2.037006   292A      2.043206   293A      2.056434  
	 294A      2.067231   295A      2.085628   296A      2.102017  
	 297A      2.111237   298A      2.127904   299A      2.139921  
	 300A      2.145060   301A      2.160935   302A      2.172829  
	 303A      2.195401   304A      2.212236   305A      2.214125  
	 306A      2.230705   307A      2.240941   308A      2.247997  
	 309A      2.265428   310A      2.276435   311A      2.284526  
	 312A      2.293152   313A      2.304715   314A      2.319567  
	 315A      2.329429   316A      2.336976   317A      2.353921  
	 318A      2.358182   319A      2.370780   320A      2.380413  
	 321A      2.391178   322A      2.392097   323A      2.396513  
	 324A      2.409325   325A      2.418304   326A      2.419476  
	 327A      2.430891   328A      2.440861   329A      2.444813  
	 330A      2.452215   331A      2.457177   332A      2.464071  
	 333A      2.473640   334A      2.479119   335A      2.489342  
	 336A      2.493980   337A      2.498745   338A      2.509929  
	 339A      2.518239   340A      2.525463   341A      2.531538  
	 342A      2.550398   343A      2.554393   344A      2.559675  
	 345A      2.564241   346A      2.582638   347A      2.600095  
	 348A      2.610316   349A      2.621217   350A      2.627965  
	 351A      2.646842   352A      2.648631   353A      2.668911  
	 354A      2.691876   355A      2.701830   356A      2.731334  
	 357A      2.747328   358A      2.761703   359A      2.782217  
	 360A      2.790600   361A      2.816141   362A      2.821504  
	 363A      2.845446   364A      2.860827   365A      2.876477  
	 366A      2.885402   367A      2.889123   368A      2.894444  
	 369A      2.900391   370A      2.923312   371A      2.936860  
	 372A      2.959976   373A      2.987280   374A      3.001529  
	 375A      3.012635   376A      3.046414   377A      3.071982  
	 378A      3.079777   379A      3.111135   380A      3.124565  
	 381A      3.130379   382A      3.180040   383A      3.194196  
	 384A      3.217135   385A      3.228175   386A      3.247590  
	 387A      3.251827   388A      3.255850   389A      3.274532  
	 390A      3.345443   391A      3.351994   392A      3.379248  
	 393A      3.405552   394A      3.442231   395A      3.448737  
	 396A      3.473911   397A      3.480134   398A      3.483561  
	 399A      3.523858   400A      3.532262   401A      3.568581  
	 402A      3.576455   403A      3.589067   404A      3.663943  
	 405A      3.694155   406A      3.739081   407A      3.752315  
	 408A      3.774876   409A      3.813598   410A      3.819882  
	 411A      3.836343   412A      3.849015   413A      3.852814  
	 414A      3.865333   415A      3.897515   416A      3.919723  
	 417A      3.971258   418A      4.041779   419A      4.072224  
	 420A      4.092737   421A      4.124852   422A      4.210610  
	 423A      4.316893   424A      4.378918   425A      4.455261  
	 426A      4.529192   427A      4.534447   428A      4.792697  
	 429A      4.842189   430A      4.882250   431A      4.942468  
	 432A      4.991479   433A      5.031614   434A      5.123807  
	 435A      5.180127   436A      5.251470   437A      5.276008  
	 438A      5.381201   439A     18.267440   440A     18.447807  
	 441A     18.690213   442A     19.006347   443A     19.186431  

	Final Occupation by Irrep:
	          A 
	DOCC [    29 ]

  Energy converged.

  @RHF Final Energy:  -412.53065587922129

   => Energetics <=

    Nuclear Repulsion Energy =            357.0661763028283531
    One-Electron Energy =               -1270.1332260428785048
    Two-Electron Energy =                 500.5363938608291505
    DFT Exchange-Correlation Energy =       0.0000000000000000
    Empirical Dispersion Energy =           0.0000000000000000
    Total Energy =                       -412.5306558792210012



Properties will be evaluated at   0.000000,   0.000000,   0.000000 Bohr
  ==> Properties <==


Properties computed using the SCF density density matrix
  Nuclear Dipole Moment: (a.u.)
     X:   -13.9493      Y:     1.9521      Z:  -166.6621

  Electronic Dipole Moment: (a.u.)
     X:    14.4867      Y:    -0.0453      Z:   166.6142

  Dipole Moment: (a.u.)
     X:     0.5374      Y:     1.9068      Z:    -0.0479     Total:     1.9816

  Dipole Moment: (Debye)
     X:     1.3660      Y:     4.8466      Z:    -0.1218     Total:     5.0368


  Saving occupied orbitals to File 180.

  Saving SAPT 2-MONOMER_A file.

*** tstop() called on node142.bme.utexas.edu at Fri Nov  8 12:36:00 2013
Module time:
	user time   =     501.52 seconds =       8.36 minutes
	system time =       3.21 seconds =       0.05 minutes
	total time  =        132 seconds =       2.20 minutes
Total time:
	user time   =    1220.16 seconds =      20.34 minutes
	system time =      12.96 seconds =       0.22 minutes
	total time  =        329 seconds =       5.48 minutes

  //>>>>>>>>>>>>>>>>>>>>>>>>>>>>>>>>>>>//
  //            Monomer B HF           //
  //<<<<<<<<<<<<<<<<<<<<<<<<<<<<<<<<<<<//


  No DF_BASIS_SCF auxiliary basis selected, defaulting to aug-cc-pvdz-jkfit


*** tstart() called on node142.bme.utexas.edu
*** at Fri Nov  8 12:36:00 2013


         ---------------------------------------------------------
                                   SCF
            by Justin Turney, Rob Parrish, and Andy Simmonett
                              RHF Reference
                        4 Threads,   7000 MiB Core
         ---------------------------------------------------------

  ==> Geometry <==

    Molecular point group: c1
    Full point group: C1

    Geometry (in Angstrom), charge = 0, multiplicity = 1:

       Center              X                  Y                   Z       
    ------------   -----------------  -----------------  -----------------
           N(Gh)     -0.160992485020    -0.958291841581    -1.479054467596
           H(Gh)     -0.176238693020    -1.966818614581    -1.408731649596
           C(Gh)     -1.398429785020    -0.338290338581    -1.707156932596
           O(Gh)     -2.413324462020    -1.004500828581    -1.815923548596
           C(Gh)     -1.309869902020     1.109476370419    -1.785671723596
           H(Gh)     -2.208659849020     1.674021493419    -1.963968194596
           C(Gh)     -0.115090904020     1.716183352419    -1.632689186596
           H(Gh)      0.001621830980     2.788736690419    -1.680465826596
           N(Gh)      1.033364391980     1.007114903419    -1.402609144596
           H(Gh)      1.915472071980     1.473218553419    -1.269031206596
           C(Gh)      1.074933207980    -0.372879327581    -1.301168276596
           O(Gh)      2.097108991980    -0.991104695581    -1.076555722596
           C          1.218907047980     2.367161348419     2.395196763404
           H          0.788058433980     2.678210043419     1.442414196404
           H          0.584673136980     2.772594469419     3.183444414404
           H          2.201787073980     2.827608760419     2.488318249404
           C          1.291923511980     0.848290398419     2.484715104404
           H          1.722307155980     0.558727542419     3.446006059404
           H          1.966513103980     0.457129847419     1.719596939404
           C         -0.072861678020     0.190123746419     2.329898345404
           H         -0.744105938020     0.558999556419     3.111517586404
           H         -0.520332547020     0.500388763419     1.379998119404
           C         -0.016572740020    -1.330562804581     2.389533841404
           H          0.407032755980    -1.632993219581     3.350170028404
           H          0.674949002980    -1.692441743581     1.625031413404
           C         -1.385855662020    -1.972436014581     2.205760190404
           H         -1.824234657020    -1.698978331581     1.245574681404
           H         -1.328916869020    -3.059204401581     2.249817378404
           H         -2.073818440020    -1.644090031581     2.984993237404

  Running in c1 symmetry.

  Nuclear repulsion =  185.616735778001953

  Charge       = 0
  Multiplicity = 1
  Electrons    = 42
  Nalpha       = 21
  Nbeta        = 21

  ==> Algorithm <==

  SCF Algorithm Type is DF.
  DIIS enabled.
  MOM disabled.
  Fractional occupation disabled.
  Guess Type is CORE.
  Energy threshold   = 1.00e-08
  Density threshold  = 1.00e-08
  Integral threshold = 0.00e+00

  ==> Primary Basis <==

  Basis Set: AUG-CC-PVDZ
    Number of shells: 197
    Number of basis function: 443
    Number of Cartesian functions: 469
    Spherical Harmonics?: true
    Max angular momentum: 2

  ==> Pre-Iterations <==

   -------------------------------------------------------
    Irrep   Nso     Nmo     Nalpha   Nbeta   Ndocc  Nsocc
   -------------------------------------------------------
     A        443     443       0       0       0       0
   -------------------------------------------------------
    Total     443     443      21      21      21       0
   -------------------------------------------------------

 OEINTS: Wrapper to libmints.
   by Justin Turney

   Calculation information:
      Number of atoms:                  29
      Number of AO shells:             197
      Number of SO shells:             197
      Number of primitives:            437
      Number of atomic orbitals:       469
      Number of basis functions:       443

      Number of irreps:                  1
      Number of functions per irrep: [ 443 ]

      Overlap, kinetic, potential, dipole, and quadrupole integrals
        stored in file 35.

  ==> Integral Setup <==

  ==> DFJK: Density-Fitted J/K Matrices <==

    J tasked:                  Yes
    K tasked:                  Yes
    wK tasked:                  No
    OpenMP threads:              4
    Integrals threads:           4
    Memory (MB):              5006
    Algorithm:                Core
    Integral Cache:           LOAD
    Schwarz Cutoff:          0E+00
    Fitting Condition:       1E-12

   => Auxiliary Basis Set <=

  Basis Set: aug-cc-pvdz-jkfit
    Number of shells: 556
    Number of basis function: 1630
    Number of Cartesian functions: 1873
    Spherical Harmonics?: true
    Max angular momentum: 3

  Minimum eigenvalue in the overlap matrix is 8.6153517639E-06.
  Using Symmetric Orthogonalization.
  SCF Guess: Core (One-Electron) Hamiltonian.

  Guess energy:  -160.03537556398078

  ==> Iterations <==

                        Total Energy        Delta E     RMS |[F,P]|

   @RHF iter   1:  -150.57478231925109   -1.50575e+02   1.42332e-02 
   @RHF iter   2:  -138.33499970249181    1.22398e+01   9.57344e-03 DIIS
   @RHF iter   3:  -178.08207869452582   -3.97471e+01   1.17183e-02 DIIS
   @RHF iter   4:  -188.28582485170358   -1.02037e+01   8.22567e-03 DIIS
   @RHF iter   5:  -191.88823752297014   -3.60241e+00   6.27098e-03 DIIS
   @RHF iter   6:  -195.60347585010538   -3.71524e+00   2.35267e-03 DIIS
   @RHF iter   7:  -196.15624988391380   -5.52774e-01   1.21047e-03 DIIS
   @RHF iter   8:  -196.34704801681789   -1.90798e-01   2.00918e-04 DIIS
   @RHF iter   9:  -196.35378748856601   -6.73947e-03   4.57953e-05 DIIS
   @RHF iter  10:  -196.35407211856557   -2.84630e-04   1.74110e-05 DIIS
   @RHF iter  11:  -196.35413113501806   -5.90165e-05   3.76623e-06 DIIS
   @RHF iter  12:  -196.35413391245339   -2.77744e-06   1.06599e-06 DIIS
   @RHF iter  13:  -196.35413411959587   -2.07142e-07   3.36744e-07 DIIS
   @RHF iter  14:  -196.35413413956496   -1.99691e-08   5.28166e-08 DIIS
   @RHF iter  15:  -196.35413414020309   -6.38124e-10   1.56023e-08 DIIS
   @RHF iter  16:  -196.35413414025049   -4.74074e-11   3.74925e-09 DIIS

  ==> Post-Iterations <==

	Orbital Energies (a.u.)
	-----------------------

	Doubly Occupied:                                                      

	   1A    -11.218355     2A    -11.218267     3A    -11.215657  
	   4A    -11.214092     5A    -11.214074     6A     -1.082415  
	   7A     -1.016364     8A     -0.919797     9A     -0.820746  
	  10A     -0.785797    11A     -0.646208    12A     -0.598018  
	  13A     -0.591659    14A     -0.553891    15A     -0.546786  
	  16A     -0.524076    17A     -0.494513    18A     -0.474508  
	  19A     -0.461853    20A     -0.457647    21A     -0.445821  

	Virtual:                                                              

	  22A      0.024274    23A      0.037528    24A      0.038243  
	  25A      0.041623    26A      0.052913    27A      0.054813  
	  28A      0.057926    29A      0.060115    30A      0.068935  
	  31A      0.078648    32A      0.079996    33A      0.082066  
	  34A      0.086180    35A      0.089039    36A      0.092500  
	  37A      0.097207    38A      0.102542    39A      0.110187  
	  40A      0.115784    41A      0.118143    42A      0.123923  
	  43A      0.129638    44A      0.137461    45A      0.147314  
	  46A      0.148288    47A      0.150542    48A      0.157840  
	  49A      0.159105    50A      0.163438    51A      0.165112  
	  52A      0.165380    53A      0.168777    54A      0.172247  
	  55A      0.181166    56A      0.185461    57A      0.188255  
	  58A      0.194506    59A      0.195500    60A      0.199610  
	  61A      0.205913    62A      0.206709    63A      0.208353  
	  64A      0.212595    65A      0.218301    66A      0.222846  
	  67A      0.228550    68A      0.231958    69A      0.238264  
	  70A      0.242802    71A      0.246937    72A      0.250541  
	  73A      0.253653    74A      0.257803    75A      0.270554  
	  76A      0.275830    77A      0.279162    78A      0.292811  
	  79A      0.298103    80A      0.298790    81A      0.306003  
	  82A      0.308396    83A      0.313845    84A      0.317806  
	  85A      0.322492    86A      0.326520    87A      0.329623  
	  88A      0.337363    89A      0.348991    90A      0.355926  
	  91A      0.359510    92A      0.369870    93A      0.372145  
	  94A      0.374347    95A      0.376999    96A      0.385528  
	  97A      0.393810    98A      0.396275    99A      0.406523  
	 100A      0.410577   101A      0.413964   102A      0.414577  
	 103A      0.423377   104A      0.430879   105A      0.436733  
	 106A      0.442163   107A      0.448780   108A      0.451580  
	 109A      0.464233   110A      0.467130   111A      0.471123  
	 112A      0.473761   113A      0.481587   114A      0.490097  
	 115A      0.491761   116A      0.495199   117A      0.498908  
	 118A      0.502404   119A      0.509243   120A      0.512099  
	 121A      0.515250   122A      0.519669   123A      0.532153  
	 124A      0.534497   125A      0.537613   126A      0.544310  
	 127A      0.550210   128A      0.554140   129A      0.556350  
	 130A      0.559493   131A      0.573085   132A      0.578519  
	 133A      0.583130   134A      0.585929   135A      0.589647  
	 136A      0.597159   137A      0.599329   138A      0.609114  
	 139A      0.618061   140A      0.620007   141A      0.622264  
	 142A      0.634010   143A      0.634818   144A      0.637421  
	 145A      0.642188   146A      0.650246   147A      0.660151  
	 148A      0.662640   149A      0.664054   150A      0.676542  
	 151A      0.684692   152A      0.687353   153A      0.691167  
	 154A      0.694686   155A      0.696140   156A      0.700104  
	 157A      0.710546   158A      0.714578   159A      0.716979  
	 160A      0.729008   161A      0.734978   162A      0.745596  
	 163A      0.748241   164A      0.752565   165A      0.759567  
	 166A      0.768439   167A      0.775718   168A      0.780477  
	 169A      0.786351   170A      0.796121   171A      0.799544  
	 172A      0.803340   173A      0.812229   174A      0.817865  
	 175A      0.822835   176A      0.826923   177A      0.832642  
	 178A      0.834547   179A      0.843196   180A      0.846216  
	 181A      0.858102   182A      0.864200   183A      0.865943  
	 184A      0.872692   185A      0.874907   186A      0.887810  
	 187A      0.890847   188A      0.898449   189A      0.908100  
	 190A      0.913236   191A      0.925354   192A      0.929535  
	 193A      0.947379   194A      0.949519   195A      0.956245  
	 196A      0.956797   197A      0.963407   198A      0.967468  
	 199A      0.982948   200A      0.983643   201A      0.991951  
	 202A      0.997867   203A      1.003392   204A      1.011806  
	 205A      1.014360   206A      1.015780   207A      1.032659  
	 208A      1.033093   209A      1.042895   210A      1.050615  
	 211A      1.070403   212A      1.073016   213A      1.085608  
	 214A      1.101351   215A      1.114772   216A      1.122262  
	 217A      1.140065   218A      1.163730   219A      1.166534  
	 220A      1.176284   221A      1.185688   222A      1.196377  
	 223A      1.204749   224A      1.211098   225A      1.212078  
	 226A      1.224203   227A      1.226841   228A      1.237761  
	 229A      1.249968   230A      1.257784   231A      1.264345  
	 232A      1.266633   233A      1.284322   234A      1.299696  
	 235A      1.328847   236A      1.339883   237A      1.348222  
	 238A      1.357005   239A      1.357718   240A      1.366482  
	 241A      1.381585   242A      1.383597   243A      1.389600  
	 244A      1.402680   245A      1.406491   246A      1.421660  
	 247A      1.430600   248A      1.447893   249A      1.457937  
	 250A      1.467074   251A      1.473068   252A      1.484268  
	 253A      1.493232   254A      1.508892   255A      1.539098  
	 256A      1.543265   257A      1.554751   258A      1.561450  
	 259A      1.572628   260A      1.577424   261A      1.578455  
	 262A      1.599087   263A      1.620631   264A      1.634464  
	 265A      1.644920   266A      1.649221   267A      1.661835  
	 268A      1.663678   269A      1.676959   270A      1.688317  
	 271A      1.698246   272A      1.725227   273A      1.750759  
	 274A      1.756057   275A      1.806138   276A      1.813873  
	 277A      1.828554   278A      1.844628   279A      1.857738  
	 280A      1.880520   281A      1.897729   282A      1.906400  
	 283A      1.913551   284A      1.933235   285A      1.966068  
	 286A      1.970380   287A      1.978564   288A      1.992200  
	 289A      2.005028   290A      2.041296   291A      2.048075  
	 292A      2.059583   293A      2.107844   294A      2.130050  
	 295A      2.140453   296A      2.151525   297A      2.153586  
	 298A      2.155976   299A      2.161606   300A      2.172353  
	 301A      2.182238   302A      2.202668   303A      2.209989  
	 304A      2.215249   305A      2.240858   306A      2.244900  
	 307A      2.257962   308A      2.272625   309A      2.277394  
	 310A      2.286211   311A      2.293472   312A      2.299120  
	 313A      2.320977   314A      2.327207   315A      2.350094  
	 316A      2.364035   317A      2.364816   318A      2.376284  
	 319A      2.401913   320A      2.414275   321A      2.436858  
	 322A      2.445472   323A      2.461066   324A      2.469338  
	 325A      2.479367   326A      2.494996   327A      2.506606  
	 328A      2.513152   329A      2.533482   330A      2.538807  
	 331A      2.550628   332A      2.558559   333A      2.560263  
	 334A      2.570282   335A      2.576432   336A      2.608882  
	 337A      2.627905   338A      2.648577   339A      2.664288  
	 340A      2.681709   341A      2.694632   342A      2.705182  
	 343A      2.726357   344A      2.739383   345A      2.745539  
	 346A      2.749504   347A      2.763067   348A      2.776975  
	 349A      2.786365   350A      2.802666   351A      2.812254  
	 352A      2.817578   353A      2.836350   354A      2.854170  
	 355A      2.863610   356A      2.911247   357A      2.914951  
	 358A      2.924013   359A      2.936843   360A      2.943606  
	 361A      2.951040   362A      2.994428   363A      3.001674  
	 364A      3.016184   365A      3.044580   366A      3.056232  
	 367A      3.071779   368A      3.095232   369A      3.129129  
	 370A      3.145202   371A      3.145706   372A      3.191888  
	 373A      3.206291   374A      3.223126   375A      3.227714  
	 376A      3.300015   377A      3.311215   378A      3.341191  
	 379A      3.351383   380A      3.363239   381A      3.436482  
	 382A      3.483736   383A      3.494622   384A      3.516695  
	 385A      3.553974   386A      3.566405   387A      3.590358  
	 388A      3.677760   389A      3.716800   390A      3.739835  
	 391A      3.755621   392A      3.778520   393A      3.804534  
	 394A      3.861152   395A      3.882023   396A      3.934778  
	 397A      3.964699   398A      3.980662   399A      4.147845  
	 400A      4.189223   401A      4.234342   402A      4.381019  
	 403A      4.474332   404A      4.539086   405A      4.573666  
	 406A      4.648889   407A      4.705098   408A      4.734151  
	 409A      4.814247   410A      4.931247   411A      4.963584  
	 412A      5.024751   413A      5.048252   414A      5.062906  
	 415A      5.073298   416A      5.102139   417A      5.113768  
	 418A      5.137260   419A      5.234807   420A      5.350611  
	 421A      5.466082   422A      5.575846   423A      5.708457  
	 424A      5.817626   425A      5.933800   426A      6.036526  
	 427A      6.098686   428A      6.134867   429A      6.190176  
	 430A      6.240532   431A      6.255811   432A      6.446002  
	 433A      6.535738   434A      7.042519   435A      7.329442  
	 436A     18.174915   437A     18.762173   438A     18.905425  
	 439A     19.600354   440A     25.467004   441A     25.497331  
	 442A     33.539378   443A     33.549195  

	Final Occupation by Irrep:
	          A 
	DOCC [    21 ]

  Energy converged.

  @RHF Final Energy:  -196.35413414025049

   => Energetics <=

    Nuclear Repulsion Energy =            185.6167357780019529
    One-Electron Energy =                -630.9406482566885188
    Two-Electron Energy =                 248.9697783384381751
    DFT Exchange-Correlation Energy =       0.0000000000000000
    Empirical Dispersion Energy =           0.0000000000000000
    Total Energy =                       -196.3541341402483908



Properties will be evaluated at   0.000000,   0.000000,   0.000000 Bohr
  ==> Properties <==


Properties computed using the SCF density density matrix
  Nuclear Dipole Moment: (a.u.)
     X:    15.2447      Y:     2.3459      Z:   187.1916

  Electronic Dipole Moment: (a.u.)
     X:   -15.2178      Y:    -2.3637      Z:  -187.1828

  Dipole Moment: (a.u.)
     X:     0.0269      Y:    -0.0177      Z:     0.0088     Total:     0.0334

  Dipole Moment: (Debye)
     X:     0.0684      Y:    -0.0451      Z:     0.0224     Total:     0.0849


  Saving occupied orbitals to File 180.

  Saving SAPT 2-MONOMER_B file.

*** tstop() called on node142.bme.utexas.edu at Fri Nov  8 12:37:46 2013
Module time:
	user time   =     402.50 seconds =       6.71 minutes
	system time =       2.91 seconds =       0.05 minutes
	total time  =        106 seconds =       1.77 minutes
Total time:
	user time   =    1622.68 seconds =      27.04 minutes
	system time =      15.87 seconds =       0.26 minutes
	total time  =        435 seconds =       7.25 minutes
  No DF_BASIS_SAPT auxiliary basis selected, defaulting to aug-cc-pvdz-ri

  //>>>>>>>>>>>>>>>>>>>>>>>>>>>>>>>>>>>//
  //               SAPT2+              //
  //<<<<<<<<<<<<<<<<<<<<<<<<<<<<<<<<<<<//


*** tstart() called on node142.bme.utexas.edu
*** at Fri Nov  8 12:37:46 2013

        SAPT2+  
    Ed Hohenstein
     6 June 2009

      Orbital Information
  --------------------------
    NSO        =       443
    NMO        =       443
    NRI        =      1304
    NOCC A     =        29
    NOCC B     =        21
    FOCC A     =         8
    FOCC B     =         5
    NVIR A     =       414
    NVIR B     =       422

    Estimated memory usage: 5452.2 MB

    Elst10,r            =    -0.001372927684 H
    Exch10 (S^2)        =     0.003496265352 H
    Exch10              =     0.003497789459 H
    Ind20,r (A<-B)      =    -0.000166198573 H
    Ind20,r (B<-A)      =    -0.001014894572 H
    Ind20,r             =    -0.001181093145 H
    Exch-Ind20,r (A<-B) =     0.000122894062 H
    Exch-Ind20,r (B<-A) =     0.000646317323 H
    Exch-Ind20,r        =     0.000769211385 H
    Disp20              =    -0.008847374061 H
    Exch-Disp20         =     0.000495258772 H
    Elst12,r            =    -0.000326603915 H
    Exch11              =     0.000014794839 H
    Exch12              =     0.000614280777 H
    Ind22               =    -0.000080783921 H
    Disp21              =     0.001674968800 H
    Disp22 (SDQ)        =    -0.000259449915 H

    (i =   1 of  16)       5107 seconds
    (i =   2 of  16)      10212 seconds
    (i =   3 of  16)      15318 seconds
    (i =   4 of  16)      20430 seconds
    (i =   5 of  16)      25543 seconds
    (i =   6 of  16)      30663 seconds
    (i =   7 of  16)      35778 seconds
    (i =   8 of  16)      40893 seconds
    (i =   9 of  16)      46007 seconds
    (i =  10 of  16)      51129 seconds
    (i =  11 of  16)      56251 seconds
    (i =  12 of  16)      61368 seconds
    (i =  13 of  16)      66480 seconds
    (i =  14 of  16)      71600 seconds
    (i =  15 of  16)      76719 seconds
    (i =  16 of  16)      81837 seconds

    Disp220 (T)         =    -0.000970783613 H

    (i =   1 of  21)       3057 seconds
    (i =   2 of  21)       6109 seconds
    (i =   3 of  21)       9156 seconds
    (i =   4 of  21)      12208 seconds
    (i =   5 of  21)      15262 seconds
    (i =   6 of  21)      18311 seconds
    (i =   7 of  21)      21364 seconds
    (i =   8 of  21)      24413 seconds
    (i =   9 of  21)      27462 seconds
    (i =  10 of  21)      30514 seconds
    (i =  11 of  21)      33574 seconds
    (i =  12 of  21)      36632 seconds
    (i =  13 of  21)      39679 seconds
    (i =  14 of  21)      42728 seconds
    (i =  15 of  21)      45781 seconds
    (i =  16 of  21)      48828 seconds
    (i =  17 of  21)      51874 seconds
    (i =  18 of  21)      54923 seconds
    (i =  19 of  21)      57969 seconds
    (i =  20 of  21)      61019 seconds
    (i =  21 of  21)      64076 seconds

    Disp202 (T)         =    -0.000628825576 H

    Disp22 (T)          =    -0.001599609190 H

    SAPT Results  
  -----------------------------------------------------------------------
    Electrostatics          -1.69953160 mH      -1.06647222 kcal mol^-1
      Elst10,r              -1.37292768 mH      -0.86152516 kcal mol^-1
      Elst12,r              -0.32660391 mH      -0.20494706 kcal mol^-1

    Exchange                 4.12686507 mH       2.58964704 kcal mol^-1
      Exch10                 3.49778946 mH       2.19489611 kcal mol^-1
      Exch10(S^2)            3.49626535 mH       2.19393972 kcal mol^-1
      Exch11(S^2)            0.01479484 mH       0.00928390 kcal mol^-1
      Exch12(S^2)            0.61428078 mH       0.38546702 kcal mol^-1

    Induction               -0.62204544 mH      -0.39033943 kcal mol^-1
      Ind20,r               -1.18109314 mH      -0.74114717 kcal mol^-1
      Ind22                 -0.08078392 mH      -0.05069268 kcal mol^-1
      Exch-Ind20,r           0.76921139 mH       0.48268745 kcal mol^-1
      Exch-Ind22             0.05261220 mH       0.03301466 kcal mol^-1
      delta HF,r (2)        -0.18199197 mH      -0.11420169 kcal mol^-1

    Dispersion              -8.53620559 mH      -5.35655010 kcal mol^-1
      Disp20                -8.84737406 mH      -5.55181127 kcal mol^-1
      Disp21                 1.67496880 mH       1.05105883 kcal mol^-1
      Disp22 (SDQ)          -0.25944991 mH      -0.16280729 kcal mol^-1
      Disp22 (T)            -1.59960919 mH      -1.00376996 kcal mol^-1
      Exch-Disp20            0.49525877 mH       0.31077958 kcal mol^-1

    Total HF                 1.53098805 mH       0.96070955 kcal mol^-1
    Total SAPT0             -6.82112724 mH      -4.28032214 kcal mol^-1
    Total SAPT2             -6.54682726 mH      -4.10819630 kcal mol^-1
    Total SAPT2+            -6.73091756 mH      -4.22371471 kcal mol^-1

*** tstop() called on node142.bme.utexas.edu at Sun Nov 10 07:28:51 2013
Module time:
	user time   =  522669.50 seconds =    8711.16 minutes
	system time =     501.42 seconds =       8.36 minutes
	total time  =     154265 seconds =    2571.08 minutes
Total time:
	user time   =  524292.18 seconds =    8738.20 minutes
	system time =     517.29 seconds =       8.62 minutes
	total time  =     154700 seconds =    2578.33 minutes

*** PSI4 exiting successfully. Buy a developer a beer!
