    -----------------------------------------------------------------------
          PSI4: An Open-Source Ab Initio Electronic Structure Package
                              PSI 4.0.0-beta4 Driver

    J. M. Turney, A. C. Simmonett, R. M. Parrish, E. G. Hohenstein,
    F. A. Evangelista, J. T. Fermann, B. J. Mintz, L. A. Burns, J. J. Wilke,
    M. L. Abrams, N. J. Russ, M. L. Leininger, C. L. Janssen, E. T. Seidl,
    W. D. Allen, H. F. Schaefer, R. A. King, E. F. Valeev, C. D. Sherrill,
    and T. D. Crawford, WIREs Comput. Mol. Sci., (2011) (doi: 10.1002/wcms.93)

                         Additional Contributions by
    A. E. DePrince, M. Saitow, U. Bozkaya, A. Yu. Sokolov
    -----------------------------------------------------------------------

    Process ID:  29273
    PSI4DATADIR: /home/xzhu216/psi4/psi4-install/share/psi

    Using LocalCommunicator (Number of processes = 1)

    Memory level set to 256.000 MB

  ==> Input File <==

--------------------------------------------------------------------------
#psi4
#
memory 7 gb

molecule Uracil_Cyclopentane {
0 1
N    0.195729592  -0.844689252   0.823846417
H    0.450397533  -1.796752940   1.049767944
C   -1.179049195  -0.573684403   0.759483486
O   -1.993646244  -1.456265265   0.966900658
C   -1.476714706   0.811155669   0.437559516
H   -2.506355919   1.115650590   0.363894693
C   -0.468112800   1.682962449   0.234890836
H   -0.638435222   2.721642964  -0.006164102
N    0.845628536   1.305991135   0.326830511
H    1.589692556   1.968879240   0.185959794
C    1.254261474   0.019461869   0.636243974
O    2.422304381  -0.301716391   0.731879480
--
0 1
C    1.052885040  -0.861418996   4.274200975
H    1.506737549  -0.953475235   3.286218421
H    1.597387540  -1.525399263   4.943398647
C    1.107198511   0.604533006   4.707136957
H    2.065488502   1.077431940   4.496412668
H    0.919083225   0.686170548   5.780360089
C   -0.060153072   1.217347483   3.936365756
H    0.214151204   1.306129086   2.882894134
H   -0.344567496   2.208488608   4.287999770
C   -1.177097564   0.179775574   4.107394070
H   -1.902636843   0.203389428   3.296022158
H   -1.721183194   0.384472730   5.029642686
C   -0.454061219  -1.186772257   4.211050957
H   -0.696725765  -1.830928382   3.367691283
H   -0.769167446  -1.714174671   5.110137377
units angstrom
no_reorient  #important for SAPT in psi4, default
symmetry c1  #important for SAPT in psi4, default
}

set {
basis aug-cc-pVDZ
scf_type DF
freeze_core True
}
energy('sapt2+')
--------------------------------------------------------------------------

  Memory set to   7.000 GiB by Python script.

  //>>>>>>>>>>>>>>>>>>>>>>>>>>>>>>>>>>>//
  //              Dimer HF             //
  //<<<<<<<<<<<<<<<<<<<<<<<<<<<<<<<<<<<//


  No DF_BASIS_SCF auxiliary basis selected, defaulting to aug-cc-pvdz-jkfit


*** tstart() called on node62.bme.utexas.edu
*** at Tue Oct 15 16:25:16 2013


         ---------------------------------------------------------
                                   SCF
            by Justin Turney, Rob Parrish, and Andy Simmonett
                              RHF Reference
                        8 Threads,   7000 MiB Core
         ---------------------------------------------------------

  ==> Geometry <==

    Molecular point group: c1
    Full point group: C1

    Geometry (in Angstrom), charge = 0, multiplicity = 1:

       Center              X                  Y                   Z       
    ------------   -----------------  -----------------  -----------------
           N          0.171620157282    -0.871832116102    -1.193422900852
           H          0.426288098282    -1.823895804102    -0.967501373852
           C         -1.203158629718    -0.600827267102    -1.257785831852
           O         -2.017755678718    -1.483408129102    -1.050368659852
           C         -1.500824140718     0.784012804898    -1.579709801852
           H         -2.530465353718     1.088507725898    -1.653374624852
           C         -0.492222234718     1.655819584898    -1.782378481852
           H         -0.662544656718     2.694500099898    -2.023433419852
           N          0.821519101282     1.278848270898    -1.690438806852
           H          1.565583121282     1.941736375898    -1.831309523852
           C          1.230152039282    -0.007680995102    -1.381025343852
           O          2.398194946282    -0.328859255102    -1.285389837852
           C          1.028775605282    -0.888561860102     2.256931657148
           H          1.482628114282    -0.980618099102     1.268949103148
           H          1.573278105282    -1.552542127102     2.926129329148
           C          1.083089076282     0.577390141898     2.689867639148
           H          2.041379067282     1.050289075898     2.479143350148
           H          0.894973790282     0.659027683898     3.763090771148
           C         -0.084262506718     1.190204618898     1.919096438148
           H          0.190041769282     1.278986221898     0.865624816148
           H         -0.368676930718     2.181345743898     2.270730452148
           C         -1.201206998718     0.152632709898     2.090124752148
           H         -1.926746277718     0.176246563898     1.278752840148
           H         -1.745292628718     0.357329865898     3.012373368148
           C         -0.478170653718    -1.213915121102     2.193781639148
           H         -0.720835199718    -1.858071246102     1.350421965148
           H         -0.793276880718    -1.741317535102     3.092868059148

  Running in c1 symmetry.

  Nuclear repulsion =  838.055424806371661

  Charge       = 0
  Multiplicity = 1
  Electrons    = 98
  Nalpha       = 49
  Nbeta        = 49

  ==> Algorithm <==

  SCF Algorithm Type is DF.
  DIIS enabled.
  MOM disabled.
  Fractional occupation disabled.
  Guess Type is CORE.
  Energy threshold   = 1.00e-08
  Density threshold  = 1.00e-08
  Integral threshold = 0.00e+00

  ==> Primary Basis <==

  Basis Set: AUG-CC-PVDZ
    Number of shells: 187
    Number of basis function: 425
    Number of Cartesian functions: 451
    Spherical Harmonics?: true
    Max angular momentum: 2

  ==> Pre-Iterations <==

   -------------------------------------------------------
    Irrep   Nso     Nmo     Nalpha   Nbeta   Ndocc  Nsocc
   -------------------------------------------------------
     A        425     425       0       0       0       0
   -------------------------------------------------------
    Total     425     425      49      49      49       0
   -------------------------------------------------------

 OEINTS: Wrapper to libmints.
   by Justin Turney

   Calculation information:
      Number of atoms:                  27
      Number of AO shells:             187
      Number of SO shells:             187
      Number of primitives:            423
      Number of atomic orbitals:       451
      Number of basis functions:       425

      Number of irreps:                  1
      Number of functions per irrep: [ 425 ]

      Overlap, kinetic, potential, dipole, and quadrupole integrals
        stored in file 35.

  ==> Integral Setup <==

  ==> DFJK: Density-Fitted J/K Matrices <==

    J tasked:                  Yes
    K tasked:                  Yes
    wK tasked:                  No
    OpenMP threads:              8
    Integrals threads:           8
    Memory (MB):              5006
    Algorithm:                Core
    Integral Cache:           SAVE
    Schwarz Cutoff:          0E+00
    Fitting Condition:       1E-12

   => Auxiliary Basis Set <=

  Basis Set: aug-cc-pvdz-jkfit
    Number of shells: 532
    Number of basis function: 1566
    Number of Cartesian functions: 1803
    Spherical Harmonics?: true
    Max angular momentum: 3

  Minimum eigenvalue in the overlap matrix is 7.0030070672E-06.
  Using Symmetric Orthogonalization.
  SCF Guess: Core (One-Electron) Hamiltonian.

  Guess energy:  -494.49260920981226

  ==> Iterations <==

                        Total Energy        Delta E     RMS |[F,P]|

   @RHF iter   1:  -423.84048008092680   -4.23840e+02   2.80101e-02 
   @RHF iter   2:  -173.01196683237220    2.50829e+02   3.68884e-02 DIIS
   @RHF iter   3:  -435.55872093803180   -2.62547e+02   2.58396e-02 DIIS
   @RHF iter   4:  -411.56795228288195    2.39908e+01   3.15905e-02 DIIS
   @RHF iter   5:  -595.24129537117881   -1.83673e+02   7.64456e-03 DIIS
   @RHF iter   6:  -555.56633034512345    3.96750e+01   1.93507e-02 DIIS
   @RHF iter   7:  -607.25424778913282   -5.16879e+01   2.17220e-03 DIIS
   @RHF iter   8:  -607.54833423248476   -2.94086e-01   1.33162e-03 DIIS
   @RHF iter   9:  -607.67872329042086   -1.30389e-01   4.60622e-04 DIIS
   @RHF iter  10:  -607.70407944109991   -2.53562e-02   1.49397e-04 DIIS
   @RHF iter  11:  -607.70696202341298   -2.88258e-03   5.53495e-05 DIIS
   @RHF iter  12:  -607.70736528957457   -4.03266e-04   1.75927e-05 DIIS
   @RHF iter  13:  -607.70742276707654   -5.74775e-05   5.03015e-06 DIIS
   @RHF iter  14:  -607.70742610054378   -3.33347e-06   1.71210e-06 DIIS
   @RHF iter  15:  -607.70742700034737   -8.99804e-07   6.11427e-07 DIIS
   @RHF iter  16:  -607.70742710905472   -1.08707e-07   2.18131e-07 DIIS
   @RHF iter  17:  -607.70742712262120   -1.35665e-08   9.67567e-08 DIIS
   @RHF iter  18:  -607.70742712466665   -2.04545e-09   2.82592e-08 DIIS
   @RHF iter  19:  -607.70742712494541   -2.78760e-10   1.24801e-08 DIIS
   @RHF iter  20:  -607.70742712498247   -3.70619e-11   5.01502e-09 DIIS

  ==> Post-Iterations <==

	Orbital Energies (a.u.)
	-----------------------

	Doubly Occupied:                                                      

	   1A    -20.560162     2A    -20.554117     3A    -15.652390  
	   4A    -15.635648     5A    -11.429640     6A    -11.390607  
	   7A    -11.347810     8A    -11.262466     9A    -11.217552  
	  10A    -11.214593    11A    -11.212984    12A    -11.211341  
	  13A    -11.210301    14A     -1.442973    15A     -1.405353  
	  16A     -1.318468    17A     -1.250231    18A     -1.116682  
	  19A     -1.092001    20A     -0.957101    21A     -0.955523  
	  22A     -0.936567    23A     -0.905500    24A     -0.809752  
	  25A     -0.778285    26A     -0.769257    27A     -0.764212  
	  28A     -0.716332    29A     -0.680860    30A     -0.678083  
	  31A     -0.655973    32A     -0.644533    33A     -0.640740  
	  34A     -0.617258    35A     -0.603206    36A     -0.581434  
	  37A     -0.571168    38A     -0.558006    39A     -0.523686  
	  40A     -0.485738    41A     -0.473714    42A     -0.471799  
	  43A     -0.460940    44A     -0.460075    45A     -0.457898  
	  46A     -0.451216    47A     -0.444158    48A     -0.435839  
	  49A     -0.368873  

	Virtual:                                                              

	  50A      0.018818    51A      0.039143    52A      0.040306  
	  53A      0.045947    54A      0.054567    55A      0.055197  
	  56A      0.058626    57A      0.063499    58A      0.070545  
	  59A      0.076389    60A      0.081753    61A      0.087357  
	  62A      0.092477    63A      0.093872    64A      0.095167  
	  65A      0.109812    66A      0.113786    67A      0.119261  
	  68A      0.127792    69A      0.133311    70A      0.140892  
	  71A      0.146245    72A      0.148441    73A      0.150701  
	  74A      0.152562    75A      0.158335    76A      0.159176  
	  77A      0.161161    78A      0.165067    79A      0.167774  
	  80A      0.169939    81A      0.174608    82A      0.179396  
	  83A      0.181652    84A      0.186781    85A      0.190392  
	  86A      0.196733    87A      0.203589    88A      0.206461  
	  89A      0.208279    90A      0.212126    91A      0.215877  
	  92A      0.218575    93A      0.224415    94A      0.229472  
	  95A      0.233681    96A      0.240800    97A      0.241853  
	  98A      0.250530    99A      0.258791   100A      0.267284  
	 101A      0.279564   102A      0.281349   103A      0.284494  
	 104A      0.292784   105A      0.305347   106A      0.308793  
	 107A      0.313920   108A      0.320627   109A      0.328671  
	 110A      0.332685   111A      0.338777   112A      0.340405  
	 113A      0.352381   114A      0.353145   115A      0.358892  
	 116A      0.362325   117A      0.365878   118A      0.372379  
	 119A      0.380404   120A      0.385215   121A      0.387092  
	 122A      0.390640   123A      0.393411   124A      0.397933  
	 125A      0.405970   126A      0.411004   127A      0.414774  
	 128A      0.419387   129A      0.425974   130A      0.427440  
	 131A      0.430599   132A      0.438684   133A      0.441871  
	 134A      0.451398   135A      0.457364   136A      0.465070  
	 137A      0.468959   138A      0.470613   139A      0.474621  
	 140A      0.480365   141A      0.486916   142A      0.491789  
	 143A      0.497312   144A      0.499624   145A      0.504626  
	 146A      0.506430   147A      0.512173   148A      0.521894  
	 149A      0.525457   150A      0.529353   151A      0.530747  
	 152A      0.541818   153A      0.550535   154A      0.558423  
	 155A      0.567704   156A      0.569027   157A      0.579191  
	 158A      0.586306   159A      0.588760   160A      0.589472  
	 161A      0.598649   162A      0.611000   163A      0.616476  
	 164A      0.617810   165A      0.622441   166A      0.632311  
	 167A      0.635002   168A      0.640042   169A      0.645384  
	 170A      0.658001   171A      0.663445   172A      0.674286  
	 173A      0.676985   174A      0.685130   175A      0.689225  
	 176A      0.690405   177A      0.699110   178A      0.706009  
	 179A      0.714549   180A      0.724207   181A      0.731617  
	 182A      0.735899   183A      0.737294   184A      0.740384  
	 185A      0.742020   186A      0.749822   187A      0.753942  
	 188A      0.758779   189A      0.765973   190A      0.772793  
	 191A      0.775653   192A      0.783487   193A      0.785315  
	 194A      0.788929   195A      0.804082   196A      0.806133  
	 197A      0.816192   198A      0.827184   199A      0.829269  
	 200A      0.835226   201A      0.840972   202A      0.845454  
	 203A      0.849233   204A      0.856426   205A      0.864148  
	 206A      0.873656   207A      0.879694   208A      0.883601  
	 209A      0.886083   210A      0.893889   211A      0.899214  
	 212A      0.904230   213A      0.913459   214A      0.918194  
	 215A      0.919028   216A      0.928199   217A      0.935494  
	 218A      0.937999   219A      0.941844   220A      0.962657  
	 221A      0.970978   222A      0.982160   223A      0.992822  
	 224A      0.994006   225A      1.000146   226A      1.014558  
	 227A      1.020113   228A      1.029669   229A      1.034975  
	 230A      1.039980   231A      1.044644   232A      1.054360  
	 233A      1.065318   234A      1.079477   235A      1.089287  
	 236A      1.108555   237A      1.112338   238A      1.117972  
	 239A      1.123726   240A      1.135008   241A      1.140506  
	 242A      1.154329   243A      1.158472   244A      1.181490  
	 245A      1.191018   246A      1.203022   247A      1.210784  
	 248A      1.216348   249A      1.236766   250A      1.242748  
	 251A      1.246421   252A      1.270393   253A      1.281178  
	 254A      1.295782   255A      1.314460   256A      1.347049  
	 257A      1.351710   258A      1.357469   259A      1.371910  
	 260A      1.384667   261A      1.386980   262A      1.403377  
	 263A      1.418234   264A      1.434302   265A      1.439628  
	 266A      1.444633   267A      1.456823   268A      1.464774  
	 269A      1.473191   270A      1.481558   271A      1.503796  
	 272A      1.507994   273A      1.529387   274A      1.534466  
	 275A      1.540904   276A      1.545169   277A      1.561566  
	 278A      1.583261   279A      1.596568   280A      1.616921  
	 281A      1.623479   282A      1.633151   283A      1.648167  
	 284A      1.653367   285A      1.671145   286A      1.676268  
	 287A      1.694151   288A      1.709859   289A      1.729317  
	 290A      1.752546   291A      1.762174   292A      1.785424  
	 293A      1.795117   294A      1.808667   295A      1.814051  
	 296A      1.820548   297A      1.852878   298A      1.864651  
	 299A      1.873158   300A      1.874893   301A      1.904682  
	 302A      1.908043   303A      1.920398   304A      1.933899  
	 305A      1.936211   306A      1.962209   307A      1.967650  
	 308A      1.985860   309A      1.987669   310A      2.003390  
	 311A      2.006573   312A      2.020195   313A      2.030355  
	 314A      2.045652   315A      2.060421   316A      2.069651  
	 317A      2.092718   318A      2.105146   319A      2.110282  
	 320A      2.115539   321A      2.119448   322A      2.121860  
	 323A      2.136073   324A      2.154072   325A      2.156887  
	 326A      2.171792   327A      2.178503   328A      2.197325  
	 329A      2.200180   330A      2.205191   331A      2.217904  
	 332A      2.229017   333A      2.241895   334A      2.249338  
	 335A      2.251634   336A      2.270761   337A      2.294067  
	 338A      2.308102   339A      2.324787   340A      2.329930  
	 341A      2.333892   342A      2.348745   343A      2.359193  
	 344A      2.381518   345A      2.383281   346A      2.391637  
	 347A      2.404595   348A      2.407628   349A      2.430691  
	 350A      2.440808   351A      2.445244   352A      2.468100  
	 353A      2.470594   354A      2.505645   355A      2.517792  
	 356A      2.525640   357A      2.537837   358A      2.550634  
	 359A      2.570234   360A      2.576386   361A      2.591822  
	 362A      2.596100   363A      2.605849   364A      2.613084  
	 365A      2.639315   366A      2.649078   367A      2.662814  
	 368A      2.678598   369A      2.700703   370A      2.716794  
	 371A      2.741128   372A      2.751147   373A      2.789406  
	 374A      2.808757   375A      2.814863   376A      2.817372  
	 377A      2.842884   378A      2.846849   379A      2.875209  
	 380A      2.883749   381A      2.892528   382A      2.903818  
	 383A      2.908001   384A      2.923677   385A      2.942931  
	 386A      2.961172   387A      2.970665   388A      2.976793  
	 389A      2.987180   390A      3.006317   391A      3.018395  
	 392A      3.053827   393A      3.067962   394A      3.090778  
	 395A      3.133244   396A      3.149410   397A      3.188642  
	 398A      3.216840   399A      3.236680   400A      3.252516  
	 401A      3.272469   402A      3.298596   403A      3.340975  
	 404A      3.354116   405A      3.363446   406A      3.421434  
	 407A      3.443314   408A      3.465011   409A      3.562322  
	 410A      3.594514   411A      3.645123   412A      3.697195  
	 413A      3.830943   414A      3.841481   415A      3.863642  
	 416A      3.879818   417A      3.887338   418A      3.895611  
	 419A      3.926171   420A      4.045745   421A      4.080102  
	 422A      4.093311   423A      4.210573   424A      4.375186  
	 425A      4.539677  

	Final Occupation by Irrep:
	          A 
	DOCC [    49 ]

  Energy converged.

  @RHF Final Energy:  -607.70742712498247

   => Energetics <=

    Nuclear Repulsion Energy =            838.0554248063716614
    One-Electron Energy =               -2490.7596158110800388
    Two-Electron Energy =                1044.9967638797263589
    DFT Exchange-Correlation Energy =       0.0000000000000000
    Empirical Dispersion Energy =           0.0000000000000000
    Total Energy =                       -607.7074271249819049



Properties will be evaluated at   0.000000,   0.000000,   0.000000 Bohr
  ==> Properties <==


Properties computed using the SCF density density matrix
  Nuclear Dipole Moment: (a.u.)
     X:    -0.5389      Y:     3.2446      Z:    14.8396

  Electronic Dipole Moment: (a.u.)
     X:     0.5305      Y:    -1.3892      Z:   -15.2934

  Dipole Moment: (a.u.)
     X:    -0.0084      Y:     1.8554      Z:    -0.4538     Total:     1.9101

  Dipole Moment: (Debye)
     X:    -0.0213      Y:     4.7159      Z:    -1.1534     Total:     4.8549


  Saving occupied orbitals to File 180.

  Saving SAPT 2-DIMER file.

*** tstop() called on node62.bme.utexas.edu at Tue Oct 15 16:27:21 2013
Module time:
	user time   =     851.34 seconds =      14.19 minutes
	system time =      12.14 seconds =       0.20 minutes
	total time  =        125 seconds =       2.08 minutes
Total time:
	user time   =     851.34 seconds =      14.19 minutes
	system time =      12.14 seconds =       0.20 minutes
	total time  =        125 seconds =       2.08 minutes

  //>>>>>>>>>>>>>>>>>>>>>>>>>>>>>>>>>>>//
  //            Monomer A HF           //
  //<<<<<<<<<<<<<<<<<<<<<<<<<<<<<<<<<<<//


  No DF_BASIS_SCF auxiliary basis selected, defaulting to aug-cc-pvdz-jkfit


*** tstart() called on node62.bme.utexas.edu
*** at Tue Oct 15 16:27:21 2013


         ---------------------------------------------------------
                                   SCF
            by Justin Turney, Rob Parrish, and Andy Simmonett
                              RHF Reference
                        8 Threads,   7000 MiB Core
         ---------------------------------------------------------

  ==> Geometry <==

    Molecular point group: c1
    Full point group: C1

    Geometry (in Angstrom), charge = 0, multiplicity = 1:

       Center              X                  Y                   Z       
    ------------   -----------------  -----------------  -----------------
           N          0.171620157282    -0.871832116102    -1.193422900852
           H          0.426288098282    -1.823895804102    -0.967501373852
           C         -1.203158629718    -0.600827267102    -1.257785831852
           O         -2.017755678718    -1.483408129102    -1.050368659852
           C         -1.500824140718     0.784012804898    -1.579709801852
           H         -2.530465353718     1.088507725898    -1.653374624852
           C         -0.492222234718     1.655819584898    -1.782378481852
           H         -0.662544656718     2.694500099898    -2.023433419852
           N          0.821519101282     1.278848270898    -1.690438806852
           H          1.565583121282     1.941736375898    -1.831309523852
           C          1.230152039282    -0.007680995102    -1.381025343852
           O          2.398194946282    -0.328859255102    -1.285389837852
           C(Gh)      1.028775605282    -0.888561860102     2.256931657148
           H(Gh)      1.482628114282    -0.980618099102     1.268949103148
           H(Gh)      1.573278105282    -1.552542127102     2.926129329148
           C(Gh)      1.083089076282     0.577390141898     2.689867639148
           H(Gh)      2.041379067282     1.050289075898     2.479143350148
           H(Gh)      0.894973790282     0.659027683898     3.763090771148
           C(Gh)     -0.084262506718     1.190204618898     1.919096438148
           H(Gh)      0.190041769282     1.278986221898     0.865624816148
           H(Gh)     -0.368676930718     2.181345743898     2.270730452148
           C(Gh)     -1.201206998718     0.152632709898     2.090124752148
           H(Gh)     -1.926746277718     0.176246563898     1.278752840148
           H(Gh)     -1.745292628718     0.357329865898     3.012373368148
           C(Gh)     -0.478170653718    -1.213915121102     2.193781639148
           H(Gh)     -0.720835199718    -1.858071246102     1.350421965148
           H(Gh)     -0.793276880718    -1.741317535102     3.092868059148

  Running in c1 symmetry.

  Nuclear repulsion =  357.041693213196766

  Charge       = 0
  Multiplicity = 1
  Electrons    = 58
  Nalpha       = 29
  Nbeta        = 29

  ==> Algorithm <==

  SCF Algorithm Type is DF.
  DIIS enabled.
  MOM disabled.
  Fractional occupation disabled.
  Guess Type is CORE.
  Energy threshold   = 1.00e-08
  Density threshold  = 1.00e-08
  Integral threshold = 0.00e+00

  ==> Primary Basis <==

  Basis Set: AUG-CC-PVDZ
    Number of shells: 187
    Number of basis function: 425
    Number of Cartesian functions: 451
    Spherical Harmonics?: true
    Max angular momentum: 2

  ==> Pre-Iterations <==

   -------------------------------------------------------
    Irrep   Nso     Nmo     Nalpha   Nbeta   Ndocc  Nsocc
   -------------------------------------------------------
     A        425     425       0       0       0       0
   -------------------------------------------------------
    Total     425     425      29      29      29       0
   -------------------------------------------------------

 OEINTS: Wrapper to libmints.
   by Justin Turney

   Calculation information:
      Number of atoms:                  27
      Number of AO shells:             187
      Number of SO shells:             187
      Number of primitives:            423
      Number of atomic orbitals:       451
      Number of basis functions:       425

      Number of irreps:                  1
      Number of functions per irrep: [ 425 ]

      Overlap, kinetic, potential, dipole, and quadrupole integrals
        stored in file 35.

  ==> Integral Setup <==

  ==> DFJK: Density-Fitted J/K Matrices <==

    J tasked:                  Yes
    K tasked:                  Yes
    wK tasked:                  No
    OpenMP threads:              8
    Integrals threads:           8
    Memory (MB):              5006
    Algorithm:                Core
    Integral Cache:           LOAD
    Schwarz Cutoff:          0E+00
    Fitting Condition:       1E-12

   => Auxiliary Basis Set <=

  Basis Set: aug-cc-pvdz-jkfit
    Number of shells: 532
    Number of basis function: 1566
    Number of Cartesian functions: 1803
    Spherical Harmonics?: true
    Max angular momentum: 3

  Minimum eigenvalue in the overlap matrix is 7.0030070671E-06.
  Using Symmetric Orthogonalization.
  SCF Guess: Core (One-Electron) Hamiltonian.

  Guess energy:  -318.09310852774382

  ==> Iterations <==

                        Total Energy        Delta E     RMS |[F,P]|

   @RHF iter   1:  -347.28613654072188   -3.47286e+02   1.88323e-02 
   @RHF iter   2:  -307.67756292677853    3.96086e+01   1.79547e-02 DIIS
   @RHF iter   3:  -353.90195735013907   -4.62244e+01   1.79223e-02 DIIS
   @RHF iter   4:  -399.49749120276789   -4.55955e+01   9.87617e-03 DIIS
   @RHF iter   5:  -403.06883448912009   -3.57134e+00   8.05793e-03 DIIS
   @RHF iter   6:  -411.62168726166504   -8.55285e+00   3.01932e-03 DIIS
   @RHF iter   7:  -412.39335768177915   -7.71670e-01   1.28914e-03 DIIS
   @RHF iter   8:  -412.52168420093125   -1.28327e-01   2.41989e-04 DIIS
   @RHF iter   9:  -412.52993572699467   -8.25153e-03   7.96299e-05 DIIS
   @RHF iter  10:  -412.53077241210343   -8.36685e-04   4.08081e-05 DIIS
   @RHF iter  11:  -412.53098460284042   -2.12191e-04   1.81452e-05 DIIS
   @RHF iter  12:  -412.53102859045924   -4.39876e-05   7.87334e-06 DIIS
   @RHF iter  13:  -412.53103638474505   -7.79429e-06   1.74537e-06 DIIS
   @RHF iter  14:  -412.53103697087107   -5.86126e-07   8.10981e-07 DIIS
   @RHF iter  15:  -412.53103710282841   -1.31957e-07   4.44188e-07 DIIS
   @RHF iter  16:  -412.53103714640730   -4.35789e-08   1.56435e-07 DIIS
   @RHF iter  17:  -412.53103715507046   -8.66316e-09   4.07866e-08 DIIS
   @RHF iter  18:  -412.53103715542642   -3.55953e-10   1.41900e-08 DIIS
   @RHF iter  19:  -412.53103715546155   -3.51292e-11   4.69715e-09 DIIS

  ==> Post-Iterations <==

	Orbital Energies (a.u.)
	-----------------------

	Doubly Occupied:                                                      

	   1A    -20.559197     2A    -20.553621     3A    -15.652266  
	   4A    -15.635196     5A    -11.428994     6A    -11.390033  
	   7A    -11.348289     8A    -11.262642     9A     -1.441809  
	  10A     -1.404109    11A     -1.317720    12A     -1.249250  
	  13A     -1.091695    14A     -0.936156    15A     -0.904694  
	  16A     -0.809151    17A     -0.767230    18A     -0.715806  
	  19A     -0.679950    20A     -0.669283    21A     -0.655207  
	  22A     -0.616662    23A     -0.602690    24A     -0.571477  
	  25A     -0.525927    26A     -0.484301    27A     -0.449368  
	  28A     -0.436570    29A     -0.368728  

	Virtual:                                                              

	  30A      0.015739    31A      0.029190    32A      0.037640  
	  33A      0.041514    34A      0.051128    35A      0.053293  
	  36A      0.056871    37A      0.062892    38A      0.069674  
	  39A      0.074910    40A      0.079154    41A      0.082138  
	  42A      0.086965    43A      0.091531    44A      0.093139  
	  45A      0.094784    46A      0.109592    47A      0.113509  
	  48A      0.121810    49A      0.124592    50A      0.127701  
	  51A      0.129437    52A      0.135752    53A      0.140556  
	  54A      0.147010    55A      0.151968    56A      0.152001  
	  57A      0.157357    58A      0.158086    59A      0.162818  
	  60A      0.168920    61A      0.170819    62A      0.175075  
	  63A      0.178522    64A      0.179619    65A      0.185313  
	  66A      0.186218    67A      0.189420    68A      0.200745  
	  69A      0.203426    70A      0.205601    71A      0.211597  
	  72A      0.214224    73A      0.215224    74A      0.220465  
	  75A      0.223625    76A      0.228328    77A      0.232776  
	  78A      0.243140    79A      0.245979    80A      0.253336  
	  81A      0.261662    82A      0.266290    83A      0.271310  
	  84A      0.283984    85A      0.290058    86A      0.295171  
	  87A      0.306813    88A      0.311585    89A      0.321222  
	  90A      0.326960    91A      0.333937    92A      0.342957  
	  93A      0.343786    94A      0.354525    95A      0.357570  
	  96A      0.366961    97A      0.369162    98A      0.372529  
	  99A      0.383031   100A      0.385948   101A      0.388325  
	 102A      0.395003   103A      0.396418   104A      0.402015  
	 105A      0.411403   106A      0.413381   107A      0.416925  
	 108A      0.420066   109A      0.426950   110A      0.437935  
	 111A      0.441512   112A      0.443170   113A      0.447141  
	 114A      0.458703   115A      0.462255   116A      0.465596  
	 117A      0.470159   118A      0.475806   119A      0.478044  
	 120A      0.480799   121A      0.494681   122A      0.497725  
	 123A      0.503615   124A      0.510338   125A      0.514349  
	 126A      0.516428   127A      0.524171   128A      0.527061  
	 129A      0.530654   130A      0.539297   131A      0.547584  
	 132A      0.551570   133A      0.557450   134A      0.570807  
	 135A      0.576969   136A      0.578824   137A      0.585136  
	 138A      0.593832   139A      0.597723   140A      0.602327  
	 141A      0.609655   142A      0.612547   143A      0.618046  
	 144A      0.628327   145A      0.631857   146A      0.637137  
	 147A      0.646975   148A      0.653556   149A      0.655455  
	 150A      0.663792   151A      0.667070   152A      0.675362  
	 153A      0.683369   154A      0.687741   155A      0.692042  
	 156A      0.700495   157A      0.707726   158A      0.717539  
	 159A      0.723107   160A      0.732502   161A      0.739084  
	 162A      0.741327   163A      0.751320   164A      0.758497  
	 165A      0.774707   166A      0.777126   167A      0.787058  
	 168A      0.792925   169A      0.795383   170A      0.799143  
	 171A      0.807110   172A      0.811291   173A      0.817099  
	 174A      0.830002   175A      0.834685   176A      0.835376  
	 177A      0.842518   178A      0.846315   179A      0.852274  
	 180A      0.861274   181A      0.864718   182A      0.873742  
	 183A      0.887538   184A      0.892114   185A      0.896996  
	 186A      0.900946   187A      0.905174   188A      0.916242  
	 189A      0.917729   190A      0.927415   191A      0.930865  
	 192A      0.940217   193A      0.943254   194A      0.950499  
	 195A      0.963666   196A      0.967313   197A      0.971426  
	 198A      0.975954   199A      0.983108   200A      0.996968  
	 201A      1.007085   202A      1.014377   203A      1.016993  
	 204A      1.032789   205A      1.039219   206A      1.043694  
	 207A      1.047736   208A      1.054151   209A      1.070274  
	 210A      1.075131   211A      1.083893   212A      1.087965  
	 213A      1.095818   214A      1.102159   215A      1.108673  
	 216A      1.111818   217A      1.129238   218A      1.135188  
	 219A      1.139391   220A      1.150148   221A      1.153451  
	 222A      1.164091   223A      1.170718   224A      1.185775  
	 225A      1.194045   226A      1.200245   227A      1.209518  
	 228A      1.212515   229A      1.216082   230A      1.232455  
	 231A      1.234221   232A      1.250797   233A      1.258327  
	 234A      1.267051   235A      1.276653   236A      1.281841  
	 237A      1.297549   238A      1.309431   239A      1.315632  
	 240A      1.328465   241A      1.342146   242A      1.356556  
	 243A      1.364351   244A      1.375040   245A      1.379195  
	 246A      1.395470   247A      1.405686   248A      1.414317  
	 249A      1.428429   250A      1.452702   251A      1.462925  
	 252A      1.479885   253A      1.499919   254A      1.521354  
	 255A      1.534978   256A      1.559868   257A      1.568275  
	 258A      1.576759   259A      1.595555   260A      1.632353  
	 261A      1.635594   262A      1.682708   263A      1.705652  
	 264A      1.738984   265A      1.755923   266A      1.766323  
	 267A      1.810446   268A      1.830267   269A      1.859942  
	 270A      1.880811   271A      1.893522   272A      1.903432  
	 273A      1.911959   274A      1.957070   275A      1.979856  
	 276A      1.990016   277A      2.004681   278A      2.012287  
	 279A      2.050570   280A      2.071619   281A      2.081218  
	 282A      2.100279   283A      2.104975   284A      2.112920  
	 285A      2.118842   286A      2.149934   287A      2.172583  
	 288A      2.182787   289A      2.202962   290A      2.205011  
	 291A      2.215133   292A      2.232165   293A      2.235931  
	 294A      2.245135   295A      2.253330   296A      2.271971  
	 297A      2.286207   298A      2.298011   299A      2.307498  
	 300A      2.316581   301A      2.321857   302A      2.345215  
	 303A      2.356195   304A      2.361847   305A      2.378302  
	 306A      2.381204   307A      2.398987   308A      2.405437  
	 309A      2.418173   310A      2.428665   311A      2.430709  
	 312A      2.451983   313A      2.457154   314A      2.461558  
	 315A      2.475205   316A      2.486503   317A      2.500591  
	 318A      2.508498   319A      2.516763   320A      2.528831  
	 321A      2.541591   322A      2.549785   323A      2.561510  
	 324A      2.565389   325A      2.576436   326A      2.589273  
	 327A      2.593066   328A      2.615353   329A      2.618448  
	 330A      2.631642   331A      2.637006   332A      2.651665  
	 333A      2.665092   334A      2.672150   335A      2.683647  
	 336A      2.711730   337A      2.736379   338A      2.744485  
	 339A      2.752750   340A      2.758093   341A      2.786381  
	 342A      2.807951   343A      2.812955   344A      2.839418  
	 345A      2.842849   346A      2.851633   347A      2.865837  
	 348A      2.884064   349A      2.895260   350A      2.905421  
	 351A      2.920010   352A      2.923174   353A      2.930764  
	 354A      2.950636   355A      2.961507   356A      2.970735  
	 357A      2.998372   358A      3.007334   359A      3.026211  
	 360A      3.047958   361A      3.071278   362A      3.083485  
	 363A      3.108556   364A      3.117282   365A      3.151700  
	 366A      3.172455   367A      3.185204   368A      3.200207  
	 369A      3.228116   370A      3.255634   371A      3.272884  
	 372A      3.286615   373A      3.360665   374A      3.366615  
	 375A      3.387388   376A      3.400596   377A      3.427874  
	 378A      3.456899   379A      3.543676   380A      3.547275  
	 381A      3.561815   382A      3.583555   383A      3.607078  
	 384A      3.636577   385A      3.673217   386A      3.717058  
	 387A      3.740752   388A      3.815340   389A      3.835467  
	 390A      3.843538   391A      3.862489   392A      3.871366  
	 393A      3.881269   394A      3.914987   395A      3.927851  
	 396A      3.943435   397A      3.959760   398A      4.036111  
	 399A      4.047182   400A      4.058153   401A      4.086663  
	 402A      4.095504   403A      4.196878   404A      4.217270  
	 405A      4.375676   406A      4.507688   407A      4.546816  
	 408A      4.645357   409A      4.745475   410A      4.767354  
	 411A      4.848162   412A      4.884856   413A      4.965267  
	 414A      5.021085   415A      5.158180   416A      5.172445  
	 417A      5.215600   418A      5.280984   419A      5.298094  
	 420A      5.809139   421A     18.307492   422A     18.597217  
	 423A     18.626090   424A     19.261984   425A     19.837072  

	Final Occupation by Irrep:
	          A 
	DOCC [    29 ]

  Energy converged.

  @RHF Final Energy:  -412.53103715546155

   => Energetics <=

    Nuclear Repulsion Energy =            357.0416932131967656
    One-Electron Energy =               -1270.0894235548576034
    Two-Electron Energy =                 500.5166931861983812
    DFT Exchange-Correlation Energy =       0.0000000000000000
    Empirical Dispersion Energy =           0.0000000000000000
    Total Energy =                       -412.5310371554623998



Properties will be evaluated at   0.000000,   0.000000,   0.000000 Bohr
  ==> Properties <==


Properties computed using the SCF density density matrix
  Nuclear Dipole Moment: (a.u.)
     X:    -5.6729      Y:     6.1223      Z:  -153.7370

  Electronic Dipole Moment: (a.u.)
     X:     5.6907      Y:    -4.1952      Z:   153.2737

  Dipole Moment: (a.u.)
     X:     0.0178      Y:     1.9271      Z:    -0.4633     Total:     1.9820

  Dipole Moment: (Debye)
     X:     0.0453      Y:     4.8981      Z:    -1.1776     Total:     5.0379


  Saving occupied orbitals to File 180.

  Saving SAPT 2-MONOMER_A file.

*** tstop() called on node62.bme.utexas.edu at Tue Oct 15 16:28:45 2013
Module time:
	user time   =     616.98 seconds =      10.28 minutes
	system time =       6.78 seconds =       0.11 minutes
	total time  =         84 seconds =       1.40 minutes
Total time:
	user time   =    1468.34 seconds =      24.47 minutes
	system time =      18.92 seconds =       0.32 minutes
	total time  =        209 seconds =       3.48 minutes

  //>>>>>>>>>>>>>>>>>>>>>>>>>>>>>>>>>>>//
  //            Monomer B HF           //
  //<<<<<<<<<<<<<<<<<<<<<<<<<<<<<<<<<<<//


  No DF_BASIS_SCF auxiliary basis selected, defaulting to aug-cc-pvdz-jkfit


*** tstart() called on node62.bme.utexas.edu
*** at Tue Oct 15 16:28:45 2013


         ---------------------------------------------------------
                                   SCF
            by Justin Turney, Rob Parrish, and Andy Simmonett
                              RHF Reference
                        8 Threads,   7000 MiB Core
         ---------------------------------------------------------

  ==> Geometry <==

    Molecular point group: c1
    Full point group: C1

    Geometry (in Angstrom), charge = 0, multiplicity = 1:

       Center              X                  Y                   Z       
    ------------   -----------------  -----------------  -----------------
           N(Gh)      0.171620157282    -0.871832116102    -1.193422900852
           H(Gh)      0.426288098282    -1.823895804102    -0.967501373852
           C(Gh)     -1.203158629718    -0.600827267102    -1.257785831852
           O(Gh)     -2.017755678718    -1.483408129102    -1.050368659852
           C(Gh)     -1.500824140718     0.784012804898    -1.579709801852
           H(Gh)     -2.530465353718     1.088507725898    -1.653374624852
           C(Gh)     -0.492222234718     1.655819584898    -1.782378481852
           H(Gh)     -0.662544656718     2.694500099898    -2.023433419852
           N(Gh)      0.821519101282     1.278848270898    -1.690438806852
           H(Gh)      1.565583121282     1.941736375898    -1.831309523852
           C(Gh)      1.230152039282    -0.007680995102    -1.381025343852
           O(Gh)      2.398194946282    -0.328859255102    -1.285389837852
           C          1.028775605282    -0.888561860102     2.256931657148
           H          1.482628114282    -0.980618099102     1.268949103148
           H          1.573278105282    -1.552542127102     2.926129329148
           C          1.083089076282     0.577390141898     2.689867639148
           H          2.041379067282     1.050289075898     2.479143350148
           H          0.894973790282     0.659027683898     3.763090771148
           C         -0.084262506718     1.190204618898     1.919096438148
           H          0.190041769282     1.278986221898     0.865624816148
           H         -0.368676930718     2.181345743898     2.270730452148
           C         -1.201206998718     0.152632709898     2.090124752148
           H         -1.926746277718     0.176246563898     1.278752840148
           H         -1.745292628718     0.357329865898     3.012373368148
           C         -0.478170653718    -1.213915121102     2.193781639148
           H         -0.720835199718    -1.858071246102     1.350421965148
           H         -0.793276880718    -1.741317535102     3.092868059148

  Running in c1 symmetry.

  Nuclear repulsion =  188.337285659554567

  Charge       = 0
  Multiplicity = 1
  Electrons    = 40
  Nalpha       = 20
  Nbeta        = 20

  ==> Algorithm <==

  SCF Algorithm Type is DF.
  DIIS enabled.
  MOM disabled.
  Fractional occupation disabled.
  Guess Type is CORE.
  Energy threshold   = 1.00e-08
  Density threshold  = 1.00e-08
  Integral threshold = 0.00e+00

  ==> Primary Basis <==

  Basis Set: AUG-CC-PVDZ
    Number of shells: 187
    Number of basis function: 425
    Number of Cartesian functions: 451
    Spherical Harmonics?: true
    Max angular momentum: 2

  ==> Pre-Iterations <==

   -------------------------------------------------------
    Irrep   Nso     Nmo     Nalpha   Nbeta   Ndocc  Nsocc
   -------------------------------------------------------
     A        425     425       0       0       0       0
   -------------------------------------------------------
    Total     425     425      20      20      20       0
   -------------------------------------------------------

 OEINTS: Wrapper to libmints.
   by Justin Turney

   Calculation information:
      Number of atoms:                  27
      Number of AO shells:             187
      Number of SO shells:             187
      Number of primitives:            423
      Number of atomic orbitals:       451
      Number of basis functions:       425

      Number of irreps:                  1
      Number of functions per irrep: [ 425 ]

      Overlap, kinetic, potential, dipole, and quadrupole integrals
        stored in file 35.

  ==> Integral Setup <==

  ==> DFJK: Density-Fitted J/K Matrices <==

    J tasked:                  Yes
    K tasked:                  Yes
    wK tasked:                  No
    OpenMP threads:              8
    Integrals threads:           8
    Memory (MB):              5006
    Algorithm:                Core
    Integral Cache:           LOAD
    Schwarz Cutoff:          0E+00
    Fitting Condition:       1E-12

   => Auxiliary Basis Set <=

  Basis Set: aug-cc-pvdz-jkfit
    Number of shells: 532
    Number of basis function: 1566
    Number of Cartesian functions: 1803
    Spherical Harmonics?: true
    Max angular momentum: 3

  Minimum eigenvalue in the overlap matrix is 7.0030070671E-06.
  Using Symmetric Orthogonalization.
  SCF Guess: Core (One-Electron) Hamiltonian.

  Guess energy:  -157.60059970497016

  ==> Iterations <==

                        Total Energy        Delta E     RMS |[F,P]|

   @RHF iter   1:  -154.25471789502646   -1.54255e+02   1.41808e-02 
   @RHF iter   2:  -125.26316627233953    2.89916e+01   1.22186e-02 DIIS
   @RHF iter   3:  -192.45748555371992   -6.71943e+01   4.78924e-03 DIIS
   @RHF iter   4:  -194.95055406443774   -2.49307e+00   1.30112e-03 DIIS
   @RHF iter   5:  -195.17891481875265   -2.28361e-01   1.65897e-04 DIIS
   @RHF iter   6:  -195.18369250930996   -4.77769e-03   4.70301e-05 DIIS
   @RHF iter   7:  -195.18406010457525   -3.67595e-04   1.48597e-05 DIIS
   @RHF iter   8:  -195.18410016973351   -4.00652e-05   3.30938e-06 DIIS
   @RHF iter   9:  -195.18410211226629   -1.94253e-06   6.40193e-07 DIIS
   @RHF iter  10:  -195.18410218660605   -7.43398e-08   2.46484e-07 DIIS
   @RHF iter  11:  -195.18410219357750   -6.97145e-09   7.96079e-08 DIIS
   @RHF iter  12:  -195.18410219435512   -7.77618e-10   9.32916e-09 DIIS

  ==> Post-Iterations <==

	Orbital Energies (a.u.)
	-----------------------

	Doubly Occupied:                                                      

	   1A    -11.215862     2A    -11.215475     3A    -11.215435  
	   4A    -11.214841     5A    -11.214728     6A     -1.117525  
	   7A     -0.957682     8A     -0.957073     9A     -0.777115  
	  10A     -0.767849    11A     -0.649408    12A     -0.644320  
	  13A     -0.568839    14A     -0.566924    15A     -0.474617  
	  16A     -0.473782    17A     -0.462922    18A     -0.459058  
	  19A     -0.458755    20A     -0.447532  

	Virtual:                                                              

	  21A      0.024053    22A      0.038395    23A      0.038820  
	  24A      0.040933    25A      0.054484    26A      0.054940  
	  27A      0.060300    28A      0.062512    29A      0.063170  
	  30A      0.078441    31A      0.081431    32A      0.085032  
	  33A      0.089100    34A      0.093331    35A      0.097221  
	  36A      0.101088    37A      0.114514    38A      0.119376  
	  39A      0.124799    40A      0.126599    41A      0.134300  
	  42A      0.144343    43A      0.145638    44A      0.146181  
	  45A      0.151064    46A      0.156821    47A      0.159011  
	  48A      0.160584    49A      0.161889    50A      0.169401  
	  51A      0.175278    52A      0.176170    53A      0.182352  
	  54A      0.184931    55A      0.191239    56A      0.192924  
	  57A      0.197250    58A      0.206736    59A      0.208935  
	  60A      0.209507    61A      0.213821    62A      0.216939  
	  63A      0.219179    64A      0.223022    65A      0.229715  
	  66A      0.233894    67A      0.235898    68A      0.247825  
	  69A      0.248672    70A      0.255319    71A      0.263870  
	  72A      0.268597    73A      0.274147    74A      0.288617  
	  75A      0.295284    76A      0.299951    77A      0.302868  
	  78A      0.311486    79A      0.314590    80A      0.324455  
	  81A      0.327700    82A      0.330743    83A      0.336391  
	  84A      0.339503    85A      0.346146    86A      0.355324  
	  87A      0.356636    88A      0.367610    89A      0.375664  
	  90A      0.383817    91A      0.388289    92A      0.394705  
	  93A      0.400222    94A      0.404205    95A      0.417649  
	  96A      0.421916    97A      0.426337    98A      0.427277  
	  99A      0.429369   100A      0.442945   101A      0.445332  
	 102A      0.455879   103A      0.459216   104A      0.463722  
	 105A      0.468745   106A      0.472837   107A      0.482764  
	 108A      0.484769   109A      0.489852   110A      0.495776  
	 111A      0.500997   112A      0.505301   113A      0.509637  
	 114A      0.512342   115A      0.517874   116A      0.522818  
	 117A      0.525523   118A      0.530923   119A      0.533038  
	 120A      0.538956   121A      0.552696   122A      0.558808  
	 123A      0.562642   124A      0.575246   125A      0.579816  
	 126A      0.585484   127A      0.591912   128A      0.597495  
	 129A      0.605087   130A      0.613902   131A      0.622517  
	 132A      0.626251   133A      0.631525   134A      0.642082  
	 135A      0.650355   136A      0.653188   137A      0.660312  
	 138A      0.666724   139A      0.672060   140A      0.675718  
	 141A      0.680854   142A      0.685141   143A      0.692593  
	 144A      0.697709   145A      0.701423   146A      0.710761  
	 147A      0.716983   148A      0.720943   149A      0.732412  
	 150A      0.740703   151A      0.741521   152A      0.747910  
	 153A      0.750954   154A      0.756775   155A      0.758692  
	 156A      0.768796   157A      0.776358   158A      0.779590  
	 159A      0.784628   160A      0.790160   161A      0.800299  
	 162A      0.805408   163A      0.810316   164A      0.814450  
	 165A      0.823921   166A      0.827436   167A      0.835515  
	 168A      0.838311   169A      0.843564   170A      0.859943  
	 171A      0.862726   172A      0.873265   173A      0.879534  
	 174A      0.889254   175A      0.891755   176A      0.892937  
	 177A      0.901519   178A      0.907704   179A      0.916074  
	 180A      0.925211   181A      0.929651   182A      0.933726  
	 183A      0.937657   184A      0.942855   185A      0.960607  
	 186A      0.970396   187A      0.974172   188A      0.978537  
	 189A      0.984091   190A      0.993328   191A      0.997127  
	 192A      1.000896   193A      1.015716   194A      1.023806  
	 195A      1.027723   196A      1.037486   197A      1.051312  
	 198A      1.053675   199A      1.065422   200A      1.066873  
	 201A      1.079041   202A      1.082671   203A      1.110329  
	 204A      1.111528   205A      1.126616   206A      1.139830  
	 207A      1.168947   208A      1.173190   209A      1.175694  
	 210A      1.187548   211A      1.195123   212A      1.207987  
	 213A      1.221194   214A      1.227070   215A      1.234676  
	 216A      1.244235   217A      1.253416   218A      1.265680  
	 219A      1.283908   220A      1.291678   221A      1.303482  
	 222A      1.309609   223A      1.325877   224A      1.338541  
	 225A      1.346279   226A      1.364721   227A      1.381759  
	 228A      1.397463   229A      1.404855   230A      1.409179  
	 231A      1.420778   232A      1.428359   233A      1.440841  
	 234A      1.443367   235A      1.455419   236A      1.459348  
	 237A      1.474716   238A      1.480145   239A      1.488151  
	 240A      1.492790   241A      1.508743   242A      1.528401  
	 243A      1.542177   244A      1.558679   245A      1.563097  
	 246A      1.578128   247A      1.585016   248A      1.594689  
	 249A      1.605501   250A      1.628854   251A      1.640309  
	 252A      1.656771   253A      1.668432   254A      1.676068  
	 255A      1.685040   256A      1.701415   257A      1.711085  
	 258A      1.713205   259A      1.727417   260A      1.740365  
	 261A      1.771173   262A      1.790613   263A      1.821076  
	 264A      1.843386   265A      1.852153   266A      1.867582  
	 267A      1.883871   268A      1.904946   269A      1.938468  
	 270A      1.942731   271A      1.958769   272A      1.989157  
	 273A      1.990965   274A      2.009308   275A      2.027440  
	 276A      2.057075   277A      2.082881   278A      2.087349  
	 279A      2.099578   280A      2.125022   281A      2.139715  
	 282A      2.148160   283A      2.158894   284A      2.176119  
	 285A      2.189985   286A      2.201213   287A      2.213577  
	 288A      2.228249   289A      2.237686   290A      2.268954  
	 291A      2.280957   292A      2.289561   293A      2.295917  
	 294A      2.303420   295A      2.316418   296A      2.327801  
	 297A      2.330830   298A      2.365865   299A      2.370212  
	 300A      2.386062   301A      2.400989   302A      2.411954  
	 303A      2.424597   304A      2.439091   305A      2.444761  
	 306A      2.466822   307A      2.479779   308A      2.492167  
	 309A      2.518885   310A      2.525859   311A      2.543142  
	 312A      2.546838   313A      2.562206   314A      2.569887  
	 315A      2.579524   316A      2.590660   317A      2.596862  
	 318A      2.616188   319A      2.623744   320A      2.632396  
	 321A      2.652153   322A      2.658858   323A      2.683581  
	 324A      2.694559   325A      2.715008   326A      2.731750  
	 327A      2.736758   328A      2.762786   329A      2.777142  
	 330A      2.799930   331A      2.805100   332A      2.812073  
	 333A      2.829751   334A      2.840971   335A      2.846707  
	 336A      2.877793   337A      2.893761   338A      2.904913  
	 339A      2.923880   340A      2.935517   341A      2.954768  
	 342A      2.967293   343A      2.990807   344A      2.993020  
	 345A      3.009033   346A      3.024967   347A      3.047405  
	 348A      3.077199   349A      3.115973   350A      3.121742  
	 351A      3.138581   352A      3.154752   353A      3.203273  
	 354A      3.238450   355A      3.263148   356A      3.287562  
	 357A      3.314430   358A      3.336879   359A      3.354791  
	 360A      3.385383   361A      3.432838   362A      3.466228  
	 363A      3.530807   364A      3.543262   365A      3.562517  
	 366A      3.590257   367A      3.640664   368A      3.691777  
	 369A      3.720807   370A      3.735787   371A      3.768329  
	 372A      3.808304   373A      3.832595   374A      3.846303  
	 375A      3.884479   376A      3.913422   377A      3.939008  
	 378A      3.979601   379A      4.005894   380A      4.156060  
	 381A      4.221069   382A      4.269961   383A      4.388758  
	 384A      4.469677   385A      4.515366   386A      4.560893  
	 387A      4.602112   388A      4.670360   389A      4.730182  
	 390A      4.842231   391A      4.867641   392A      4.954264  
	 393A      4.984654   394A      5.034091   395A      5.064900  
	 396A      5.087637   397A      5.099880   398A      5.120328  
	 399A      5.129352   400A      5.146918   401A      5.237775  
	 402A      5.393023   403A      5.482766   404A      5.561804  
	 405A      5.705865   406A      5.816839   407A      5.980892  
	 408A      6.046808   409A      6.107955   410A      6.152085  
	 411A      6.223193   412A      6.267114   413A      6.330959  
	 414A      6.466345   415A      6.557331   416A      7.047546  
	 417A      7.337161   418A     18.181683   419A     18.798206  
	 420A     18.902735   421A     19.613984   422A     25.467810  
	 423A     25.494989   424A     33.540135   425A     33.549973  

	Final Occupation by Irrep:
	          A 
	DOCC [    20 ]

  Energy converged.

  @RHF Final Energy:  -195.18410219435512

   => Energetics <=

    Nuclear Repulsion Energy =            188.3372856595545670
    One-Electron Energy =                -635.3232966688331089
    Two-Electron Energy =                 251.8019088149229958
    DFT Exchange-Correlation Energy =       0.0000000000000000
    Empirical Dispersion Energy =           0.0000000000000000
    Total Energy =                       -195.1841021943555177



Properties will be evaluated at   0.000000,   0.000000,   0.000000 Bohr
  ==> Properties <==


Properties computed using the SCF density density matrix
  Nuclear Dipole Moment: (a.u.)
     X:     5.1340      Y:    -2.8777      Z:   168.5766

  Electronic Dipole Moment: (a.u.)
     X:    -5.1299      Y:     2.8821      Z:  -168.5743

  Dipole Moment: (a.u.)
     X:     0.0042      Y:     0.0044      Z:     0.0023     Total:     0.0065

  Dipole Moment: (Debye)
     X:     0.0106      Y:     0.0111      Z:     0.0058     Total:     0.0164


  Saving occupied orbitals to File 180.

  Saving SAPT 2-MONOMER_B file.

*** tstop() called on node62.bme.utexas.edu at Tue Oct 15 16:29:38 2013
Module time:
	user time   =     374.51 seconds =       6.24 minutes
	system time =       4.37 seconds =       0.07 minutes
	total time  =         53 seconds =       0.88 minutes
Total time:
	user time   =    1842.87 seconds =      30.71 minutes
	system time =      23.30 seconds =       0.39 minutes
	total time  =        262 seconds =       4.37 minutes
  No DF_BASIS_SAPT auxiliary basis selected, defaulting to aug-cc-pvdz-ri

  //>>>>>>>>>>>>>>>>>>>>>>>>>>>>>>>>>>>//
  //               SAPT2+              //
  //<<<<<<<<<<<<<<<<<<<<<<<<<<<<<<<<<<<//


*** tstart() called on node62.bme.utexas.edu
*** at Tue Oct 15 16:29:38 2013

        SAPT2+  
    Ed Hohenstein
     6 June 2009

      Orbital Information
  --------------------------
    NSO        =       425
    NMO        =       425
    NRI        =      1258
    NOCC A     =        29
    NOCC B     =        20
    FOCC A     =         8
    FOCC B     =         5
    NVIR A     =       396
    NVIR B     =       405

    Estimated memory usage: 4961.4 MB

    Elst10,r            =    -0.004805321358 H
    Exch10 (S^2)        =     0.013890156117 H
    Exch10              =     0.013922492929 H
    Ind20,r (A<-B)      =    -0.000919867752 H
    Ind20,r (B<-A)      =    -0.003577155396 H
    Ind20,r             =    -0.004497023148 H
    Exch-Ind20,r (A<-B) =     0.000752994855 H
    Exch-Ind20,r (B<-A) =     0.003048319813 H
    Exch-Ind20,r        =     0.003801314669 H
    Disp20              =    -0.016371159997 H
    Exch-Disp20         =     0.001662158792 H
    Elst12,r            =    -0.001103655047 H
    Exch11              =     0.000140951978 H
    Exch12              =     0.001808214377 H
    Ind22               =    -0.000571146890 H
    Disp21              =     0.003059356612 H
    Disp22 (SDQ)        =    -0.000511371145 H

    (i =   1 of  15)       2920 seconds
    (i =   2 of  15)       5843 seconds
    (i =   3 of  15)       8762 seconds
    (i =   4 of  15)      11682 seconds
    (i =   5 of  15)      14605 seconds
    (i =   6 of  15)      17526 seconds
    (i =   7 of  15)      20446 seconds
    (i =   8 of  15)      23370 seconds
    (i =   9 of  15)      26293 seconds
    (i =  10 of  15)      29216 seconds
    (i =  11 of  15)      32139 seconds
    (i =  12 of  15)      35063 seconds
    (i =  13 of  15)      37988 seconds
    (i =  14 of  15)      40912 seconds
    (i =  15 of  15)      43835 seconds

    Disp220 (T)         =    -0.001725264021 H

    (i =   1 of  21)       1613 seconds
    (i =   2 of  21)       3223 seconds
    (i =   3 of  21)       4834 seconds
    (i =   4 of  21)       6446 seconds
    (i =   5 of  21)       8060 seconds
    (i =   6 of  21)       9672 seconds
    (i =   7 of  21)      11283 seconds
    (i =   8 of  21)      12893 seconds
    (i =   9 of  21)      14506 seconds
    (i =  10 of  21)      16119 seconds
    (i =  11 of  21)      17731 seconds
    (i =  12 of  21)      19344 seconds
    (i =  13 of  21)      20956 seconds
    (i =  14 of  21)      22566 seconds
    (i =  15 of  21)      24179 seconds
    (i =  16 of  21)      25792 seconds
    (i =  17 of  21)      27405 seconds
    (i =  18 of  21)      29017 seconds
    (i =  19 of  21)      30631 seconds
    (i =  20 of  21)      32244 seconds
    (i =  21 of  21)      33858 seconds

    Disp202 (T)         =    -0.001173712948 H

    Disp22 (T)          =    -0.002898976969 H

    SAPT Results  
  -----------------------------------------------------------------------
    Electrostatics          -5.90897641 mH      -3.70793883 kcal mol^-1
      Elst10,r              -4.80532136 mH      -3.01538480 kcal mol^-1
      Elst12,r              -1.10365505 mH      -0.69255403 kcal mol^-1

    Exchange                15.87165928 mH       9.95961698 kcal mol^-1
      Exch10                13.92249293 mH       8.73649658 kcal mol^-1
      Exch10(S^2)           13.89015612 mH       8.71620492 kcal mol^-1
      Exch11(S^2)            0.14095198 mH       0.08844870 kcal mol^-1
      Exch12(S^2)            1.80821438 mH       1.13467170 kcal mol^-1

    Induction               -1.49330557 mH      -0.93706343 kcal mol^-1
      Ind20,r               -4.49702315 mH      -2.82192475 kcal mol^-1
      Ind22                 -0.57114689 mH      -0.35840010 kcal mol^-1
      Exch-Ind20,r           3.80131467 mH       2.38536107 kcal mol^-1
      Exch-Ind22             0.48278805 mH       0.30295409 kcal mol^-1
      delta HF,r (2)        -0.70923826 mH      -0.44505374 kcal mol^-1

    Dispersion             -15.05999271 mH      -9.45028849 kcal mol^-1
      Disp20               -16.37116000 mH     -10.27305842 kcal mol^-1
      Disp21                 3.05935661 mH       1.91977534 kcal mol^-1
      Disp22 (SDQ)          -0.51137114 mH      -0.32089025 kcal mol^-1
      Disp22 (T)            -2.89897697 mH      -1.81913559 kcal mol^-1
      Exch-Disp20            1.66215879 mH       1.04302043 kcal mol^-1

    Total HF                 7.71222483 mH       4.83949435 kcal mol^-1
    Total SAPT0             -6.99677637 mH      -4.39054364 kcal mol^-1
    Total SAPT2             -6.23962390 mH      -3.91542327 kcal mol^-1
    Total SAPT2+            -6.59061540 mH      -4.13567378 kcal mol^-1

*** tstop() called on node62.bme.utexas.edu at Wed Oct 16 15:15:54 2013
Module time:
	user time   =  493637.30 seconds =    8227.29 minutes
	system time =     747.14 seconds =      12.45 minutes
	total time  =      81976 seconds =    1366.27 minutes
Total time:
	user time   =  495480.18 seconds =    8258.00 minutes
	system time =     770.44 seconds =      12.84 minutes
	total time  =      82238 seconds =    1370.63 minutes

*** PSI4 exiting successfully. Buy a developer a beer!
